<event>
12    1  0.4154313E-002  0.1795678E+03  0.7546771E-02  0.1168222E+00
         -3   -1    0    0    0  501 -0.00000000000E+00  0.00000000000E+00  0.11489319948E+03  0.11489319948E+03  0.00000000000E+00 0.  1.
          3   -1    0    0  502    0  0.00000000000E+00 -0.00000000000E+00 -0.28140991890E+03  0.28140991890E+03  0.00000000000E+00 0. -1.
          6    2    1    2  502    0 -0.42984723768E+02  0.23458085473E+02 -0.73024844084E+02  0.19399298206E+03  0.17292391675E+03 0.  0.
         24    2    3    3    0    0 -0.49358645533E+02  0.57704975930E+02 -0.25854393376E+02  0.13516596612E+03  0.10878992878E+03 0.  0.
         -6    2    1    2    0  501  0.42984723768E+02 -0.23458085473E+02 -0.93491875341E+02  0.20231013632E+03  0.17259980374E+03 0.  0.
        -24    2    5    5    0    0  0.62201765795E+02  0.36570807842E+02 -0.83905284060E+02  0.13838240001E+03  0.83084946204E+02 0.  0.
          5    1    3    3  502    0  0.63739217651E+01 -0.34246890457E+02 -0.47170450708E+02  0.58827015942E+02  0.47000000000E+01 0. -1.
        -13    1    4    4    0    0 -0.45748072220E+02 -0.21587139710E+00  0.29929730540E+02  0.54669200493E+02  0.00000000000E+00 0.  1.
         14    1    4    4    0    0 -0.36105733131E+01  0.57920847327E+02 -0.55784123916E+02  0.80496765624E+02  0.00000000000E+00 0. -1.
         -5    1    5    5    0  501 -0.19217042027E+02 -0.60028893315E+02 -0.95865912807E+01  0.63927736307E+02  0.47000000000E+01 0.  1.
         11    1    6    6    0    0  0.37495819291E+02 -0.24036544451E+02 -0.36140920066E+02  0.57357284076E+02  0.00000000000E+00 0. -1.
        -12    1    6    6    0    0  0.24705946504E+02  0.60607352293E+02 -0.47764363995E+02  0.81025115936E+02  0.00000000000E+00 0.  1.
<mgrwt>
<rscale>  2 0.17956783E+03</rscale>
<asrwt>0</asrwt>
<pdfrwt beam="2">  1        3 0.43293834E-01 0.17956783E+03</pdfrwt>
<pdfrwt beam="1">  1       -3 0.17675877E-01 0.17956783E+03</pdfrwt>
<totfact> 0.35806540E+02</totfact>
</mgrwt>
</event>
<event>
12    1  0.4154313E-002  0.1734155E+03  0.7546771E-02  0.1174332E+00
         -1   -1    0    0    0  501 -0.00000000000E+00  0.00000000000E+00  0.41060778567E+02  0.41060778567E+02  0.00000000000E+00 0.  1.
          1   -1    0    0  502    0  0.00000000000E+00 -0.00000000000E+00 -0.76349883099E+03  0.76349883099E+03  0.00000000000E+00 0. -1.
          6    2    1    2  502    0  0.21170291204E+02  0.21785265304E+02 -0.27827660729E+03  0.32741907870E+03  0.16983110409E+03 0.  0.
         24    2    3    3    0    0  0.48328280040E+02  0.38767387958E+02 -0.91234123998E+02  0.13759566232E+03  0.82282245278E+02 0.  0.
         -6    2    1    2    0  501 -0.21170291204E+02 -0.21785265304E+02 -0.44416144513E+03  0.47714053086E+03  0.17164183008E+03 0.  0.
        -24    2    5    5    0    0  0.15449064060E+01 -0.52307888273E+02 -0.13404307868E+03  0.16466156849E+03  0.80046132219E+02 0.  0.
          5    1    3    3  502    0 -0.27157988835E+02 -0.16982122654E+02 -0.18704248329E+03  0.18982341637E+03  0.47000000000E+01 0. -1.
        -13    1    4    4    0    0 -0.10858189708E+01  0.51219804377E+02 -0.37129657052E+02  0.63271311003E+02  0.00000000000E+00 0.  1.
         14    1    4    4    0    0  0.49414099010E+02 -0.12452416419E+02 -0.54104466946E+02  0.74324351320E+02  0.00000000000E+00 0. -1.
         -5    1    5    5    0  501 -0.22715197610E+02  0.30522622970E+02 -0.31011836645E+03  0.31247896237E+03  0.47000000000E+01 0.  1.
         13    1    6    6    0    0  0.25215175053E+02 -0.33910934294E+02 -0.12702846343E+03  0.13387302580E+03  0.00000000000E+00 0. -1.
        -14    1    6    6    0    0 -0.23670268647E+02 -0.18396953980E+02 -0.70146152591E+01  0.30788542687E+02  0.00000000000E+00 0.  1.
<mgrwt>
<rscale>  2 0.17341554E+03</rscale>
<asrwt>0</asrwt>
<pdfrwt beam="2">  1        1 0.11746135E+00 0.17341554E+03</pdfrwt>
<pdfrwt beam="1">  1       -1 0.63170434E-02 0.17341554E+03</pdfrwt>
<totfact> 0.30195391E+03</totfact>
</mgrwt>
</event>
<event>
12    1  0.4154313E-002  0.1754671E+03  0.7546771E-02  0.1172264E+00
         -2   -1    0    0    0  501 -0.00000000000E+00  0.00000000000E+00  0.28379920213E+02  0.28379920213E+02  0.00000000000E+00 0.  1.
          2   -1    0    0  502    0  0.00000000000E+00 -0.00000000000E+00 -0.12015208529E+04  0.12015208529E+04  0.00000000000E+00 0. -1.
          6    2    1    2  502    0 -0.40450636358E+02  0.13635122198E+01 -0.40381698446E+03  0.44144339750E+03  0.17368362938E+03 0.  0.
         24    2    3    3    0    0  0.19504604519E+02  0.39440607793E+02 -0.31146512936E+03  0.32484386381E+03  0.81098815716E+02 0.  0.
         -6    2    1    2    0  501  0.40450636358E+02 -0.13635122198E+01 -0.76932394822E+03  0.78845737560E+03  0.16783200735E+03 0.  0.
        -24    2    5    5    0    0 -0.29289240750E+02 -0.32914380315E+02 -0.49807392618E+03  0.50657482525E+03  0.81235469970E+02 0.  0.
          5    1    3    3  502    0 -0.59955240876E+02 -0.38077095573E+02 -0.92351855099E+02  0.11659953369E+03  0.47000000000E+01 0. -1.
        -13    1    4    4    0    0 -0.16968378448E+02  0.12905435807E+02 -0.17908138616E+02  0.27842010869E+02  0.00000000000E+00 0.  1.
         14    1    4    4    0    0  0.36472982967E+02  0.26535171986E+02 -0.29355699074E+03  0.29700185295E+03  0.00000000000E+00 0. -1.
         -5    1    5    5    0  501  0.69739877108E+02  0.31550868096E+02 -0.27125002204E+03  0.28188255036E+03  0.47000000000E+01 0.  1.
         13    1    6    6    0    0  0.19754891826E+02  0.13242114724E+02 -0.17037328752E+03  0.17202519134E+03  0.00000000000E+00 0. -1.
        -14    1    6    6    0    0 -0.49044132576E+02 -0.46156495039E+02 -0.32770063866E+03  0.33454963391E+03  0.00000000000E+00 0.  1.
<mgrwt>
<rscale>  2 0.17546708E+03</rscale>
<asrwt>0</asrwt>
<pdfrwt beam="2">  1        2 0.18484931E+00 0.17546708E+03</pdfrwt>
<pdfrwt beam="1">  1       -2 0.43661427E-02 0.17546708E+03</pdfrwt>
<totfact> 0.47459293E+03</totfact>
</mgrwt>
</event>
<event>
12    1  0.4154313E-002  0.2293797E+03  0.7546771E-02  0.1127077E+00
          2   -1    0    0  502    0  0.00000000000E+00  0.00000000000E+00  0.95246145157E+03  0.95246145157E+03  0.00000000000E+00 0. -1.
         -2   -1    0    0    0  501 -0.00000000000E+00 -0.00000000000E+00 -0.55242405398E+02  0.55242405398E+02  0.00000000000E+00 0.  1.
          6    2    1    2  502    0  0.52302002303E+02  0.14327920298E+03  0.45162171299E+03  0.50669860406E+03  0.17180475622E+03 0.  0.
         24    2    3    3    0    0  0.33329991704E+02  0.59018210523E+02  0.37993073375E+03  0.39435298313E+03  0.81073271431E+02 0.  0.
         -6    2    1    2    0  501 -0.52302002303E+02 -0.14327920298E+03  0.44559733318E+03  0.50100525291E+03  0.17083574173E+03 0.  0.
        -24    2    5    5    0    0 -0.65283405787E+02 -0.16670999099E+03  0.41910557734E+03  0.46303919187E+03  0.81863692091E+02 0.  0.
          5    1    3    3  502    0  0.18972010599E+02  0.84260992457E+02  0.71690979244E+02  0.11234562092E+03  0.47000000000E+01 0. -1.
        -11    1    4    4    0    0  0.38377730317E+01 -0.55516895832E+01 -0.10369253027E+01  0.68282481762E+01  0.00000000000E+00 0.  1.
         12    1    4    4    0    0  0.29492218673E+02  0.64569900106E+02  0.38096765905E+03  0.38752473496E+03  0.00000000000E+00 0. -1.
         -5    1    5    5    0  501  0.12981403484E+02  0.23430788011E+02  0.26491755838E+02  0.37966061037E+02  0.47000000000E+01 0.  1.
         11    1    6    6    0    0  0.72928019062E+01 -0.85745079903E+02  0.15233895987E+03  0.17496446034E+03  0.00000000000E+00 0. -1.
        -12    1    6    6    0    0 -0.72576207693E+02 -0.80964911088E+02  0.26676661747E+03  0.28807473153E+03  0.00000000000E+00 0.  1.
<mgrwt>
<rscale>  2 0.22937966E+03</rscale>
<asrwt>0</asrwt>
<pdfrwt beam="1">  1        2 0.14653252E+00 0.22937966E+03</pdfrwt>
<pdfrwt beam="2">  1       -2 0.84988323E-02 0.22937966E+03</pdfrwt>
<totfact> 0.24086885E+03</totfact>
</mgrwt>
</event>
<event>
12    1  0.4154313E-002  0.2529085E+03  0.7546771E-02  0.1111480E+00
         -1   -1    0    0    0  501 -0.00000000000E+00  0.00000000000E+00  0.40552511828E+03  0.40552511828E+03  0.00000000000E+00 0. -1.
          1   -1    0    0  502    0  0.00000000000E+00 -0.00000000000E+00 -0.15816339297E+03  0.15816339297E+03  0.00000000000E+00 0.  1.
          6    2    1    2  502    0  0.16748036004E+03 -0.74228137278E+02  0.10937240958E+03  0.27637841542E+03  0.17567930206E+03 0.  0.
         24    2    3    3    0    0  0.56183975510E+02 -0.84398963117E+02  0.18012400574E+02  0.13195171377E+03  0.82504449042E+02 0.  0.
         -6    2    1    2    0  501 -0.16748036004E+03  0.74228137278E+02  0.13798931573E+03  0.28731009583E+03  0.17305072247E+03 0.  0.
        -24    2    5    5    0    0 -0.87985339919E+02  0.10421950155E+03  0.53483092738E+02  0.16738373560E+03  0.80955229535E+02 0.  0.
          5    1    3    3  502    0  0.11129638453E+03  0.10170825839E+02  0.91360009001E+02  0.14442670166E+03  0.47000000000E+01 0. -1.
        -11    1    4    4    0    0  0.38583734580E+02 -0.77021569226E+02  0.46322487185E+02  0.97810017479E+02  0.00000000000E+00 0.  1.
         12    1    4    4    0    0  0.17600240930E+02 -0.73773938904E+01 -0.28310086610E+02  0.34141696286E+02  0.00000000000E+00 0. -1.
         -5    1    5    5    0  501 -0.79495020120E+02 -0.29991364273E+02  0.84506222995E+02  0.11992636024E+03  0.47000000000E+01 0.  1.
         11    1    6    6    0    0  0.26148936020E+01 -0.39173844898E+01  0.22446890014E+02  0.22935702324E+02  0.00000000000E+00 0. -1.
        -12    1    6    6    0    0 -0.90600233521E+02  0.10813688604E+03  0.31036202724E+02  0.14444803327E+03  0.00000000000E+00 0.  1.
<mgrwt>
<rscale>  2 0.25290854E+03</rscale>
<asrwt>0</asrwt>
<pdfrwt beam="2">  1        1 0.24332830E-01 0.25290854E+03</pdfrwt>
<pdfrwt beam="1">  1       -1 0.62388480E-01 0.25290854E+03</pdfrwt>
<totfact> 0.53527282E+02</totfact>
</mgrwt>
</event>
<event>
12    1  0.4154313E-002  0.2237783E+03  0.7546771E-02  0.1131097E+00
          2   -1    0    0  502    0  0.00000000000E+00  0.00000000000E+00  0.38181552343E+04  0.38181552343E+04  0.00000000000E+00 0. -1.
         -2   -1    0    0    0  501 -0.00000000000E+00 -0.00000000000E+00 -0.13353274749E+02  0.13353274749E+02  0.00000000000E+00 0.  1.
          6    2    1    2  502    0  0.13693237407E+03 -0.34969897433E+02  0.16427955938E+04  0.16579030254E+04  0.17289219113E+03 0.  0.
         24    2    3    3    0    0  0.11880073806E+03  0.34355658782E+02  0.96139213865E+03  0.97272600617E+03  0.81407076818E+02 0.  0.
         -6    2    1    2    0  501 -0.13693237407E+03  0.34969897433E+02  0.21620063657E+04  0.21736054837E+04  0.17411462976E+03 0.  0.
        -24    2    5    5    0    0 -0.16652618270E+03  0.46779139053E+02  0.16683515407E+04  0.16789010992E+04  0.73435551585E+02 0.  0.
          5    1    3    3  502    0  0.18131636010E+02 -0.69325556216E+02  0.68140345513E+03  0.68517701920E+03  0.47000000000E+01 0. -1.
        -13    1    4    4    0    0  0.54891884184E+02  0.42118240437E+01  0.69315738646E+03  0.69534021947E+03  0.00000000000E+00 0.  1.
         14    1    4    4    0    0  0.63908853877E+02  0.30143834739E+02  0.26823475219E+03  0.27738578670E+03  0.00000000000E+00 0. -1.
         -5    1    5    5    0  501  0.29593808624E+02 -0.11809241620E+02  0.49365482509E+03  0.49470438448E+03  0.47000000000E+01 0.  1.
         11    1    6    6    0    0 -0.47452335820E+02 -0.72383648340E+01  0.71717717029E+03  0.71878175525E+03  0.00000000000E+00 0. -1.
        -12    1    6    6    0    0 -0.11907384687E+03  0.54017503888E+02  0.95117437037E+03  0.96011934393E+03  0.00000000000E+00 0.  1.
<mgrwt>
<rscale>  2 0.22377830E+03</rscale>
<asrwt>0</asrwt>
<pdfrwt beam="1">  1        2 0.58740762E+00 0.22377830E+03</pdfrwt>
<pdfrwt beam="2">  1       -2 0.20543530E-02 0.22377830E+03</pdfrwt>
<totfact> 0.46102098E+02</totfact>
</mgrwt>
</event>
<event>
12    1  0.4154313E-002  0.1931703E+03  0.7546771E-02  0.1155633E+00
          2   -1    0    0  502    0  0.00000000000E+00  0.00000000000E+00  0.73649541131E+03  0.73649541131E+03  0.00000000000E+00 0.  1.
         -2   -1    0    0    0  501 -0.00000000000E+00 -0.00000000000E+00 -0.85154766211E+02  0.85154766211E+02  0.00000000000E+00 0. -1.
          6    2    1    2  502    0 -0.70519935622E+02  0.49265281324E+02  0.64467396587E+02  0.20388119401E+03  0.17323789073E+03 0.  0.
         24    2    3    3    0    0 -0.10223793400E+03  0.24371431708E+02  0.57015626529E+01  0.13245816966E+03  0.80412045487E+02 0.  0.
         -6    2    1    2    0  501  0.70519935622E+02 -0.49265281324E+02  0.58687324851E+03  0.61776898351E+03  0.17267940787E+03 0.  0.
        -24    2    5    5    0    0  0.34921148310E+02 -0.67962560120E+02  0.19295201010E+03  0.22177290529E+03  0.78194290980E+02 0.  0.
          5    1    3    3  502    0  0.31717998382E+02  0.24893849616E+02  0.58765833934E+02  0.71423024355E+02  0.47000000000E+01 0. -1.
        -13    1    4    4    0    0 -0.53735101205E+02 -0.20111322820E+01  0.40389775589E+02  0.67252061133E+02  0.00000000000E+00 0.  1.
         14    1    4    4    0    0 -0.48502832799E+02  0.26382563990E+02 -0.34688212936E+02  0.65206108525E+02  0.00000000000E+00 0. -1.
         -5    1    5    5    0  501  0.35598787312E+02  0.18697278795E+02  0.39392123841E+03  0.39599607822E+03  0.47000000000E+01 0.  1.
         13    1    6    6    0    0 -0.98380139669E+01  0.12115239411E+02  0.45606946156E+02  0.48203309871E+02  0.00000000000E+00 0. -1.
        -14    1    6    6    0    0  0.44759162277E+02 -0.80077799531E+02  0.14734506394E+03  0.17356959542E+03  0.00000000000E+00 0.  1.
<mgrwt>
<rscale>  2 0.19317033E+03</rscale>
<asrwt>0</asrwt>
<pdfrwt beam="1">  1        2 0.11330698E+00 0.19317033E+03</pdfrwt>
<pdfrwt beam="2">  1       -2 0.13100734E-01 0.19317033E+03</pdfrwt>
<totfact> 0.16801874E+03</totfact>
</mgrwt>
</event>
<event>
12    1  0.4154313E-002  0.2060261E+03  0.7546771E-02  0.1144752E+00
         -4   -1    0    0    0  501 -0.00000000000E+00  0.00000000000E+00  0.29800520501E+02  0.29800520501E+02  0.00000000000E+00 0. -1.
          4   -1    0    0  502    0  0.00000000000E+00 -0.00000000000E+00 -0.14558182270E+04  0.14558182270E+04  0.00000000000E+00 0.  1.
          6    2    1    2  502    0  0.58608846539E+02  0.10404383002E+03 -0.62066801505E+03  0.65544944205E+03  0.17356575330E+03 0.  0.
         24    2    3    3    0    0 -0.26011022815E+02  0.53792862279E+02 -0.42409392885E+03  0.43556505558E+03  0.79315898863E+02 0.  0.
         -6    2    1    2    0  501 -0.58608846539E+02 -0.10404383002E+03 -0.80534969150E+03  0.83016930550E+03  0.16227394968E+03 0.  0.
        -24    2    5    5    0    0 -0.97792787146E+02 -0.10036869514E+03 -0.62795671212E+03  0.64840229268E+03  0.80365394759E+02 0.  0.
          5    1    3    3  502    0  0.84619869355E+02  0.50250967738E+02 -0.19657408620E+03  0.21988438647E+03  0.47000000000E+01 0. -1.
        -13    1    4    4    0    0 -0.23676475403E+02  0.14213529869E+02 -0.35367679273E+03  0.35475325740E+03  0.00000000000E+00 0.  1.
         14    1    4    4    0    0 -0.23345474127E+01  0.39579332410E+02 -0.70417136125E+02  0.80811798184E+02  0.00000000000E+00 0. -1.
         -5    1    5    5    0  501  0.39183940607E+02 -0.36751348805E+01 -0.17739297937E+03  0.18176701282E+03  0.47000000000E+01 0.  1.
         13    1    6    6    0    0 -0.41215470261E+02 -0.59266609079E+02 -0.16372947842E+03  0.17893738582E+03  0.00000000000E+00 0. -1.
        -14    1    6    6    0    0 -0.56577316885E+02 -0.41102086058E+02 -0.46422723370E+03  0.46946490686E+03  0.00000000000E+00 0.  1.
<mgrwt>
<rscale>  2 0.20602606E+03</rscale>
<asrwt>0</asrwt>
<pdfrwt beam="2">  1        4 0.22397199E+00 0.20602606E+03</pdfrwt>
<pdfrwt beam="1">  1       -4 0.45846964E-02 0.20602606E+03</pdfrwt>
<totfact> 0.50677640E+01</totfact>
</mgrwt>
</event>
<event>
12    1  0.4154313E-002  0.1947522E+03  0.7546771E-02  0.1154244E+00
          2   -1    0    0  502    0  0.00000000000E+00  0.00000000000E+00  0.90130041757E+03  0.90130041757E+03  0.00000000000E+00 0.  1.
         -2   -1    0    0    0  501 -0.00000000000E+00 -0.00000000000E+00 -0.43904385876E+02  0.43904385876E+02  0.00000000000E+00 0. -1.
          6    2    1    2  502    0  0.64139800913E+02  0.61523436065E+02  0.33300541070E+03  0.38591544201E+03  0.17360609891E+03 0.  0.
         24    2    3    3    0    0  0.10998453602E+03  0.38045653447E+02  0.25749625461E+03  0.29439129947E+03  0.82570249820E+02 0.  0.
         -6    2    1    2    0  501 -0.64139800913E+02 -0.61523436065E+02  0.52439062099E+03  0.55928936143E+03  0.17297404194E+03 0.  0.
        -24    2    5    5    0    0 -0.93087339407E+02 -0.11877628651E+02  0.24592611631E+03  0.27491770928E+03  0.79333229955E+02 0.  0.
          5    1    3    3  502    0 -0.45844735110E+02  0.23477782618E+02  0.75509156093E+02  0.91524142541E+02  0.47000000000E+01 0. -1.
        -13    1    4    4    0    0  0.32026290971E+02 -0.25754052273E+02  0.60590009774E+02  0.73212729810E+02  0.00000000000E+00 0.  1.
         14    1    4    4    0    0  0.77958245052E+02  0.63799705720E+02  0.19690624483E+03  0.22117856966E+03  0.00000000000E+00 0. -1.
         -5    1    5    5    0  501  0.28947538494E+02 -0.49645807414E+02  0.27846450468E+03  0.28437165215E+03  0.47000000000E+01 0.  1.
         11    1    6    6    0    0 -0.52497883223E+02  0.32790826829E+02  0.11059989862E+03  0.12674227251E+03  0.00000000000E+00 0. -1.
        -12    1    6    6    0    0 -0.40589456185E+02 -0.44668455480E+02  0.13532621769E+03  0.14817543677E+03  0.00000000000E+00 0.  1.
<mgrwt>
<rscale>  2 0.19475225E+03</rscale>
<asrwt>0</asrwt>
<pdfrwt beam="1">  1        2 0.13866159E+00 0.19475225E+03</pdfrwt>
<pdfrwt beam="2">  1       -2 0.67545216E-02 0.19475225E+03</pdfrwt>
<totfact> 0.36974657E+03</totfact>
</mgrwt>
</event>
<event>
12    1  0.4154313E-002  0.2207867E+03  0.7546771E-02  0.1133298E+00
          1   -1    0    0  502    0  0.00000000000E+00  0.00000000000E+00  0.68581022409E+02  0.68581022409E+02  0.00000000000E+00 0.  1.
         -1   -1    0    0    0  501 -0.00000000000E+00 -0.00000000000E+00 -0.75910067924E+03  0.75910067924E+03  0.00000000000E+00 0. -1.
          6    2    1    2  502    0 -0.92562188418E+02  0.10061867432E+03 -0.44993656048E+03  0.50127159627E+03  0.17360422926E+03 0.  0.
         24    2    3    3    0    0 -0.83919823498E+02 -0.22414975657E+01 -0.23467875295E+03  0.26249781392E+03  0.82361545270E+02 0.  0.
         -6    2    1    2    0  501  0.92562188418E+02 -0.10061867432E+03 -0.24058309634E+03  0.32641010538E+03  0.17312265682E+03 0.  0.
        -24    2    5    5    0    0  0.72294356587E+02 -0.67012875597E+02 -0.25460000409E+03  0.28447326695E+03  0.79916694349E+02 0.  0.
          5    1    3    3  502    0 -0.86423649203E+01  0.10286017188E+03 -0.21525780753E+03  0.23877378234E+03  0.47000000000E+01 0. -1.
        -11    1    4    4    0    0  0.22384086168E+01  0.25599352700E+02 -0.36764130870E+02  0.44854639118E+02  0.00000000000E+00 0.  1.
         12    1    4    4    0    0 -0.86158232115E+02 -0.27840850266E+02 -0.19791462208E+03  0.21764317480E+03  0.00000000000E+00 0. -1.
         -5    1    5    5    0  501  0.20267831831E+02 -0.33605798719E+02  0.14016907749E+02  0.41936838430E+02  0.47000000000E+01 0.  1.
         11    1    6    6    0    0  0.77133047955E+02 -0.37959344997E+02 -0.12593216347E+03  0.15247730571E+03  0.00000000000E+00 0. -1.
        -12    1    6    6    0    0 -0.48386913674E+01 -0.29053530600E+02 -0.12866784062E+03  0.13199596124E+03  0.00000000000E+00 0.  1.
<mgrwt>
<rscale>  2 0.22078665E+03</rscale>
<asrwt>0</asrwt>
<pdfrwt beam="1">  1        1 0.10550926E-01 0.22078665E+03</pdfrwt>
<pdfrwt beam="2">  1       -1 0.11678472E+00 0.22078665E+03</pdfrwt>
<totfact> 0.42164445E+02</totfact>
</mgrwt>
</event>
<event>
12    1  0.4154313E-002  0.2038364E+03  0.7546771E-02  0.1146542E+00
          2   -1    0    0  502    0  0.00000000000E+00  0.00000000000E+00  0.75826396092E+03  0.75826396092E+03  0.00000000000E+00 0. -1.
         -2   -1    0    0    0  501 -0.00000000000E+00 -0.00000000000E+00 -0.92715002772E+02  0.92715002772E+02  0.00000000000E+00 0.  1.
          6    2    1    2  502    0 -0.81191197843E+02 -0.72377114523E+02  0.60519599372E+03  0.63870421650E+03  0.17277276417E+03 0.  0.
         24    2    3    3    0    0 -0.17828492562E+01  0.21309313413E+02  0.22810263794E+03  0.24208812809E+03  0.78221371372E+02 0.  0.
         -6    2    1    2    0  501  0.81191197843E+02  0.72377114523E+02  0.60352964429E+02  0.21227474720E+03  0.17201055395E+03 0.  0.
        -24    2    5    5    0    0  0.28254726877E+02 -0.19184328023E+02  0.60527464052E+02  0.10640743322E+03  0.80576670984E+02 0.  0.
          5    1    3    3  502    0 -0.79408348587E+02 -0.93686427936E+02  0.37709335578E+03  0.39661608840E+03  0.47000000000E+01 0. -1.
        -11    1    4    4    0    0 -0.18012866777E+02 -0.21477986303E+02  0.42387703172E+02  0.50818152715E+02  0.00000000000E+00 0.  1.
         12    1    4    4    0    0  0.16230017521E+02  0.42787299716E+02  0.18571493477E+03  0.19126997538E+03  0.00000000000E+00 0. -1.
         -5    1    5    5    0  501  0.52936470966E+02  0.91561442545E+02 -0.17449962272E+00  0.10586731398E+03  0.47000000000E+01 0.  1.
         11    1    6    6    0    0  0.54469294720E+02  0.28925250509E+00  0.32919013481E+02  0.63644710565E+02  0.00000000000E+00 0. -1.
        -12    1    6    6    0    0 -0.26214567843E+02 -0.19473580528E+02  0.27608450570E+02  0.42762722653E+02  0.00000000000E+00 0.  1.
<mgrwt>
<rscale>  2 0.20383640E+03</rscale>
<asrwt>0</asrwt>
<pdfrwt beam="1">  1        2 0.11665599E+00 0.20383640E+03</pdfrwt>
<pdfrwt beam="2">  1       -2 0.14263847E-01 0.20383640E+03</pdfrwt>
<totfact> 0.14115654E+03</totfact>
</mgrwt>
</event>
<event>
12    1  0.4154313E-002  0.2068096E+03  0.7546771E-02  0.1144118E+00
         -1   -1    0    0    0  501 -0.00000000000E+00  0.00000000000E+00  0.49253949351E+02  0.49253949351E+02  0.00000000000E+00 0.  1.
          1   -1    0    0  502    0  0.00000000000E+00 -0.00000000000E+00 -0.87309523570E+03  0.87309523570E+03  0.00000000000E+00 0. -1.
          6    2    1    2  502    0 -0.11298089293E+03 -0.37193526377E+01 -0.44530491666E+03  0.49086485240E+03  0.17283899667E+03 0.  0.
         24    2    3    3    0    0 -0.14852224742E+03  0.56399377122E+01 -0.37706936188E+03  0.41321844147E+03  0.80482978489E+02 0.  0.
         -6    2    1    2    0  501  0.11298089293E+03  0.37193526377E+01 -0.37853636969E+03  0.43148433265E+03  0.17352357302E+03 0.  0.
        -24    2    5    5    0    0  0.83519340261E+02  0.21923500418E+02 -0.37841388021E+03  0.39653466762E+03  0.81157610971E+02 0.  0.
          5    1    3    3  502    0  0.35541354485E+02 -0.93592903499E+01 -0.68235554786E+02  0.77646410937E+02  0.47000000000E+01 0. -1.
        -11    1    4    4    0    0 -0.45863223021E+02  0.13513869645E+02 -0.45392300302E+02  0.65928148961E+02  0.00000000000E+00 0.  1.
         12    1    4    4    0    0 -0.10265902440E+03 -0.78739319329E+01 -0.33167706157E+03  0.34729029251E+03  0.00000000000E+00 0. -1.
         -5    1    5    5    0  501  0.29461552672E+02 -0.18204147780E+02 -0.12248947825E+00  0.34949665033E+02  0.47000000000E+01 0.  1.
         11    1    6    6    0    0 -0.30118292437E+01 -0.73658220824E+00 -0.16633527790E+03  0.16636417386E+03  0.00000000000E+00 0. -1.
        -12    1    6    6    0    0  0.86531169505E+02  0.22660082626E+02 -0.21207860231E+03  0.23017049376E+03  0.00000000000E+00 0.  1.
<mgrwt>
<rscale>  2 0.20680964E+03</rscale>
<asrwt>0</asrwt>
<pdfrwt beam="2">  1        1 0.13432233E+00 0.20680964E+03</pdfrwt>
<pdfrwt beam="1">  1       -1 0.75775315E-02 0.20680964E+03</pdfrwt>
<totfact> 0.18719282E+03</totfact>
</mgrwt>
</event>
<event>
12    1  0.4154313E-002  0.1763408E+03  0.7546771E-02  0.1171392E+00
         -2   -1    0    0    0  501 -0.00000000000E+00  0.00000000000E+00  0.28812451943E+02  0.28812451943E+02  0.00000000000E+00 0.  1.
          2   -1    0    0  502    0  0.00000000000E+00 -0.00000000000E+00 -0.11138838929E+04  0.11138838929E+04  0.00000000000E+00 0. -1.
          6    2    1    2  502    0  0.37005458945E+02 -0.23252850640E+01 -0.43929915301E+03  0.47305474200E+03  0.17152910002E+03 0.  0.
         24    2    3    3    0    0  0.75432801176E+02  0.48993268343E+02 -0.29896708610E+03  0.31869984717E+03  0.64014265452E+02 0.  0.
         -6    2    1    2    0  501 -0.37005458945E+02  0.23252850640E+01 -0.64577228799E+03  0.66964160288E+03  0.17327209075E+03 0.  0.
        -24    2    5    5    0    0 -0.51780756495E+02  0.25823460510E+02 -0.62680770556E+03  0.63569725057E+03  0.88741178588E+02 0.  0.
          5    1    3    3  502    0 -0.38427342231E+02 -0.51318553407E+02 -0.14033206691E+03  0.15435489483E+03  0.47000000000E+01 0. -1.
        -11    1    4    4    0    0  0.11805840745E+01  0.33844180073E+02 -0.11031368417E+03  0.11539467586E+03  0.00000000000E+00 0.  1.
         12    1    4    4    0    0  0.74252217102E+02  0.15149088271E+02 -0.18865340193E+03  0.20330517131E+03  0.00000000000E+00 0. -1.
         -5    1    5    5    0  501  0.14775297550E+02 -0.23498175446E+02 -0.18964582427E+02  0.33944352308E+02  0.47000000000E+01 0.  1.
         13    1    6    6    0    0 -0.46365280450E+02 -0.13414251460E+02 -0.51157500564E+03  0.51384693029E+03  0.00000000000E+00 0. -1.
        -14    1    6    6    0    0 -0.54154760455E+01  0.39237711970E+02 -0.11523269992E+03  0.12185032028E+03  0.00000000000E+00 0.  1.
<mgrwt>
<rscale>  2 0.17634082E+03</rscale>
<asrwt>0</asrwt>
<pdfrwt beam="2">  1        2 0.17136675E+00 0.17634082E+03</pdfrwt>
<pdfrwt beam="1">  1       -2 0.44326850E-02 0.17634082E+03</pdfrwt>
<totfact> 0.52028546E+03</totfact>
</mgrwt>
</event>
<event>
12    1  0.4154313E-002  0.1817357E+03  0.7546771E-02  0.1166134E+00
         -2   -1    0    0    0  501 -0.00000000000E+00  0.00000000000E+00  0.88650028479E+03  0.88650028479E+03  0.00000000000E+00 0. -1.
          2   -1    0    0  502    0  0.00000000000E+00 -0.00000000000E+00 -0.91018412738E+02  0.91018412738E+02  0.00000000000E+00 0.  1.
          6    2    1    2  502    0 -0.48704831388E+02 -0.21283113702E+02  0.77319011071E+03  0.79421343496E+03  0.17357102706E+03 0.  0.
         24    2    3    3    0    0  0.52110235842E+01 -0.33455093040E+02  0.19722683859E+03  0.21558500727E+03  0.80200196266E+02 0.  0.
         -6    2    1    2    0  501  0.48704831388E+02  0.21283113702E+02  0.22291761340E+02  0.18330526257E+03  0.17400794560E+03 0.  0.
        -24    2    5    5    0    0  0.99205802857E+02  0.13688603741E+02  0.13236014926E+02  0.13122723223E+03  0.83762910618E+02 0.  0.
          5    1    3    3  502    0 -0.53915854973E+02  0.12171979338E+02  0.57596327212E+03  0.57862842769E+03  0.47000000000E+01 0. -1.
        -13    1    4    4    0    0  0.37071213187E+02  0.38591768550E+01  0.99045472650E+02  0.10582614869E+03  0.00000000000E+00 0.  1.
         14    1    4    4    0    0 -0.31860189602E+02 -0.37314269895E+02  0.98181365938E+02  0.10975885858E+03  0.00000000000E+00 0. -1.
         -5    1    5    5    0  501 -0.50500971469E+02  0.75945099613E+01  0.90557464139E+01  0.52078030339E+02  0.47000000000E+01 0.  1.
         11    1    6    6    0    0  0.80099457128E+02 -0.26286210207E+02  0.19368351790E+02  0.86498675888E+02  0.00000000000E+00 0. -1.
        -12    1    6    6    0    0  0.19106345729E+02  0.39974813947E+02 -0.61323368640E+01  0.44728556344E+02  0.00000000000E+00 0.  1.
<mgrwt>
<rscale>  2 0.18173574E+03</rscale>
<asrwt>0</asrwt>
<pdfrwt beam="2">  1        2 0.14002833E-01 0.18173574E+03</pdfrwt>
<pdfrwt beam="1">  1       -2 0.13638465E+00 0.18173574E+03</pdfrwt>
<totfact> 0.17193591E+02</totfact>
</mgrwt>
</event>
<event>
12    1  0.4154313E-002  0.2038549E+03  0.7546771E-02  0.1146527E+00
         -1   -1    0    0    0  501 -0.00000000000E+00  0.00000000000E+00  0.15289322890E+03  0.15289322890E+03  0.00000000000E+00 0. -1.
          1   -1    0    0  502    0  0.00000000000E+00 -0.00000000000E+00 -0.30057211417E+03  0.30057211417E+03  0.00000000000E+00 0.  1.
          6    2    1    2  502    0 -0.62155702171E+02  0.87478096574E+02 -0.14411293929E+03  0.24997169333E+03  0.17378595888E+03 0.  0.
         24    2    3    3    0    0 -0.12246388746E+02  0.25594082545E+02 -0.14725431846E+03  0.17026893916E+03  0.80638987086E+02 0.  0.
         -6    2    1    2    0  501  0.62155702171E+02 -0.87478096574E+02 -0.35659459881E+01  0.20349364974E+03  0.17286179688E+03 0.  0.
        -24    2    5    5    0    0  0.59725953907E+02 -0.94346509633E+02  0.51956099472E+02  0.14729875400E+03  0.80802433186E+02 0.  0.
          5    1    3    3  502    0 -0.49909313425E+02  0.61884014030E+02  0.31413791748E+01  0.79702754169E+02  0.47000000000E+01 0. -1.
        -11    1    4    4    0    0 -0.84113361246E+00  0.53988897219E+02 -0.10535121209E+03  0.11838237376E+03  0.00000000000E+00 0.  1.
         12    1    4    4    0    0 -0.11405255134E+02 -0.28394814675E+02 -0.41903106368E+02  0.51886565394E+02  0.00000000000E+00 0. -1.
         -5    1    5    5    0  501  0.24297482641E+01  0.68684130589E+01 -0.55522045460E+02  0.56194895735E+02  0.47000000000E+01 0.  1.
         13    1    6    6    0    0  0.46429022044E+02 -0.76033381852E+02 -0.16580714801E+01  0.89103751014E+02  0.00000000000E+00 0. -1.
        -14    1    6    6    0    0  0.13296931864E+02 -0.18313127782E+02  0.53614170952E+02  0.58195002990E+02  0.00000000000E+00 0.  1.
<mgrwt>
<rscale>  2 0.20385490E+03</rscale>
<asrwt>0</asrwt>
<pdfrwt beam="2">  1        1 0.46241863E-01 0.20385490E+03</pdfrwt>
<pdfrwt beam="1">  1       -1 0.23522036E-01 0.20385490E+03</pdfrwt>
<totfact> 0.13412920E+03</totfact>
</mgrwt>
</event>
<event>
12    1  0.4154313E-002  0.2450077E+03  0.7546771E-02  0.1116501E+00
         -2   -1    0    0    0  501 -0.00000000000E+00  0.00000000000E+00  0.33684728996E+03  0.33684728996E+03  0.00000000000E+00 0.  1.
          2   -1    0    0  502    0  0.00000000000E+00 -0.00000000000E+00 -0.18280916676E+03  0.18280916676E+03  0.00000000000E+00 0. -1.
          6    2    1    2  502    0 -0.99438105892E+02  0.14164577784E+03  0.35901581766E+02  0.24795970609E+03  0.17390695497E+03 0.  0.
         24    2    3    3    0    0 -0.74292343073E+02  0.40210618717E+02 -0.34662991447E+02  0.12177393080E+03  0.80567494366E+02 0.  0.
         -6    2    1    2    0  501  0.99438105892E+02 -0.14164577784E+03  0.11813654144E+03  0.27169675063E+03  0.17294917923E+03 0.  0.
        -24    2    5    5    0    0  0.17728898740E+02 -0.90737665487E+01  0.13107825423E+02  0.83800891446E+02  0.80337582923E+02 0.  0.
          5    1    3    3  502    0 -0.25145762819E+02  0.10143515912E+03  0.70564573213E+02  0.12618577529E+03  0.47000000000E+01 0. -1.
        -13    1    4    4    0    0 -0.40186572805E+02 -0.20425903859E+02 -0.24965959415E+02  0.51531323598E+02  0.00000000000E+00 0.  1.
         14    1    4    4    0    0 -0.34105770268E+02  0.60636522576E+02 -0.96970320322E+01  0.70242607197E+02  0.00000000000E+00 0. -1.
         -5    1    5    5    0  501  0.81709207152E+02 -0.13257201129E+03  0.10502871602E+03  0.18789585919E+03  0.47000000000E+01 0.  1.
         13    1    6    6    0    0 -0.61878089819E+01  0.19492536278E+02  0.35037589779E+02  0.40569454619E+02  0.00000000000E+00 0. -1.
        -14    1    6    6    0    0  0.23916707722E+02 -0.28566302827E+02 -0.21929764356E+02  0.43231436827E+02  0.00000000000E+00 0.  1.
<mgrwt>
<rscale>  2 0.24500767E+03</rscale>
<asrwt>0</asrwt>
<pdfrwt beam="2">  1        2 0.28124487E-01 0.24500767E+03</pdfrwt>
<pdfrwt beam="1">  1       -2 0.51822660E-01 0.24500767E+03</pdfrwt>
<totfact> 0.67415293E+02</totfact>
</mgrwt>
</event>
<event>
12    1  0.4154313E-002  0.2026755E+03  0.7546771E-02  0.1147501E+00
          1   -1    0    0  502    0  0.00000000000E+00  0.00000000000E+00  0.76822023263E+03  0.76822023263E+03  0.00000000000E+00 0. -1.
         -1   -1    0    0    0  501 -0.00000000000E+00 -0.00000000000E+00 -0.15053488505E+03  0.15053488505E+03  0.00000000000E+00 0.  1.
          6    2    1    2  502    0 -0.51463596223E+02 -0.91961974780E+02  0.67781602181E+03  0.70752029088E+03  0.17333463602E+03 0.  0.
         24    2    3    3    0    0  0.70030680142E+01 -0.33022022174E+02  0.53467144262E+03  0.54197655228E+03  0.82009357713E+02 0.  0.
         -6    2    1    2    0  501  0.51463596223E+02  0.91961974780E+02 -0.60130674230E+02  0.21123482679E+03  0.17291312132E+03 0.  0.
        -24    2    5    5    0    0  0.70621982034E+02  0.12051650129E+03 -0.35050949970E+02  0.16841558696E+03  0.87312939522E+02 0.  0.
          5    1    3    3  502    0 -0.58466664237E+02 -0.58939952606E+02  0.14314457919E+03  0.16554373861E+03  0.47000000000E+01 0. -1.
        -11    1    4    4    0    0 -0.25701344903E+02 -0.23626936341E+02  0.43987258367E+03  0.44125580009E+03  0.00000000000E+00 0.  1.
         12    1    4    4    0    0  0.32704412917E+02 -0.93950858332E+01  0.94798858954E+02  0.10072075219E+03  0.00000000000E+00 0. -1.
         -5    1    5    5    0  501 -0.19158385811E+02 -0.28554526509E+02 -0.25079724260E+02  0.42819239835E+02  0.47000000000E+01 0.  1.
         11    1    6    6    0    0  0.27394056292E+02  0.56848483898E+02  0.27894915893E+02  0.68995005431E+02  0.00000000000E+00 0. -1.
        -12    1    6    6    0    0  0.43227925742E+02  0.63668017391E+02 -0.62945865863E+02  0.99420581530E+02  0.00000000000E+00 0.  1.
<mgrwt>
<rscale>  2 0.20267551E+03</rscale>
<asrwt>0</asrwt>
<pdfrwt beam="1">  1        1 0.11818773E+00 0.20267551E+03</pdfrwt>
<pdfrwt beam="2">  1       -1 0.23159214E-01 0.20267551E+03</pdfrwt>
<totfact> 0.39343265E+02</totfact>
</mgrwt>
</event>
<event>
12    1  0.4154313E-002  0.2575711E+03  0.7546771E-02  0.1108611E+00
         -1   -1    0    0    0  501 -0.00000000000E+00  0.00000000000E+00  0.96091652605E+03  0.96091652605E+03  0.00000000000E+00 0. -1.
          1   -1    0    0  502    0  0.00000000000E+00 -0.00000000000E+00 -0.69060145752E+02  0.69060145752E+02  0.00000000000E+00 0.  1.
          6    2    1    2  502    0 -0.15439005786E+03 -0.11509740628E+03  0.45558995370E+03  0.52372028734E+03  0.17215408957E+03 0.  0.
         24    2    3    3    0    0 -0.11478213875E+02 -0.32652600391E+02  0.21283415767E+03  0.23016721262E+03  0.80502331561E+02 0.  0.
         -6    2    1    2    0  501  0.15439005786E+03  0.11509740628E+03  0.43626642660E+03  0.50625638447E+03  0.16995125459E+03 0.  0.
        -24    2    5    5    0    0  0.11389606335E+03  0.12234954851E+03  0.42481286427E+03  0.46329557386E+03  0.78962610366E+02 0.  0.
          5    1    3    3  502    0 -0.14291184399E+03 -0.82444805889E+02  0.24275579603E+03  0.29355307472E+03  0.47000000000E+01 0. -1.
        -11    1    4    4    0    0  0.24970264859E+02  0.13814527839E+02  0.66367386411E+02  0.72242544844E+02  0.00000000000E+00 0.  1.
         12    1    4    4    0    0 -0.36448478734E+02 -0.46467128230E+02  0.14646677126E+03  0.15792466778E+03  0.00000000000E+00 0. -1.
         -5    1    5    5    0  501  0.40493994511E+02 -0.72521422296E+01  0.11453562326E+02  0.42960810611E+02  0.47000000000E+01 0.  1.
         11    1    6    6    0    0  0.58855184602E+01  0.11998594528E+02  0.12821580304E+03  0.12891042529E+03  0.00000000000E+00 0. -1.
        -12    1    6    6    0    0  0.10801054489E+03  0.11035095398E+03  0.29659706123E+03  0.33438514857E+03  0.00000000000E+00 0.  1.
<mgrwt>
<rscale>  2 0.25757108E+03</rscale>
<asrwt>0</asrwt>
<pdfrwt beam="2">  1        1 0.10624638E-01 0.25757108E+03</pdfrwt>
<pdfrwt beam="1">  1       -1 0.14783330E+00 0.25757108E+03</pdfrwt>
<totfact> 0.23276210E+02</totfact>
</mgrwt>
</event>
<event>
12    1  0.4154313E-002  0.1967604E+03  0.7546771E-02  0.1152501E+00
          2   -1    0    0  502    0  0.00000000000E+00  0.00000000000E+00  0.11856629936E+03  0.11856629936E+03  0.00000000000E+00 0. -1.
         -2   -1    0    0    0  501 -0.00000000000E+00 -0.00000000000E+00 -0.33425826166E+03  0.33425826166E+03  0.00000000000E+00 0.  1.
          6    2    1    2  502    0 -0.27701175085E+02  0.89285955691E+02 -0.73752160608E+02  0.21072461832E+03  0.17385668404E+03 0.  0.
         24    2    3    3    0    0 -0.54722841036E+02  0.14370172545E+02 -0.86194526712E+02  0.12998152282E+03  0.79149280797E+02 0.  0.
         -6    2    1    2    0  501  0.27701175085E+02 -0.89285955691E+02 -0.14193980170E+03  0.24209994271E+03  0.17241269666E+03 0.  0.
        -24    2    5    5    0    0 -0.74509684933E+01 -0.12043923866E+03 -0.85208193726E+02  0.16829773691E+03  0.80638482316E+02 0.  0.
          5    1    3    3  502    0  0.27021665951E+02  0.74915783146E+02  0.12442366104E+02  0.80743095491E+02  0.47000000000E+01 0. -1.
        -13    1    4    4    0    0  0.34866601045E+01  0.35271516270E+02 -0.31311319282E+02  0.47293079555E+02  0.00000000000E+00 0.  1.
         14    1    4    4    0    0 -0.58209501140E+02 -0.20901343725E+02 -0.54883207430E+02  0.82688443270E+02  0.00000000000E+00 0. -1.
         -5    1    5    5    0  501  0.35152143578E+02  0.31153282971E+02 -0.56731607969E+02  0.73802205799E+02  0.47000000000E+01 0.  1.
         13    1    6    6    0    0  0.15379114689E+02  0.56477053892E+01 -0.50082600318E+01  0.17131737020E+02  0.00000000000E+00 0. -1.
        -14    1    6    6    0    0 -0.22830083183E+02 -0.12608694405E+03 -0.80199933694E+02  0.15116599989E+03  0.00000000000E+00 0.  1.
<mgrwt>
<rscale>  2 0.19676044E+03</rscale>
<asrwt>0</asrwt>
<pdfrwt beam="1">  1        2 0.18240969E-01 0.19676044E+03</pdfrwt>
<pdfrwt beam="2">  1       -2 0.51424348E-01 0.19676044E+03</pdfrwt>
<totfact> 0.11124863E+03</totfact>
</mgrwt>
</event>
<event>
12    1  0.4154313E-002  0.2184044E+03  0.7546771E-02  0.1135078E+00
          2   -1    0    0  502    0  0.00000000000E+00  0.00000000000E+00  0.17827327088E+04  0.17827327088E+04  0.00000000000E+00 0.  1.
         -2   -1    0    0    0  501 -0.00000000000E+00 -0.00000000000E+00 -0.38796959114E+02  0.38796959114E+02  0.00000000000E+00 0. -1.
          6    2    1    2  502    0 -0.41886030442E+02 -0.10901837519E+03  0.34111038742E+03  0.40036621055E+03  0.17406136983E+03 0.  0.
         24    2    3    3    0    0  0.28249313737E+02 -0.10924935181E+03  0.23937547877E+03  0.27670901710E+03  0.80832021567E+02 0.  0.
         -6    2    1    2    0  501  0.41886030442E+02  0.10901837519E+03  0.14028253622E+04  0.14211634573E+04  0.19531290243E+03 0.  0.
        -24    2    5    5    0    0 -0.22557474046E+02  0.13356076990E+03  0.88712799374E+03  0.90085474101E+03  0.78713837625E+02 0.  0.
          5    1    3    3  502    0 -0.70135344179E+02  0.23097662633E+00  0.10173490865E+03  0.12365719345E+03  0.47000000000E+01 0. -1.
        -11    1    4    4    0    0 -0.11618439740E+02  0.82272014862E+01  0.18075284634E+02  0.23008496276E+02  0.00000000000E+00 0.  1.
         12    1    4    4    0    0  0.39867753477E+02 -0.11747655330E+03  0.22130019413E+03  0.25370052082E+03  0.00000000000E+00 0. -1.
         -5    1    5    5    0  501  0.64443504488E+02 -0.24542394710E+02  0.51569736848E+03  0.52030871631E+03  0.47000000000E+01 0.  1.
         13    1    6    6    0    0  0.77354904996E+01  0.11731925749E+03  0.76498648845E+03  0.77396897451E+03  0.00000000000E+00 0. -1.
        -14    1    6    6    0    0 -0.30292964546E+02  0.16241512403E+02  0.12214150529E+03  0.12688576650E+03  0.00000000000E+00 0.  1.
<mgrwt>
<rscale>  2 0.21840442E+03</rscale>
<asrwt>0</asrwt>
<pdfrwt beam="1">  1        2 0.27426651E+00 0.21840442E+03</pdfrwt>
<pdfrwt beam="2">  1       -2 0.59687643E-02 0.21840442E+03</pdfrwt>
<totfact> 0.14480365E+03</totfact>
</mgrwt>
</event>
<event>
12    1  0.4154313E-002  0.1943864E+03  0.7546771E-02  0.1154564E+00
         -2   -1    0    0    0  501 -0.00000000000E+00  0.00000000000E+00  0.54010595407E+02  0.54010595407E+02  0.00000000000E+00 0.  1.
          2   -1    0    0  502    0  0.00000000000E+00 -0.00000000000E+00 -0.90664274140E+03  0.90664274140E+03  0.00000000000E+00 0. -1.
          6    2    1    2  502    0  0.41612406970E+02 -0.77835063058E+02 -0.65669488553E+03  0.68500361079E+03  0.17375812113E+03 0.  0.
         24    2    3    3    0    0  0.22275430002E+02 -0.76133376092E+02 -0.21936213487E+03  0.24721503258E+03  0.81872097685E+02 0.  0.
         -6    2    1    2    0  501 -0.41612406970E+02  0.77835063058E+02 -0.19593726046E+03  0.27564972602E+03  0.17263102838E+03 0.  0.
        -24    2    5    5    0    0  0.12634828840E+02  0.79367511414E+02 -0.18804712596E+03  0.22060923898E+03  0.82751881988E+02 0.  0.
          5    1    3    3  502    0  0.19336976968E+02 -0.17016869659E+01 -0.43733275065E+03  0.43778857821E+03  0.47000000000E+01 0. -1.
        -13    1    4    4    0    0 -0.15742461678E+02 -0.37315453194E+02 -0.30521585268E+02  0.50713265662E+02  0.00000000000E+00 0.  1.
         14    1    4    4    0    0  0.38017891680E+02 -0.38817922898E+02 -0.18884054960E+03  0.19650176691E+03  0.00000000000E+00 0. -1.
         -5    1    5    5    0  501 -0.54247235809E+02 -0.15324483563E+01 -0.78901345022E+01  0.55040487038E+02  0.47000000000E+01 0.  1.
         11    1    6    6    0    0 -0.30024925472E+02  0.59414109440E+02 -0.12820302821E+03  0.14445604519E+03  0.00000000000E+00 0. -1.
        -12    1    6    6    0    0  0.42659754311E+02  0.19953401975E+02 -0.59844097748E+02  0.76153193784E+02  0.00000000000E+00 0.  1.
<mgrwt>
<rscale>  2 0.19438638E+03</rscale>
<asrwt>0</asrwt>
<pdfrwt beam="2">  1        2 0.13948350E+00 0.19438638E+03</pdfrwt>
<pdfrwt beam="1">  1       -2 0.83093224E-02 0.19438638E+03</pdfrwt>
<totfact> 0.26603667E+03</totfact>
</mgrwt>
</event>
<event>
12    1  0.4154313E-002  0.1883766E+03  0.7546771E-02  0.1159934E+00
         -1   -1    0    0    0  501 -0.00000000000E+00  0.00000000000E+00  0.46975147454E+02  0.46975147454E+02  0.00000000000E+00 0. -1.
          1   -1    0    0  502    0  0.00000000000E+00 -0.00000000000E+00 -0.82936691541E+03  0.82936691541E+03  0.00000000000E+00 0.  1.
          6    2    1    2  502    0 -0.77611103796E+01  0.46742734307E+02 -0.52730752270E+03  0.56092702939E+03  0.18531268375E+03 0.  0.
         24    2    3    3    0    0  0.22896676383E+02  0.76312819427E+02 -0.18955562812E+03  0.22046745453E+03  0.79540292651E+02 0.  0.
         -6    2    1    2    0  501  0.77611103796E+01 -0.46742734307E+02 -0.25508424525E+03  0.31541503347E+03  0.17936987796E+03 0.  0.
        -24    2    5    5    0    0  0.50350953976E+02  0.27244992356E+02 -0.17034810924E+03  0.19503903412E+03  0.75790753613E+02 0.  0.
          5    1    3    3  502    0 -0.30657786762E+02 -0.29570085119E+02 -0.33775189458E+03  0.34045957486E+03  0.47000000000E+01 0. -1.
        -13    1    4    4    0    0  0.50892191097E+02  0.61859440251E+02 -0.14837050770E+03  0.16861320535E+03  0.00000000000E+00 0.  1.
         14    1    4    4    0    0 -0.27995514715E+02  0.14453379176E+02 -0.41185120421E+02  0.51854249178E+02  0.00000000000E+00 0. -1.
         -5    1    5    5    0  501 -0.42589843597E+02 -0.73987726663E+02 -0.84736136008E+02  0.12037599935E+03  0.47000000000E+01 0.  1.
         13    1    6    6    0    0  0.20508319874E+02  0.25067569721E+02 -0.13046508945E+02  0.34916838795E+02  0.00000000000E+00 0. -1.
        -14    1    6    6    0    0  0.29842634102E+02  0.21774226345E+01 -0.15730160030E+03  0.16012219533E+03  0.00000000000E+00 0.  1.
<mgrwt>
<rscale>  2 0.18837661E+03</rscale>
<asrwt>0</asrwt>
<pdfrwt beam="2">  1        1 0.12759490E+00 0.18837661E+03</pdfrwt>
<pdfrwt beam="1">  1       -1 0.72269466E-02 0.18837661E+03</pdfrwt>
<totfact> 0.21777362E+03</totfact>
</mgrwt>
</event>
<event>
12    1  0.4154313E-002  0.2057045E+03  0.7546771E-02  0.1145013E+00
          1   -1    0    0  502    0  0.00000000000E+00  0.00000000000E+00  0.20869779360E+03  0.20869779360E+03  0.00000000000E+00 0. -1.
         -1   -1    0    0    0  501 -0.00000000000E+00 -0.00000000000E+00 -0.22333904811E+03  0.22333904811E+03  0.00000000000E+00 0.  1.
          6    2    1    2  502    0 -0.10941439049E+03  0.12958009978E+02  0.58268550755E+02  0.21356475339E+03  0.17342220450E+03 0.  0.
         24    2    3    3    0    0 -0.80435217234E+02  0.48698116022E+01 -0.31801634388E+02  0.11848615597E+03  0.80833693291E+02 0.  0.
         -6    2    1    2    0  501  0.10941439049E+03 -0.12958009978E+02 -0.72909805268E+02  0.21847208831E+03  0.17399653674E+03 0.  0.
        -24    2    5    5    0    0  0.77656319327E+02 -0.54736445623E+02  0.14612483660E+01  0.12732848520E+03  0.84757450919E+02 0.  0.
          5    1    3    3  502    0 -0.28979173261E+02  0.80881983762E+01  0.90070185143E+02  0.95078597421E+02  0.47000000000E+01 0. -1.
        -11    1    4    4    0    0  0.15877148069E+02 -0.62621106530E+01 -0.28627714853E+01  0.17305875338E+02  0.00000000000E+00 0.  1.
         12    1    4    4    0    0 -0.96312365303E+02  0.11131922255E+02 -0.28938862902E+02  0.10118028064E+03  0.00000000000E+00 0. -1.
         -5    1    5    5    0  501  0.31758071168E+02  0.41778435644E+02 -0.74371053634E+02  0.91143603110E+02  0.47000000000E+01 0.  1.
         11    1    6    6    0    0  0.91136155215E+01  0.17993684148E+02  0.16761095731E+02  0.26225273825E+02  0.00000000000E+00 0. -1.
        -12    1    6    6    0    0  0.68542703806E+02 -0.72730129770E+02 -0.15299847365E+02  0.10110321138E+03  0.00000000000E+00 0.  1.
<mgrwt>
<rscale>  2 0.20570447E+03</rscale>
<asrwt>0</asrwt>
<pdfrwt beam="1">  1        1 0.32107353E-01 0.20570447E+03</pdfrwt>
<pdfrwt beam="2">  1       -1 0.34359854E-01 0.20570447E+03</pdfrwt>
<totfact> 0.11182653E+03</totfact>
</mgrwt>
</event>
<event>
12    1  0.4154313E-002  0.2149671E+03  0.7546771E-02  0.1137692E+00
          1   -1    0    0  502    0  0.00000000000E+00  0.00000000000E+00  0.14068744045E+03  0.14068744045E+03  0.00000000000E+00 0.  1.
         -1   -1    0    0    0  501 -0.00000000000E+00 -0.00000000000E+00 -0.32858910712E+03  0.32858910712E+03  0.00000000000E+00 0. -1.
          6    2    1    2  502    0 -0.33410473514E+02  0.12905864561E+03 -0.93863080594E+02  0.23813448401E+03  0.17356658904E+03 0.  0.
         24    2    3    3    0    0  0.10783270630E+01  0.13349244202E+03 -0.18503475665E+02  0.15500629402E+03  0.76571389626E+02 0.  0.
         -6    2    1    2    0  501  0.33410473514E+02 -0.12905864561E+03 -0.94038586072E+02  0.23114206356E+03  0.16374066120E+03 0.  0.
        -24    2    5    5    0    0  0.18904043961E+02 -0.12428218790E+03 -0.14909551367E+02  0.15041570368E+03  0.81235239177E+02 0.  0.
          5    1    3    3  502    0 -0.34488800577E+02 -0.44337964094E+01 -0.75359604929E+02  0.83128189989E+02  0.47000000000E+01 0. -1.
        -13    1    4    4    0    0  0.29778727860E+02  0.19796053530E+02 -0.11387342031E+02  0.37527695464E+02  0.00000000000E+00 0.  1.
         14    1    4    4    0    0 -0.28700400797E+02  0.11369638849E+03 -0.71161336341E+01  0.11747859855E+03  0.00000000000E+00 0. -1.
         -5    1    5    5    0  501  0.14506429553E+02 -0.47764577081E+01 -0.79129034705E+02  0.80726359883E+02  0.47000000000E+01 0.  1.
         11    1    6    6    0    0  0.46929645239E+02 -0.77055069237E+02 -0.27018346501E+02  0.94179967854E+02  0.00000000000E+00 0. -1.
        -12    1    6    6    0    0 -0.28025601278E+02 -0.47227118661E+02  0.12108795134E+02  0.56235735824E+02  0.00000000000E+00 0.  1.
<mgrwt>
<rscale>  2 0.21496714E+03</rscale>
<asrwt>0</asrwt>
<pdfrwt beam="1">  1        1 0.21644222E-01 0.21496714E+03</pdfrwt>
<pdfrwt beam="2">  1       -1 0.50552170E-01 0.21496714E+03</pdfrwt>
<totfact> 0.92577657E+02</totfact>
</mgrwt>
</event>
<event>
12    1  0.4154313E-002  0.1785222E+03  0.7546771E-02  0.1169241E+00
         -2   -1    0    0    0  501 -0.00000000000E+00  0.00000000000E+00  0.27871110194E+03  0.27871110194E+03  0.00000000000E+00 0. -1.
          2   -1    0    0  502    0  0.00000000000E+00 -0.00000000000E+00 -0.12972952297E+03  0.12972952297E+03  0.00000000000E+00 0.  1.
          6    2    1    2  502    0 -0.18636786451E+01 -0.36793496027E+02  0.60480175446E+01  0.18325797358E+03  0.17941480350E+03 0.  0.
         24    2    3    3    0    0 -0.57973796924E+02  0.13650511950E+02  0.66544033280E+01  0.10765770230E+03  0.89434904673E+02 0.  0.
         -6    2    1    2    0  501  0.18636786451E+01  0.36793496027E+02  0.14293356142E+03  0.22518265134E+03  0.17005878053E+03 0.  0.
        -24    2    5    5    0    0 -0.41022086077E+02  0.31865106365E+02  0.15338254554E+03  0.18052003711E+03  0.79768928610E+02 0.  0.
          5    1    3    3  502    0  0.56110118278E+02 -0.50444007977E+02 -0.60638578338E+00  0.75600271281E+02  0.47000000000E+01 0. -1.
        -13    1    4    4    0    0 -0.23427816730E+02 -0.38340966317E+02  0.50481719186E+01  0.45214780046E+02  0.00000000000E+00 0.  1.
         14    1    4    4    0    0 -0.34545980193E+02  0.51991478267E+02  0.16062314094E+01  0.62442922251E+02  0.00000000000E+00 0. -1.
         -5    1    5    5    0  501  0.42885764723E+02  0.49283896615E+01 -0.10448984121E+02  0.44662614228E+02  0.47000000000E+01 0.  1.
         11    1    6    6    0    0 -0.43453849956E+02  0.47340378865E+02  0.67407827255E+02  0.93129821874E+02  0.00000000000E+00 0. -1.
        -12    1    6    6    0    0  0.24317638789E+01 -0.15475272500E+02  0.85974718286E+02  0.87390215235E+02  0.00000000000E+00 0.  1.
<mgrwt>
<rscale>  2 0.17852216E+03</rscale>
<asrwt>0</asrwt>
<pdfrwt beam="2">  1        2 0.19958388E-01 0.17852216E+03</pdfrwt>
<pdfrwt beam="1">  1       -2 0.42878631E-01 0.17852216E+03</pdfrwt>
<totfact> 0.14297187E+03</totfact>
</mgrwt>
</event>
<event>
12    1  0.4154313E-002  0.2144547E+03  0.7546771E-02  0.1138086E+00
          1   -1    0    0  502    0  0.00000000000E+00  0.00000000000E+00  0.12669101300E+04  0.12669101300E+04  0.00000000000E+00 0.  1.
         -1   -1    0    0    0  501 -0.00000000000E+00 -0.00000000000E+00 -0.40263207525E+02  0.40263207525E+02  0.00000000000E+00 0. -1.
          6    2    1    2  502    0 -0.99557943877E+02  0.80653774308E+02  0.40932209186E+03  0.46228106384E+03  0.17245982607E+03 0.  0.
         24    2    3    3    0    0 -0.60311713384E+02  0.10691050493E+03  0.37773096541E+03  0.40527429424E+03  0.80617693510E+02 0.  0.
         -6    2    1    2    0  501  0.99557943877E+02 -0.80653774308E+02  0.81732483063E+03  0.84489227370E+03  0.17148253521E+03 0.  0.
        -24    2    5    5    0    0  0.41348922796E+01 -0.77710499077E+02  0.54183538470E+03  0.55329195397E+03  0.80562914606E+02 0.  0.
          5    1    3    3  502    0 -0.39246230493E+02 -0.26256730618E+02  0.31591126445E+02  0.57006769604E+02  0.47000000000E+01 0. -1.
        -13    1    4    4    0    0 -0.13057186567E+02 -0.65364484472E+00  0.13472422250E+03  0.13535705929E+03  0.00000000000E+00 0.  1.
         14    1    4    4    0    0 -0.47254526817E+02  0.10756414977E+03  0.24300674291E+03  0.26991723495E+03  0.00000000000E+00 0. -1.
         -5    1    5    5    0  501  0.95423051597E+02 -0.29432752310E+01  0.27548944593E+03  0.29160031973E+03  0.47000000000E+01 0.  1.
         13    1    6    6    0    0  0.22827927402E+02 -0.86643988323E+02  0.39723261080E+03  0.40721252690E+03  0.00000000000E+00 0. -1.
        -14    1    6    6    0    0 -0.18693035122E+02  0.89334892457E+01  0.14460277390E+03  0.14607942707E+03  0.00000000000E+00 0.  1.
<mgrwt>
<rscale>  2 0.21445474E+03</rscale>
<asrwt>0</asrwt>
<pdfrwt beam="1">  1        1 0.19490922E+00 0.21445474E+03</pdfrwt>
<pdfrwt beam="2">  1       -1 0.61943406E-02 0.21445474E+03</pdfrwt>
<totfact> 0.13120291E+03</totfact>
</mgrwt>
</event>
<event>
11    1  0.4154313E-002  0.2059434E+03  0.7546771E-02  0.1144819E+00
         -2   -1    0    0    0  501 -0.00000000000E+00  0.00000000000E+00  0.76666297434E+02  0.76666297434E+02  0.00000000000E+00 0. -1.
          2   -1    0    0  502    0  0.00000000000E+00 -0.00000000000E+00 -0.56933495659E+03  0.56933495659E+03  0.00000000000E+00 0.  1.
          6    2    1    2  502    0  0.83243002178E+02  0.74033929407E+02 -0.30035753364E+03  0.36401945608E+03  0.17287306405E+03 0.  0.
         -6    2    1    2    0  501 -0.83243002178E+02 -0.74033929407E+02 -0.19231112552E+03  0.28198179795E+03  0.17355041129E+03 0.  0.
        -24    2    4    4    0    0  0.45255323147E+01 -0.58709923410E+02 -0.46714332352E+02  0.11122273673E+03  0.81981295241E+02 0.  0.
          5    1    3    3  502    0 -0.40661316880E+01  0.65292801302E+02 -0.21680638746E+02  0.69078386093E+02  0.47000000000E+01 0. -1.
        -11    1    3    3    0    0  0.76856115555E+02 -0.54789957929E+00 -0.26268244110E+03  0.27369550152E+03  0.00000000000E+00 0.  1.
         12    1    3    3    0    0  0.10453018311E+02  0.92890276843E+01 -0.15994453793E+02  0.21245568462E+02  0.00000000000E+00 0. -1.
         -5    1    4    4    0  501 -0.87768534493E+02 -0.15324005997E+02 -0.14559679317E+03  0.17075906122E+03  0.47000000000E+01 0.  1.
         11    1    5    5    0    0  0.36402827411E+02 -0.52135175110E+02 -0.46325648808E+02  0.78672155588E+02  0.00000000000E+00 0. -1.
        -12    1    5    5    0    0 -0.31877295097E+02 -0.65747483000E+01 -0.38868354387E+00  0.32550581144E+02  0.00000000000E+00 0.  1.
<mgrwt>
<rscale>  2 0.20594339E+03</rscale>
<asrwt>0</asrwt>
<pdfrwt beam="2">  1        2 0.87589991E-01 0.20594339E+03</pdfrwt>
<pdfrwt beam="1">  1       -2 0.11794815E-01 0.20594339E+03</pdfrwt>
<totfact> 0.27010661E+03</totfact>
</mgrwt>
</event>
<event>
12    1  0.4154313E-002  0.3717361E+03  0.7546771E-02  0.1054031E+00
          2   -1    0    0  502    0  0.00000000000E+00  0.00000000000E+00  0.11280216235E+04  0.11280216235E+04  0.00000000000E+00 0. -1.
         -2   -1    0    0    0  501 -0.00000000000E+00 -0.00000000000E+00 -0.29176791833E+03  0.29176791833E+03  0.00000000000E+00 0.  1.
          6    2    1    2  502    0  0.78339506258E+02 -0.31975443274E+03 -0.12259642958E+03  0.39138436883E+03  0.17254525240E+03 0.  0.
         24    2    3    3    0    0 -0.14419394236E+02 -0.15079215026E+03 -0.49521652903E+02  0.18519397258E+03  0.94330386749E+02 0.  0.
         -6    2    1    2    0  501 -0.78339506258E+02  0.31975443274E+03  0.95885013472E+03  0.10284051730E+04  0.17275312859E+03 0.  0.
        -24    2    5    5    0    0 -0.12206835537E+02  0.10922760590E+03  0.51801263503E+03  0.53539922362E+03  0.78965574033E+02 0.  0.
          5    1    3    3  502    0  0.92758900494E+02 -0.16896228248E+03 -0.73074776673E+02  0.20619039625E+03  0.47000000000E+01 0. -1.
        -13    1    4    4    0    0  0.36665183526E+01 -0.36730690565E+02 -0.58701775186E+02  0.69343243335E+02  0.00000000000E+00 0.  1.
         14    1    4    4    0    0 -0.18085912589E+02 -0.11406145969E+03  0.91801222833E+01  0.11585072925E+03  0.00000000000E+00 0. -1.
         -5    1    5    5    0  501 -0.66132670721E+02  0.21052682684E+03  0.44083749969E+03  0.49300594934E+03  0.47000000000E+01 0.  1.
         13    1    6    6    0    0 -0.34963487062E+01  0.99149270829E+02  0.28076802859E+03  0.29778094002E+03  0.00000000000E+00 0. -1.
        -14    1    6    6    0    0 -0.87104868309E+01  0.10078335068E+02  0.23724460644E+03  0.23761828360E+03  0.00000000000E+00 0.  1.
<mgrwt>
<rscale>  2 0.37173610E+03</rscale>
<asrwt>0</asrwt>
<pdfrwt beam="1">  1        2 0.17354179E+00 0.37173610E+03</pdfrwt>
<pdfrwt beam="2">  1       -2 0.44887373E-01 0.37173610E+03</pdfrwt>
<totfact> 0.10414113E+02</totfact>
</mgrwt>
</event>
<event>
12    1  0.4154313E-002  0.2271138E+03  0.7546771E-02  0.1128688E+00
         -2   -1    0    0    0  501 -0.00000000000E+00  0.00000000000E+00  0.19863279282E+02  0.19863279282E+02  0.00000000000E+00 0.  1.
          2   -1    0    0  502    0  0.00000000000E+00 -0.00000000000E+00 -0.28840397067E+04  0.28840397067E+04  0.00000000000E+00 0. -1.
          6    2    1    2  502    0 -0.78564812257E+00  0.14573657766E+03 -0.18920534665E+04  0.19056721083E+04  0.17458550067E+03 0.  0.
         24    2    3    3    0    0  0.41283911181E+02  0.78806535167E+02 -0.15480343930E+04  0.15526555487E+04  0.80087076485E+02 0.  0.
         -6    2    1    2    0  501  0.78564812257E+00 -0.14573657766E+03 -0.97212296096E+03  0.99823087770E+03  0.17378741800E+03 0.  0.
        -24    2    5    5    0    0 -0.50310765040E+02 -0.27851316993E+02 -0.41876172103E+03  0.43013006800E+03  0.79646892359E+02 0.  0.
          5    1    3    3  502    0 -0.42069559304E+02  0.66930042492E+02 -0.34401907347E+03  0.35301655956E+03  0.47000000000E+01 0. -1.
        -11    1    4    4    0    0 -0.13738885756E+02  0.22469181364E+02 -0.14226877714E+03  0.14468595662E+03  0.00000000000E+00 0.  1.
         12    1    4    4    0    0  0.55022796937E+02  0.56337353804E+02 -0.14057656159E+04  0.14079695921E+04  0.00000000000E+00 0. -1.
         -5    1    5    5    0  501  0.51096413162E+02 -0.11788526067E+03 -0.55336123993E+03  0.56810080969E+03  0.47000000000E+01 0.  1.
         11    1    6    6    0    0  0.11216614641E+02 -0.26441480916E+02 -0.22508827942E+03  0.22691341497E+03  0.00000000000E+00 0. -1.
        -12    1    6    6    0    0 -0.61527379681E+02 -0.14098360775E+01 -0.19367344161E+03  0.20321665304E+03  0.00000000000E+00 0.  1.
<mgrwt>
<rscale>  2 0.22711376E+03</rscale>
<asrwt>0</asrwt>
<pdfrwt beam="2">  1        2 0.44369861E+00 0.22711376E+03</pdfrwt>
<pdfrwt beam="1">  1       -2 0.30558878E-02 0.22711376E+03</pdfrwt>
<totfact> 0.10121154E+03</totfact>
</mgrwt>
</event>
<event>
12    1  0.4154313E-002  0.1722818E+03  0.7546771E-02  0.1175489E+00
          2   -1    0    0  502    0  0.00000000000E+00  0.00000000000E+00  0.16983425175E+03  0.16983425175E+03  0.00000000000E+00 0.  1.
         -2   -1    0    0    0  501 -0.00000000000E+00 -0.00000000000E+00 -0.22161242446E+03  0.22161242446E+03  0.00000000000E+00 0. -1.
          6    2    1    2  502    0 -0.42285254871E+01 -0.14107531016E+02  0.63545526109E+02  0.18726565631E+03  0.17553771471E+03 0.  0.
         24    2    3    3    0    0 -0.22059588535E+02 -0.66461431661E+02  0.54783377045E+01  0.10693654520E+03  0.80632903774E+02 0.  0.
         -6    2    1    2    0  501  0.42285254871E+01  0.14107531016E+02 -0.11532369883E+03  0.20418101990E+03  0.16784942811E+03 0.  0.
        -24    2    5    5    0    0 -0.40185595900E+02 -0.33273500839E+02 -0.37579518147E+02  0.10277182906E+03  0.80173690743E+02 0.  0.
          5    1    3    3  502    0  0.17831063048E+02  0.52353900644E+02  0.58067188405E+02  0.80329111107E+02  0.47000000000E+01 0. -1.
        -11    1    4    4    0    0 -0.10093625469E+02 -0.55125705396E+02  0.39884552083E+02  0.68785915458E+02  0.00000000000E+00 0.  1.
         12    1    4    4    0    0 -0.11965963066E+02 -0.11335726264E+02 -0.34406214378E+02  0.38150629744E+02  0.00000000000E+00 0. -1.
         -5    1    5    5    0  501  0.44414121387E+02  0.47381031855E+02 -0.77744180679E+02  0.10140919084E+03  0.47000000000E+01 0.  1.
         11    1    6    6    0    0 -0.41710077665E+02  0.17205420361E+02 -0.19089212508E+02  0.48991377842E+02  0.00000000000E+00 0. -1.
        -12    1    6    6    0    0  0.15244817651E+01 -0.50478921200E+02 -0.18490305639E+02  0.53780451214E+02  0.00000000000E+00 0.  1.
<mgrwt>
<rscale>  2 0.17228182E+03</rscale>
<asrwt>0</asrwt>
<pdfrwt beam="1">  1        2 0.26128346E-01 0.17228182E+03</pdfrwt>
<pdfrwt beam="2">  1       -2 0.34094219E-01 0.17228182E+03</pdfrwt>
<totfact> 0.16265394E+03</totfact>
</mgrwt>
</event>
<event>
12    1  0.4154313E-002  0.1788513E+03  0.7546771E-02  0.1168919E+00
          2   -1    0    0  502    0  0.00000000000E+00  0.00000000000E+00  0.88156187712E+03  0.88156187712E+03  0.00000000000E+00 0. -1.
         -2   -1    0    0    0  501 -0.00000000000E+00 -0.00000000000E+00 -0.37004716329E+02  0.37004716329E+02  0.00000000000E+00 0.  1.
          6    2    1    2  502    0  0.37816515810E+02  0.12407646930E+01  0.36172918117E+03  0.40418050430E+03  0.17630159156E+03 0.  0.
         24    2    3    3    0    0 -0.27345747772E+02  0.97813569219E+01  0.30669160040E+03  0.31833012511E+03  0.80192680048E+02 0.  0.
         -6    2    1    2    0  501 -0.37816515810E+02 -0.12407646930E+01  0.48282797963E+03  0.51438608915E+03  0.17331636517E+03 0.  0.
        -24    2    5    5    0    0 -0.18022241025E+02  0.29358020709E+02  0.11410594762E+03  0.14383767683E+03  0.80513448833E+02 0.  0.
          5    1    3    3  502    0  0.65162263582E+02 -0.85405922289E+01  0.55037580771E+02  0.85850379195E+02  0.47000000000E+01 0. -1.
        -13    1    4    4    0    0 -0.85107421148E+01 -0.34717068955E+02  0.10448372550E+03  0.11042896587E+03  0.00000000000E+00 0.  1.
         14    1    4    4    0    0 -0.18835005657E+02  0.44498425877E+02  0.20220787490E+03  0.20790115924E+03  0.00000000000E+00 0. -1.
         -5    1    5    5    0  501 -0.19794274785E+02 -0.30598785402E+02  0.36872203201E+03  0.37054841232E+03  0.47000000000E+01 0.  1.
         13    1    6    6    0    0  0.28740831579E+02 -0.54784457924E+01  0.38637692695E+02  0.48465658614E+02  0.00000000000E+00 0. -1.
        -14    1    6    6    0    0 -0.46763072604E+02  0.34836466502E+02  0.75468254922E+02  0.95372018216E+02  0.00000000000E+00 0.  1.
<mgrwt>
<rscale>  2 0.17885128E+03</rscale>
<asrwt>0</asrwt>
<pdfrwt beam="1">  1        2 0.13562489E+00 0.17885128E+03</pdfrwt>
<pdfrwt beam="2">  1       -2 0.56930339E-02 0.17885128E+03</pdfrwt>
<totfact> 0.49331171E+03</totfact>
</mgrwt>
</event>
<event>
12    1  0.4154313E-002  0.1812753E+03  0.7546771E-02  0.1166574E+00
         -1   -1    0    0    0  501 -0.00000000000E+00  0.00000000000E+00  0.13759501988E+02  0.13759501988E+02  0.00000000000E+00 0.  1.
          1   -1    0    0  502    0  0.00000000000E+00 -0.00000000000E+00 -0.24362009473E+04  0.24362009473E+04  0.00000000000E+00 0. -1.
          6    2    1    2  502    0 -0.37623577350E+02 -0.38887255856E+02 -0.13829383107E+04  0.13947646964E+04  0.17298102498E+03 0.  0.
         24    2    3    3    0    0 -0.58919971027E+02 -0.15299420647E+02 -0.40117013017E+03  0.41247106791E+03  0.74089629948E+02 0.  0.
         -6    2    1    2    0  501  0.37623577350E+02  0.38887255856E+02 -0.10395031347E+04  0.10551957529E+04  0.17304206919E+03 0.  0.
        -24    2    5    5    0    0  0.26124326994E+02 -0.33106904573E+02 -0.79059308527E+03  0.79578547056E+03  0.80365048854E+02 0.  0.
          5    1    3    3  502    0  0.21296393678E+02 -0.23587835208E+02 -0.98176818052E+03  0.98229362852E+03  0.47000000000E+01 0. -1.
        -11    1    4    4    0    0 -0.16011760580E+01  0.63075677050E+00  0.32613028769E+01  0.36875080105E+01  0.00000000000E+00 0.  1.
         12    1    4    4    0    0 -0.57318794969E+02 -0.15930177418E+02 -0.40443143305E+03  0.40878355990E+03  0.00000000000E+00 0. -1.
         -5    1    5    5    0  501  0.11499250355E+02  0.71994160429E+02 -0.24891004938E+03  0.25941028233E+03  0.47000000000E+01 0.  1.
         11    1    6    6    0    0  0.14856250811E+02 -0.53620018373E+02 -0.33479937183E+03  0.33939126968E+03  0.00000000000E+00 0. -1.
        -12    1    6    6    0    0  0.11268076184E+02  0.20513113800E+02 -0.45579371344E+03  0.45639420088E+03  0.00000000000E+00 0.  1.
<mgrwt>
<rscale>  2 0.18127533E+03</rscale>
<asrwt>0</asrwt>
<pdfrwt beam="2">  1        1 0.37479995E+00 0.18127533E+03</pdfrwt>
<pdfrwt beam="1">  1       -1 0.21168476E-02 0.18127533E+03</pdfrwt>
<totfact> 0.11131927E+03</totfact>
</mgrwt>
</event>
<event>
12    1  0.4154313E-002  0.5216475E+03  0.7546771E-02  0.1008278E+00
         -2   -1    0    0    0  501 -0.00000000000E+00  0.00000000000E+00  0.19059370806E+03  0.19059370806E+03  0.00000000000E+00 0.  1.
          2   -1    0    0  502    0  0.00000000000E+00 -0.00000000000E+00 -0.14290153358E+04  0.14290153358E+04  0.00000000000E+00 0. -1.
          6    2    1    2  502    0 -0.48985441522E+03 -0.49781471681E+02 -0.64367159904E+03  0.82859612092E+03  0.17269296793E+03 0.  0.
         24    2    3    3    0    0 -0.26483256667E+03  0.38477436045E+02 -0.32689373212E+03  0.43010550111E+03  0.80712009801E+02 0.  0.
         -6    2    1    2    0  501  0.48985441522E+03  0.49781471681E+02 -0.59475002875E+03  0.79101292298E+03  0.17186711321E+03 0.  0.
        -24    2    5    5    0    0  0.25706482838E+03  0.54941870099E+02 -0.23066008783E+03  0.35880788307E+03  0.80237682884E+02 0.  0.
          5    1    3    3  502    0 -0.22502184855E+03 -0.88258907726E+02 -0.31677786691E+03  0.39849061982E+03  0.47000000000E+01 0. -1.
        -11    1    4    4    0    0 -0.23822700185E+03  0.76249227077E+01 -0.28726041683E+03  0.37326772018E+03  0.00000000000E+00 0.  1.
         12    1    4    4    0    0 -0.26605564824E+02  0.30852513337E+02 -0.39633315295E+02  0.56837780922E+02  0.00000000000E+00 0. -1.
         -5    1    5    5    0  501  0.23278958684E+03 -0.51603984180E+01 -0.36408994092E+03  0.43220503992E+03  0.47000000000E+01 0.  1.
         13    1    6    6    0    0  0.65869540644E+02  0.48999354937E+02 -0.86702482788E+02  0.11940290487E+03  0.00000000000E+00 0. -1.
        -14    1    6    6    0    0  0.19119528773E+03  0.59425151622E+01 -0.14395760504E+03  0.23940497820E+03  0.00000000000E+00 0.  1.
<mgrwt>
<rscale>  2 0.52164748E+03</rscale>
<asrwt>0</asrwt>
<pdfrwt beam="2">  1        2 0.21984852E+00 0.52164748E+03</pdfrwt>
<pdfrwt beam="1">  1       -2 0.29322109E-01 0.52164748E+03</pdfrwt>
<totfact> 0.15454118E+02</totfact>
</mgrwt>
</event>
<event>
12    1  0.4154313E-002  0.2340677E+03  0.7546771E-02  0.1123809E+00
          1   -1    0    0  502    0  0.00000000000E+00  0.00000000000E+00  0.38421517798E+03  0.38421517798E+03  0.00000000000E+00 0.  1.
         -1   -1    0    0    0  501 -0.00000000000E+00 -0.00000000000E+00 -0.27167227650E+03  0.27167227650E+03  0.00000000000E+00 0. -1.
          6    2    1    2  502    0 -0.15661452466E+03  0.20893993034E+02 -0.16976094597E+03  0.28924299181E+03  0.17285271550E+03 0.  0.
         24    2    3    3    0    0 -0.17527618073E+03 -0.12213033949E+02 -0.11603614305E+03  0.22326741230E+03  0.74249937187E+02 0.  0.
         -6    2    1    2    0  501  0.15661452466E+03 -0.20893993034E+02  0.28230384744E+03  0.36664446266E+03  0.17253414572E+03 0.  0.
        -24    2    5    5    0    0  0.17898458783E+03  0.22062005146E+01  0.22580025329E+03  0.30146175928E+03  0.88617650148E+02 0.  0.
          5    1    3    3  502    0  0.18661656069E+02  0.33107026983E+02 -0.53724802917E+02  0.65975579508E+02  0.47000000000E+01 0. -1.
        -13    1    4    4    0    0 -0.10100534501E+01 -0.15972963114E+02 -0.57779287372E+01  0.17015881379E+02  0.00000000000E+00 0.  1.
         14    1    4    4    0    0 -0.17426612728E+03  0.37599291646E+01 -0.11025821431E+03  0.20625153093E+03  0.00000000000E+00 0. -1.
         -5    1    5    5    0  501 -0.22370063170E+02 -0.23100193549E+02  0.56503594153E+02  0.65182703383E+02  0.47000000000E+01 0.  1.
         13    1    6    6    0    0  0.59085118860E+02  0.94476941978E+01  0.14454960561E+03  0.15644455464E+03  0.00000000000E+00 0. -1.
        -14    1    6    6    0    0  0.11989946897E+03 -0.72414936832E+01  0.81250647686E+02  0.14501720464E+03  0.00000000000E+00 0.  1.
<mgrwt>
<rscale>  2 0.23406770E+03</rscale>
<asrwt>0</asrwt>
<pdfrwt beam="1">  1        1 0.59110027E-01 0.23406770E+03</pdfrwt>
<pdfrwt beam="2">  1       -1 0.41795735E-01 0.23406770E+03</pdfrwt>
<totfact> 0.36751226E+02</totfact>
</mgrwt>
</event>
<event>
12    1  0.4154313E-002  0.1827705E+03  0.7546771E-02  0.1165148E+00
          2   -1    0    0  502    0  0.00000000000E+00  0.00000000000E+00  0.25866127803E+03  0.25866127803E+03  0.00000000000E+00 0. -1.
         -2   -1    0    0    0  501 -0.00000000000E+00 -0.00000000000E+00 -0.13247983771E+03  0.13247983771E+03  0.00000000000E+00 0.  1.
          6    2    1    2  502    0 -0.53323139812E+02  0.22989626608E+02  0.94128237611E+02  0.20561964140E+03  0.17334195003E+03 0.  0.
         24    2    3    3    0    0 -0.21562841492E+02  0.63180753841E+02  0.65273699246E+01  0.10403201776E+03  0.79519119531E+02 0.  0.
         -6    2    1    2    0  501  0.53323139812E+02 -0.22989626608E+02  0.32053202715E+02  0.18552147434E+03  0.17325971680E+03 0.  0.
        -24    2    5    5    0    0  0.58532360974E+02 -0.66232331089E+02  0.59424565278E+02  0.13386541018E+03  0.81091985562E+02 0.  0.
          5    1    3    3  502    0 -0.31760298319E+02 -0.40191127233E+02  0.87600867686E+02  0.10158762364E+03  0.47000000000E+01 0. -1.
        -11    1    4    4    0    0 -0.24148531820E+02 -0.84825494726E+01 -0.14351994734E+02  0.29344249648E+02  0.00000000000E+00 0.  1.
         12    1    4    4    0    0  0.25856903271E+01  0.71663303314E+02  0.20879364658E+02  0.74687768107E+02  0.00000000000E+00 0. -1.
         -5    1    5    5    0  501 -0.52092211625E+01  0.43242704481E+02 -0.27371362564E+02  0.51656064160E+02  0.47000000000E+01 0.  1.
         11    1    6    6    0    0  0.59392681391E+02 -0.52987700642E+02  0.71297515764E+01  0.79912579609E+02  0.00000000000E+00 0. -1.
        -12    1    6    6    0    0 -0.86032041701E+00 -0.13244630447E+02  0.52294813702E+02  0.53952830575E+02  0.00000000000E+00 0.  1.
<mgrwt>
<rscale>  2 0.18277051E+03</rscale>
<asrwt>0</asrwt>
<pdfrwt beam="1">  1        2 0.39794043E-01 0.18277051E+03</pdfrwt>
<pdfrwt beam="2">  1       -2 0.20381513E-01 0.18277051E+03</pdfrwt>
<totfact> 0.25688986E+03</totfact>
</mgrwt>
</event>
<event>
12    1  0.4154313E-002  0.2009431E+03  0.7546771E-02  0.1148946E+00
         -2   -1    0    0    0  501 -0.00000000000E+00  0.00000000000E+00  0.30346323491E+02  0.30346323491E+02  0.00000000000E+00 0. -1.
          2   -1    0    0  502    0  0.00000000000E+00 -0.00000000000E+00 -0.13966876384E+04  0.13966876384E+04  0.00000000000E+00 0.  1.
          6    2    1    2  502    0 -0.97685881858E+02 -0.18968495098E+02 -0.84497085204E+03  0.86902187733E+03  0.17697725041E+03 0.  0.
         24    2    3    3    0    0 -0.50297263513E+02  0.38767585608E+02 -0.27931305218E+03  0.29843448464E+03  0.83753328828E+02 0.  0.
         -6    2    1    2    0  501  0.97685881858E+02  0.18968495098E+02 -0.52137046288E+03  0.55801208457E+03  0.17218592173E+03 0.  0.
        -24    2    5    5    0    0  0.54144525411E+02  0.21262525647E+02 -0.12760106155E+03  0.16180816772E+03  0.80722534682E+02 0.  0.
          5    1    3    3  502    0 -0.47388618345E+02 -0.57736080706E+02 -0.56565779985E+03  0.57058739269E+03  0.47000000000E+01 0. -1.
        -11    1    4    4    0    0 -0.50155820438E+02  0.32525725116E+02 -0.28425441541E+03  0.29047220487E+03  0.00000000000E+00 0.  1.
         12    1    4    4    0    0 -0.14144307546E+00  0.62418604921E+01  0.49413632309E+01  0.79622797694E+01  0.00000000000E+00 0. -1.
         -5    1    5    5    0  501  0.43541356447E+02 -0.22940305492E+01 -0.39376940133E+03  0.39620391685E+03  0.47000000000E+01 0.  1.
         11    1    6    6    0    0  0.59897521569E+02 -0.10746302501E+02 -0.54064953075E+02  0.81401567912E+02  0.00000000000E+00 0. -1.
        -12    1    6    6    0    0 -0.57529961579E+01  0.32008828148E+02 -0.73536108472E+02  0.80406599812E+02  0.00000000000E+00 0.  1.
<mgrwt>
<rscale>  2 0.20094313E+03</rscale>
<asrwt>0</asrwt>
<pdfrwt beam="2">  1        2 0.21487501E+00 0.20094313E+03</pdfrwt>
<pdfrwt beam="1">  1       -2 0.46686653E-02 0.20094313E+03</pdfrwt>
<totfact> 0.33630095E+03</totfact>
</mgrwt>
</event>
<event>
12    1  0.4154313E-002  0.2071342E+03  0.7546771E-02  0.1143856E+00
          2   -1    0    0  502    0  0.00000000000E+00  0.00000000000E+00  0.17115276273E+03  0.17115276273E+03  0.00000000000E+00 0. -1.
         -2   -1    0    0    0  501 -0.00000000000E+00 -0.00000000000E+00 -0.25127020509E+03  0.25127020509E+03  0.00000000000E+00 0.  1.
          6    2    1    2  502    0 -0.42115051176E+01 -0.11481679614E+03 -0.29938483989E+02  0.20981347322E+03  0.17298770843E+03 0.  0.
         24    2    3    3    0    0  0.47119485696E+01 -0.89848387880E+02 -0.85754644501E+02  0.14784103409E+03  0.80051090211E+02 0.  0.
         -6    2    1    2    0  501  0.42115051176E+01  0.11481679614E+03 -0.50178958364E+02  0.21260949460E+03  0.17170974312E+03 0.  0.
        -24    2    5    5    0    0 -0.39479685424E+01 -0.65350312137E+01 -0.42434876985E+02  0.90646779775E+02  0.79735981904E+02 0.  0.
          5    1    3    3  502    0 -0.89234536871E+01 -0.24968408259E+02  0.55816160512E+02  0.61972439124E+02  0.47000000000E+01 0. -1.
        -11    1    4    4    0    0 -0.14916652557E+02  0.86744177096E+01 -0.25203541533E+02  0.30544566651E+02  0.00000000000E+00 0.  1.
         12    1    4    4    0    0  0.19628601127E+02 -0.98522805589E+02 -0.60551102968E+02  0.11729646744E+03  0.00000000000E+00 0. -1.
         -5    1    5    5    0  501  0.81594736600E+01  0.12135182735E+03 -0.77440813799E+01  0.12196271483E+03  0.47000000000E+01 0.  1.
         13    1    6    6    0    0  0.35262142148E+02  0.10204624218E+02 -0.13460413185E+02  0.39099050467E+02  0.00000000000E+00 0. -1.
        -14    1    6    6    0    0 -0.39210110690E+02 -0.16739655432E+02 -0.28974463799E+02  0.51547729308E+02  0.00000000000E+00 0.  1.
<mgrwt>
<rscale>  2 0.20713416E+03</rscale>
<asrwt>0</asrwt>
<pdfrwt beam="1">  1        2 0.26331194E-01 0.20713416E+03</pdfrwt>
<pdfrwt beam="2">  1       -2 0.38656955E-01 0.20713416E+03</pdfrwt>
<totfact> 0.12818101E+03</totfact>
</mgrwt>
</event>
<event>
12    1  0.4154313E-002  0.2078358E+03  0.7546771E-02  0.1143291E+00
         -2   -1    0    0    0  501 -0.00000000000E+00  0.00000000000E+00  0.13100359975E+03  0.13100359975E+03  0.00000000000E+00 0. -1.
          2   -1    0    0  502    0  0.00000000000E+00 -0.00000000000E+00 -0.62108974853E+03  0.62108974853E+03  0.00000000000E+00 0.  1.
          6    2    1    2  502    0 -0.99308718801E+02  0.57311093443E+02 -0.50253685745E+03  0.54377805217E+03  0.17321805295E+03 0.  0.
         24    2    3    3    0    0 -0.93661401119E+02  0.85213101292E+02 -0.26372422967E+03  0.30322873202E+03  0.79771322645E+02 0.  0.
         -6    2    1    2    0  501  0.99308718801E+02 -0.57311093443E+02  0.12450708665E+02  0.20831529610E+03  0.17347466496E+03 0.  0.
        -24    2    5    5    0    0  0.75277769067E+02 -0.67197823174E+02  0.69478411428E+02  0.14547038499E+03  0.78435280971E+02 0.  0.
          5    1    3    3  502    0 -0.56473176820E+01 -0.27902007849E+02 -0.23881262777E+03  0.24054932015E+03  0.47000000000E+01 0. -1.
        -11    1    4    4    0    0 -0.33364243120E+02  0.52998829087E+02 -0.54164235521E+02  0.82799837036E+02  0.00000000000E+00 0.  1.
         12    1    4    4    0    0 -0.60297157999E+02  0.32214272205E+02 -0.20955999415E+03  0.22042889499E+03  0.00000000000E+00 0. -1.
         -5    1    5    5    0  501  0.24030949735E+02  0.98867297309E+01 -0.57027702763E+02  0.62844911109E+02  0.47000000000E+01 0.  1.
         13    1    6    6    0    0  0.75669536448E+02 -0.17104854896E+02  0.45439763239E+02  0.89906767768E+02  0.00000000000E+00 0. -1.
        -14    1    6    6    0    0 -0.39176738165E+00 -0.50092968278E+02  0.24038648188E+02  0.55563617226E+02  0.00000000000E+00 0.  1.
<mgrwt>
<rscale>  2 0.20783584E+03</rscale>
<asrwt>0</asrwt>
<pdfrwt beam="2">  1        2 0.95552270E-01 0.20783584E+03</pdfrwt>
<pdfrwt beam="1">  1       -2 0.20154400E-01 0.20783584E+03</pdfrwt>
<totfact> 0.10060168E+03</totfact>
</mgrwt>
</event>
<event>
12    1  0.4154313E-002  0.2451315E+03  0.7546771E-02  0.1116421E+00
          2   -1    0    0  502    0  0.00000000000E+00  0.00000000000E+00  0.15049440009E+03  0.15049440009E+03  0.00000000000E+00 0. -1.
         -2   -1    0    0    0  501 -0.00000000000E+00 -0.00000000000E+00 -0.40624111666E+03  0.40624111666E+03  0.00000000000E+00 0.  1.
          6    2    1    2  502    0 -0.10002570733E+03 -0.14038248509E+03 -0.92039177162E+02  0.26290429676E+03  0.17588369701E+03 0.  0.
         24    2    3    3    0    0 -0.12794197101E+03 -0.15382835850E+03 -0.82368069090E+02  0.23010597941E+03  0.78306775741E+02 0.  0.
         -6    2    1    2    0  501  0.10002570733E+03  0.14038248509E+03 -0.16370753941E+03  0.29383121999E+03  0.17269696910E+03 0.  0.
        -24    2    5    5    0    0  0.13412841253E+03  0.11348127428E+03 -0.15833504742E+03  0.24981277710E+03  0.80423912505E+02 0.  0.
          5    1    3    3  502    0  0.27916263680E+02  0.13445873413E+02 -0.96711080725E+01  0.32798317351E+02  0.47000000000E+01 0. -1.
        -11    1    4    4    0    0 -0.76714278559E+02 -0.10953238755E+03 -0.14969723511E+02  0.13456045882E+03  0.00000000000E+00 0.  1.
         12    1    4    4    0    0 -0.51227692453E+02 -0.44295970957E+02 -0.67398345579E+02  0.95545520585E+02  0.00000000000E+00 0. -1.
         -5    1    5    5    0  501 -0.34102705194E+02  0.26901210814E+02 -0.53724919895E+01  0.44018442896E+02  0.47000000000E+01 0.  1.
         13    1    6    6    0    0 -0.95845582802E+01  0.17782268979E+02 -0.12106892438E+02  0.23551001931E+02  0.00000000000E+00 0. -1.
        -14    1    6    6    0    0  0.14371297081E+03  0.95699005297E+02 -0.14622815498E+03  0.22626177517E+03  0.00000000000E+00 0.  1.
<mgrwt>
<rscale>  2 0.24513155E+03</rscale>
<asrwt>0</asrwt>
<pdfrwt beam="1">  1        2 0.23152985E-01 0.24513155E+03</pdfrwt>
<pdfrwt beam="2">  1       -2 0.62498633E-01 0.24513155E+03</pdfrwt>
<totfact> 0.57055949E+02</totfact>
</mgrwt>
</event>
<event>
12    1  0.4154313E-002  0.1747286E+03  0.7546771E-02  0.1173004E+00
         -1   -1    0    0    0  501 -0.00000000000E+00  0.00000000000E+00  0.16371772012E+03  0.16371772012E+03  0.00000000000E+00 0.  1.
          1   -1    0    0  502    0  0.00000000000E+00 -0.00000000000E+00 -0.22534225864E+03  0.22534225864E+03  0.00000000000E+00 0. -1.
          6    2    1    2  502    0  0.73125626985E+01 -0.87739836315E+01 -0.11132225703E+03  0.20572895834E+03  0.17263053910E+03 0.  0.
         24    2    3    3    0    0 -0.39117645438E+02 -0.33779811242E+02 -0.18108566338E+02  0.98528502309E+02  0.81906530632E+02 0.  0.
         -6    2    1    2    0  501 -0.73125626985E+01  0.87739836315E+01  0.49697718505E+02  0.18333102042E+03  0.17609640389E+03 0.  0.
        -24    2    5    5    0    0 -0.14451918833E+02 -0.58668553350E+02  0.22312367800E+01  0.10041767356E+03  0.80174020949E+02 0.  0.
          5    1    3    3  502    0  0.46430208137E+02  0.25005827611E+02 -0.93213690691E+02  0.10720045604E+03  0.47000000000E+01 0. -1.
        -13    1    4    4    0    0 -0.54352322171E+00 -0.50684255982E+02 -0.23859625366E+02  0.56022057660E+02  0.00000000000E+00 0.  1.
         14    1    4    4    0    0 -0.38574122217E+02  0.16904444739E+02  0.57510590277E+01  0.42506444649E+02  0.00000000000E+00 0. -1.
         -5    1    5    5    0  501  0.71393561344E+01  0.67442536982E+02  0.47466481725E+02  0.82913346862E+02  0.47000000000E+01 0.  1.
         11    1    6    6    0    0 -0.12685271830E+02 -0.46165961080E+02 -0.36163415404E+02  0.60000039146E+02  0.00000000000E+00 0. -1.
        -12    1    6    6    0    0 -0.17666470033E+01 -0.12502592270E+02  0.38394652184E+02  0.40417634412E+02  0.00000000000E+00 0.  1.
<mgrwt>
<rscale>  2 0.17472864E+03</rscale>
<asrwt>0</asrwt>
<pdfrwt beam="2">  1        1 0.34668040E-01 0.17472864E+03</pdfrwt>
<pdfrwt beam="1">  1       -1 0.25187342E-01 0.17472864E+03</pdfrwt>
<totfact> 0.17108931E+03</totfact>
</mgrwt>
</event>
<event>
12    1  0.4154313E-002  0.2087282E+03  0.7546771E-02  0.1142577E+00
         -2   -1    0    0    0  501 -0.00000000000E+00  0.00000000000E+00  0.30796603442E+02  0.30796603442E+02  0.00000000000E+00 0. -1.
          2   -1    0    0  502    0  0.00000000000E+00 -0.00000000000E+00 -0.24109488129E+04  0.24109488129E+04  0.00000000000E+00 0.  1.
          6    2    1    2  502    0  0.92945235920E+02  0.62933468017E+02 -0.39560022626E+03  0.44593556428E+03  0.17250956552E+03 0.  0.
         24    2    3    3    0    0 -0.19590532211E+02  0.36493177015E+02 -0.17519262677E+03  0.19700788802E+03  0.80025686787E+02 0.  0.
         -6    2    1    2    0  501 -0.92945235920E+02 -0.62933468017E+02 -0.19845519832E+04  0.19958098521E+04  0.17947410202E+03 0.  0.
        -24    2    5    5    0    0 -0.13681998319E+02  0.31114188161E+02 -0.44008510207E+03  0.44644622161E+03  0.66962989346E+02 0.  0.
          5    1    3    3  502    0  0.11253576813E+03  0.26440291001E+02 -0.22040759949E+03  0.24892767627E+03  0.47000000000E+01 0. -1.
        -13    1    4    4    0    0  0.70065379624E+01 -0.22597047853E+02 -0.65031598262E+02  0.69201350553E+02  0.00000000000E+00 0.  1.
         14    1    4    4    0    0 -0.26597070174E+02  0.59090224868E+02 -0.11016102851E+03  0.12780653746E+03  0.00000000000E+00 0. -1.
         -5    1    5    5    0  501 -0.79263237601E+02 -0.94047656178E+02 -0.15444668811E+04  0.15493636305E+04  0.47000000000E+01 0.  1.
         13    1    6    6    0    0 -0.31840284465E+02  0.41117713517E+02 -0.25832572301E+03  0.26350834759E+03  0.00000000000E+00 0. -1.
        -14    1    6    6    0    0  0.18158286146E+02 -0.10003525356E+02 -0.18175937906E+03  0.18293787402E+03  0.00000000000E+00 0.  1.
<mgrwt>
<rscale>  2 0.20872818E+03</rscale>
<asrwt>0</asrwt>
<pdfrwt beam="2">  1        2 0.37091521E+00 0.20872818E+03</pdfrwt>
<pdfrwt beam="1">  1       -2 0.47379389E-02 0.20872818E+03</pdfrwt>
<totfact> 0.96349539E+02</totfact>
</mgrwt>
</event>
<event>
12    1  0.4154313E-002  0.1725249E+03  0.7546771E-02  0.1175240E+00
          2   -1    0    0  502    0  0.00000000000E+00  0.00000000000E+00  0.67098893524E+03  0.67098893524E+03  0.00000000000E+00 0. -1.
         -2   -1    0    0    0  501 -0.00000000000E+00 -0.00000000000E+00 -0.62813439978E+02  0.62813439978E+02  0.00000000000E+00 0.  1.
          6    2    1    2  502    0  0.23740823008E+01  0.91650837905E+01  0.10397439098E+03  0.20057282574E+03  0.17125755288E+03 0.  0.
         24    2    3    3    0    0 -0.23642948172E+02 -0.19137117830E+02 -0.24928800692E+01  0.87279973819E+02  0.81770172445E+02 0.  0.
         -6    2    1    2    0  501 -0.23740823008E+01 -0.91650837905E+01  0.50420110428E+03  0.53322954948E+03  0.17327828442E+03 0.  0.
        -24    2    5    5    0    0 -0.52551804907E+02  0.34293639505E+02  0.18905573408E+03  0.21113459634E+03  0.69985721938E+02 0.  0.
          5    1    3    3  502    0  0.26017030473E+02  0.28302201620E+02  0.10646727105E+03  0.11329285192E+03  0.47000000000E+01 0. -1.
        -13    1    4    4    0    0 -0.20944272757E+01  0.17282609270E+02 -0.31489504212E+02  0.35981440832E+02  0.00000000000E+00 0.  1.
         14    1    4    4    0    0 -0.21548520897E+02 -0.36419727100E+02  0.28996624143E+02  0.51298532987E+02  0.00000000000E+00 0. -1.
         -5    1    5    5    0  501  0.50177722607E+02 -0.43458723295E+02  0.31514537020E+03  0.32209495314E+03  0.47000000000E+01 0.  1.
         11    1    6    6    0    0 -0.40382248680E+02 -0.14910055370E+02  0.78965340983E+02  0.89936426636E+02  0.00000000000E+00 0. -1.
        -12    1    6    6    0    0 -0.12169556227E+02  0.49203694875E+02  0.11009039310E+03  0.12119816971E+03  0.00000000000E+00 0.  1.
<mgrwt>
<rscale>  2 0.17252494E+03</rscale>
<asrwt>0</asrwt>
<pdfrwt beam="1">  1        2 0.10322906E+00 0.17252494E+03</pdfrwt>
<pdfrwt beam="2">  1       -2 0.96636066E-02 0.17252494E+03</pdfrwt>
<totfact> 0.30498016E+03</totfact>
</mgrwt>
</event>
<event>
12    1  0.4154313E-002  0.2414223E+03  0.7546771E-02  0.1118849E+00
          3   -1    0    0  502    0  0.00000000000E+00  0.00000000000E+00  0.10219215183E+03  0.10219215183E+03  0.00000000000E+00 0. -1.
         -3   -1    0    0    0  501 -0.00000000000E+00 -0.00000000000E+00 -0.10016714813E+04  0.10016714813E+04  0.00000000000E+00 0.  1.
          6    2    1    2  502    0  0.11711211038E+03  0.12129084285E+03 -0.81233726646E+03  0.84756518366E+03  0.17334414074E+03 0.  0.
         24    2    3    3    0    0  0.58745569559E+02  0.63866998951E+02 -0.68113457565E+03  0.69283836954E+03  0.92469782390E+02 0.  0.
         -6    2    1    2    0  501 -0.11711211038E+03 -0.12129084285E+03 -0.87142062992E+02  0.25629844944E+03  0.17224529336E+03 0.  0.
        -24    2    5    5    0    0 -0.10020251772E+03 -0.59842457890E+02  0.78222619099E+01  0.14183382022E+03  0.80212096672E+02 0.  0.
          5    1    3    3  502    0  0.58366540820E+02  0.57423843904E+02 -0.13120269080E+03  0.15472681413E+03  0.47000000000E+01 0. -1.
        -13    1    4    4    0    0 -0.24749242573E+02  0.17500033683E+02 -0.12973813573E+03  0.13323197833E+03  0.00000000000E+00 0.  1.
         14    1    4    4    0    0  0.83494812132E+02  0.46366965267E+02 -0.55139643992E+03  0.55960639121E+03  0.00000000000E+00 0. -1.
         -5    1    5    5    0  501 -0.16909592655E+02 -0.61448384965E+02 -0.94964324902E+02  0.11446462922E+03  0.47000000000E+01 0.  1.
         13    1    6    6    0    0 -0.39115547606E+02  0.14425598325E+02  0.17438534537E+02  0.45190999528E+02  0.00000000000E+00 0. -1.
        -14    1    6    6    0    0 -0.61086970118E+02 -0.74268056215E+02 -0.96162726275E+01  0.96642820693E+02  0.00000000000E+00 0.  1.
<mgrwt>
<rscale>  2 0.24142229E+03</rscale>
<asrwt>0</asrwt>
<pdfrwt beam="1">  1        3 0.15721870E-01 0.24142229E+03</pdfrwt>
<pdfrwt beam="2">  1       -3 0.15410330E+00 0.24142229E+03</pdfrwt>
<totfact> 0.27021651E+01</totfact>
</mgrwt>
</event>
<event>
12    1  0.4154313E-002  0.1816372E+03  0.7546771E-02  0.1166228E+00
         -1   -1    0    0    0  501 -0.00000000000E+00  0.00000000000E+00  0.10617969449E+03  0.10617969449E+03  0.00000000000E+00 0.  1.
          1   -1    0    0  502    0  0.00000000000E+00 -0.00000000000E+00 -0.32503438226E+03  0.32503438226E+03  0.00000000000E+00 0. -1.
          6    2    1    2  502    0  0.10933925300E+02 -0.28827603569E+02 -0.68054619237E+02  0.19950598200E+03  0.18498817314E+03 0.  0.
         24    2    3    3    0    0  0.69427056238E+02  0.20164103706E+02 -0.63709533967E+02  0.12293834187E+03  0.76342805603E+02 0.  0.
         -6    2    1    2    0  501 -0.10933925300E+02  0.28827603569E+02 -0.15080006853E+03  0.23170809475E+03  0.17319757230E+03 0.  0.
        -24    2    5    5    0    0  0.83296299109E+01  0.63650742429E+02 -0.33044002792E+02  0.10732032775E+03  0.79403695645E+02 0.  0.
          5    1    3    3  502    0 -0.58493130938E+02 -0.48991707275E+02 -0.43450852693E+01  0.76567640127E+02  0.47000000000E+01 0. -1.
        -13    1    4    4    0    0 -0.12414841894E+02  0.37887852739E+01  0.58985254622E+01  0.14257482096E+02  0.00000000000E+00 0.  1.
         14    1    4    4    0    0  0.81841898132E+02  0.16375318432E+02 -0.69608059430E+02  0.10868085977E+03  0.00000000000E+00 0. -1.
         -5    1    5    5    0  501 -0.19263555211E+02 -0.34823138860E+02 -0.11775606574E+03  0.12438776700E+03  0.47000000000E+01 0.  1.
         11    1    6    6    0    0 -0.34436709512E+02  0.36414687298E+02 -0.79430711727E+01  0.50744544462E+02  0.00000000000E+00 0. -1.
        -12    1    6    6    0    0  0.42766339423E+02  0.27236055131E+02 -0.25100931619E+02  0.56575783290E+02  0.00000000000E+00 0.  1.
<mgrwt>
<rscale>  2 0.18163724E+03</rscale>
<asrwt>0</asrwt>
<pdfrwt beam="2">  1        1 0.50005290E-01 0.18163724E+03</pdfrwt>
<pdfrwt beam="1">  1       -1 0.16335338E-01 0.18163724E+03</pdfrwt>
<totfact> 0.21866978E+03</totfact>
</mgrwt>
</event>
<event>
12    1  0.4217662E-002  0.2445250E+03  0.7546771E-02  0.1116815E+00
         -2   -1    0    0    0  501 -0.00000000000E+00  0.00000000000E+00  0.11862475966E+03  0.11862475966E+03  0.00000000000E+00 0. -1.
          2   -1    0    0  502    0  0.00000000000E+00 -0.00000000000E+00 -0.55857847853E+03  0.55857847853E+03  0.00000000000E+00 0.  1.
          6    2    1    2  502    0  0.20398352756E+02 -0.17303621533E+03 -0.32465627610E+03  0.40562912382E+03  0.16963391133E+03 0.  0.
         24    2    3    3    0    0  0.52173888661E+02 -0.16098085976E+03 -0.19273443843E+03  0.26931889847E+03  0.82153231527E+02 0.  0.
         -6    2    1    2    0  501 -0.20398352756E+02  0.17303621533E+03 -0.11529744277E+03  0.27157411437E+03  0.17349747743E+03 0.  0.
        -24    2    5    5    0    0 -0.41245919822E+02  0.12683379084E+03 -0.14462769261E+03  0.21282346639E+03  0.81170326953E+02 0.  0.
          5    1    3    3  502    0 -0.31775535904E+02 -0.12055355561E+02 -0.13192183767E+03  0.13631022535E+03  0.47000000000E+01 0. -1.
        -13    1    4    4    0    0 -0.17413466745E+01 -0.47709918987E+02 -0.10758543777E+03  0.11770257040E+03  0.00000000000E+00 0.  1.
         14    1    4    4    0    0  0.53915235335E+02 -0.11327094078E+03 -0.85149000655E+02  0.15161632807E+03  0.00000000000E+00 0. -1.
         -5    1    5    5    0  501  0.20847567065E+02  0.46202424489E+02  0.29330249843E+02  0.58750647972E+02  0.47000000000E+01 0.  1.
         13    1    6    6    0    0 -0.25259551487E+02  0.79812948071E+02 -0.31803799248E+02  0.89552405148E+02  0.00000000000E+00 0. -1.
        -14    1    6    6    0    0 -0.15986368335E+02  0.47020842765E+02 -0.11282389336E+03  0.12327106125E+03  0.00000000000E+00 0.  1.
<mgrwt>
<rscale>  2 0.24452499E+03</rscale>
<asrwt>0</asrwt>
<pdfrwt beam="2">  1        2 0.85935151E-01 0.24452499E+03</pdfrwt>
<pdfrwt beam="1">  1       -2 0.18249963E-01 0.24452499E+03</pdfrwt>
<totfact> 0.13480095E+03</totfact>
</mgrwt>
</event>
<event>
12    1  0.4154313E-002  0.1844154E+03  0.7546771E-02  0.1163597E+00
          2   -1    0    0  502    0  0.00000000000E+00  0.00000000000E+00  0.24864919427E+04  0.24864919427E+04  0.00000000000E+00 0. -1.
         -2   -1    0    0    0  501 -0.00000000000E+00 -0.00000000000E+00 -0.15238036298E+02  0.15238036298E+02  0.00000000000E+00 0.  1.
          6    2    1    2  502    0 -0.52328870535E+02 -0.35755599817E+02  0.16434716686E+04  0.16539286683E+04  0.17453979664E+03 0.  0.
         24    2    3    3    0    0 -0.45259219104E+02 -0.76359007557E+02  0.14926911173E+04  0.14975461841E+04  0.81478261015E+02 0.  0.
         -6    2    1    2    0  501  0.52328870535E+02  0.35755599817E+02  0.82778223780E+03  0.84780131073E+03  0.17183380240E+03 0.  0.
        -24    2    5    5    0    0  0.33249538968E+02 -0.35132534124E+02  0.62315866556E+03  0.63035696212E+03  0.81751761038E+02 0.  0.
          5    1    3    3  502    0 -0.70696514312E+01  0.40603407739E+02  0.15078055135E+03  0.15638248417E+03  0.47000000000E+01 0. -1.
        -13    1    4    4    0    0 -0.50290483668E+02 -0.21851033101E+02  0.43541896456E+03  0.43885792131E+03  0.00000000000E+00 0.  1.
         14    1    4    4    0    0  0.50312645640E+01 -0.54507974455E+02  0.10572721527E+04  0.10586882628E+04  0.00000000000E+00 0. -1.
         -5    1    5    5    0  501  0.19079331568E+02  0.70888133941E+02  0.20462357224E+03  0.21744434861E+03  0.47000000000E+01 0.  1.
         13    1    6    6    0    0 -0.23105569881E+02 -0.25024885719E+01  0.79965694762E+02  0.83274498781E+02  0.00000000000E+00 0. -1.
        -14    1    6    6    0    0  0.56355108849E+02 -0.32630045552E+02  0.54319297080E+03  0.54708246333E+03  0.00000000000E+00 0.  1.
<mgrwt>
<rscale>  2 0.18441541E+03</rscale>
<asrwt>0</asrwt>
<pdfrwt beam="1">  1        2 0.38253690E+00 0.18441541E+03</pdfrwt>
<pdfrwt beam="2">  1       -2 0.23443153E-02 0.18441541E+03</pdfrwt>
<totfact> 0.25110948E+03</totfact>
</mgrwt>
</event>
<event>
12    1  0.4154313E-002  0.1767760E+03  0.7546771E-02  0.1170960E+00
          2   -1    0    0  502    0  0.00000000000E+00  0.00000000000E+00  0.10627270700E+04  0.10627270700E+04  0.00000000000E+00 0. -1.
         -2   -1    0    0    0  501 -0.00000000000E+00 -0.00000000000E+00 -0.48065077127E+02  0.48065077127E+02  0.00000000000E+00 0.  1.
          6    2    1    2  502    0  0.59392566638E+02  0.22257802310E+01  0.17286576716E+03  0.25188897923E+03  0.17330047125E+03 0.  0.
         24    2    3    3    0    0  0.58091708090E+02 -0.32550390055E+02  0.18704984423E+03  0.21401613547E+03  0.79881709863E+02 0.  0.
         -6    2    1    2    0  501 -0.59392566638E+02 -0.22257802310E+01  0.84179622573E+03  0.85890316791E+03  0.15987912659E+03 0.  0.
        -24    2    5    5    0    0  0.23161807840E+02  0.68988361571E+00  0.34502005697E+03  0.35528388939E+03  0.81552787021E+02 0.  0.
          5    1    3    3  502    0  0.13008585482E+01  0.34776170286E+02 -0.14184077075E+02  0.37872843769E+02  0.47000000000E+01 0. -1.
        -11    1    4    4    0    0  0.17422483156E+02 -0.29437935957E+02  0.15270924048E+02  0.37461128039E+02  0.00000000000E+00 0.  1.
         12    1    4    4    0    0  0.40669224934E+02 -0.31124540978E+01  0.17177892019E+03  0.17655500743E+03  0.00000000000E+00 0. -1.
         -5    1    5    5    0  501 -0.82554374478E+02 -0.29156638468E+01  0.49677616877E+03  0.50361927852E+03  0.47000000000E+01 0.  1.
         11    1    6    6    0    0  0.13646212634E+02  0.35690065917E+01  0.34505402879E+03  0.34534220667E+03  0.00000000000E+00 0. -1.
        -12    1    6    6    0    0  0.95155952063E+01 -0.28791229760E+01 -0.33971819525E-01  0.99416827210E+01  0.00000000000E+00 0.  1.
<mgrwt>
<rscale>  2 0.17677596E+03</rscale>
<asrwt>0</asrwt>
<pdfrwt beam="1">  1        2 0.16349645E+00 0.17677596E+03</pdfrwt>
<pdfrwt beam="2">  1       -2 0.73946281E-02 0.17677596E+03</pdfrwt>
<totfact> 0.25561684E+03</totfact>
</mgrwt>
</event>
<event>
12    1  0.4154313E-002  0.1810917E+03  0.7546771E-02  0.1166751E+00
         -1   -1    0    0    0  501 -0.00000000000E+00  0.00000000000E+00  0.54059762278E+02  0.54059762278E+02  0.00000000000E+00 0.  1.
          1   -1    0    0  502    0  0.00000000000E+00 -0.00000000000E+00 -0.71269986556E+03  0.71269986556E+03  0.00000000000E+00 0. -1.
          6    2    1    2  502    0 -0.31314339322E+02  0.45313383714E+02 -0.47544468332E+03  0.50836308247E+03  0.17132275429E+03 0.  0.
         24    2    3    3    0    0 -0.60744567734E+02  0.80688074700E+02 -0.39412612753E+03  0.41480932989E+03  0.80814032540E+02 0.  0.
         -6    2    1    2    0  501  0.31314339322E+02 -0.45313383714E+02 -0.18319541996E+03  0.25839654536E+03  0.17370757660E+03 0.  0.
        -24    2    5    5    0    0 -0.94190868758E+01 -0.82466662829E+02 -0.16339960029E+03  0.19962969556E+03  0.79139852797E+02 0.  0.
          5    1    3    3  502    0  0.29430228413E+02 -0.35374690986E+02 -0.81318555785E+02  0.93553752579E+02  0.47000000000E+01 0. -1.
        -11    1    4    4    0    0 -0.52943360980E+02  0.37785206038E+02 -0.11350938961E+03  0.13082470254E+03  0.00000000000E+00 0.  1.
         12    1    4    4    0    0 -0.78012067542E+01  0.42902868662E+02 -0.28061673792E+03  0.28398462735E+03  0.00000000000E+00 0. -1.
         -5    1    5    5    0  501  0.40733426197E+02  0.37153279114E+02 -0.19795819675E+02  0.58766849799E+02  0.47000000000E+01 0.  1.
         11    1    6    6    0    0 -0.33112512541E+02 -0.15424411110E+02 -0.91435313617E+02  0.98462010548E+02  0.00000000000E+00 0. -1.
        -12    1    6    6    0    0  0.23693425666E+02 -0.67042251719E+02 -0.71964286669E+02  0.10116768501E+03  0.00000000000E+00 0.  1.
<mgrwt>
<rscale>  2 0.18109173E+03</rscale>
<asrwt>0</asrwt>
<pdfrwt beam="2">  1        1 0.10964612E+00 0.18109173E+03</pdfrwt>
<pdfrwt beam="1">  1       -1 0.83168873E-02 0.18109173E+03</pdfrwt>
<totfact> 0.22070637E+03</totfact>
</mgrwt>
</event>
<event>
12    1  0.4154313E-002  0.2146645E+03  0.7546771E-02  0.1137925E+00
         -1   -1    0    0    0  501 -0.00000000000E+00  0.00000000000E+00  0.32312560720E+03  0.32312560720E+03  0.00000000000E+00 0. -1.
          1   -1    0    0  502    0  0.00000000000E+00 -0.00000000000E+00 -0.17418561058E+03  0.17418561058E+03  0.00000000000E+00 0.  1.
          6    2    1    2  502    0 -0.11576514602E+03 -0.52314350748E+02  0.18019142410E+03  0.27987340069E+03  0.17240014723E+03 0.  0.
         24    2    3    3    0    0 -0.36443383283E+01 -0.43645381490E+02  0.12781700875E+03  0.15573075721E+03  0.77438236604E+02 0.  0.
         -6    2    1    2    0  501  0.11576514602E+03  0.52314350748E+02 -0.31251427486E+02  0.21743781710E+03  0.17367841620E+03 0.  0.
        -24    2    5    5    0    0 -0.70773688915E+01  0.38989071636E+02  0.48307760429E+00  0.89778053084E+02  0.80558231076E+02 0.  0.
          5    1    3    3  502    0 -0.11212080770E+03 -0.86689692584E+01  0.52374415352E+02  0.12414264348E+03  0.47000000000E+01 0. -1.
        -13    1    4    4    0    0  0.23238139365E+02  0.12698728818E+02  0.40618998448E+02  0.48488883980E+02  0.00000000000E+00 0.  1.
         14    1    4    4    0    0 -0.26882477693E+02 -0.56344110308E+02  0.87198010301E+02  0.10724187323E+03  0.00000000000E+00 0. -1.
         -5    1    5    5    0  501  0.12284251492E+03  0.13325279113E+02 -0.31734505090E+02  0.12765976401E+03  0.47000000000E+01 0.  1.
         13    1    6    6    0    0 -0.72990940289E+01  0.58628552177E+02  0.19720577885E+02  0.62285512731E+02  0.00000000000E+00 0. -1.
        -14    1    6    6    0    0  0.22172513742E+00 -0.19639480541E+02 -0.19237500281E+02  0.27492540353E+02  0.00000000000E+00 0.  1.
<mgrwt>
<rscale>  2 0.21466446E+03</rscale>
<asrwt>0</asrwt>
<pdfrwt beam="2">  1        1 0.26797786E-01 0.21466446E+03</pdfrwt>
<pdfrwt beam="1">  1       -1 0.49711632E-01 0.21466446E+03</pdfrwt>
<totfact> 0.72737352E+02</totfact>
</mgrwt>
</event>
<event>
12    1  0.5074323E-002  0.1835428E+03  0.7546771E-02  0.1164418E+00
          2   -1    0    0  502    0  0.00000000000E+00  0.00000000000E+00  0.11175338339E+04  0.11175338339E+04  0.00000000000E+00 0.  1.
         -2   -1    0    0    0  501 -0.00000000000E+00 -0.00000000000E+00 -0.32894607345E+02  0.32894607345E+02  0.00000000000E+00 0. -1.
          6    2    1    2  502    0 -0.36338499807E+02 -0.45554352174E+02  0.70952294176E+03  0.73296183937E+03  0.17439772794E+03 0.  0.
         24    2    3    3    0    0  0.16076848149E+02  0.16217443486E+02  0.52281217121E+03  0.52937862473E+03  0.79923034476E+02 0.  0.
         -6    2    1    2    0  501  0.36338499807E+02  0.45554352174E+02  0.37511628477E+03  0.41746660186E+03  0.17369643345E+03 0.  0.
        -24    2    5    5    0    0 -0.42046268070E+02  0.44340876150E+02  0.16138163411E+03  0.18976013455E+03  0.78935890951E+02 0.  0.
          5    1    3    3  502    0 -0.52415347956E+02 -0.61771795661E+02  0.18671077056E+03  0.20358321464E+03  0.47000000000E+01 0. -1.
        -13    1    4    4    0    0  0.20977918114E+02 -0.29869525199E+02  0.20920446152E+03  0.21236470589E+03  0.00000000000E+00 0.  1.
         14    1    4    4    0    0 -0.49010699648E+01  0.46086968685E+02  0.31360770968E+03  0.31701391885E+03  0.00000000000E+00 0. -1.
         -5    1    5    5    0  501  0.78384767877E+02  0.12134760244E+01  0.21373465066E+03  0.22770646731E+03  0.47000000000E+01 0.  1.
         11    1    6    6    0    0 -0.28586703906E+02 -0.11851381486E+02  0.19534679404E+02  0.36595882046E+02  0.00000000000E+00 0. -1.
        -12    1    6    6    0    0 -0.13459564164E+02  0.56192257636E+02  0.14184695471E+03  0.15316425251E+03  0.00000000000E+00 0.  1.
<mgrwt>
<rscale>  2 0.18354284E+03</rscale>
<asrwt>0</asrwt>
<pdfrwt beam="1">  1        2 0.17192825E+00 0.18354284E+03</pdfrwt>
<pdfrwt beam="2">  1       -2 0.50607097E-02 0.18354284E+03</pdfrwt>
<totfact> 0.42446934E+03</totfact>
</mgrwt>
</event>
<event>
12    1  0.4154313E-002  0.4023452E+03  0.7546771E-02  0.1042971E+00
         -2   -1    0    0    0  501 -0.00000000000E+00  0.00000000000E+00  0.99182940233E+03  0.99182940233E+03  0.00000000000E+00 0. -1.
          2   -1    0    0  502    0  0.00000000000E+00 -0.00000000000E+00 -0.91820005050E+03  0.91820005050E+03  0.00000000000E+00 0.  1.
          6    2    1    2  502    0  0.81346956643E+02 -0.35362766232E+03  0.90279590081E+03  0.98829355925E+03  0.17324511490E+03 0.  0.
         24    2    3    3    0    0  0.29399185959E+02 -0.58012977135E+02  0.13717015647E+03  0.16592412684E+03  0.66972728708E+02 0.  0.
         -6    2    1    2    0  501 -0.81346956643E+02  0.35362766232E+03 -0.82916654897E+03  0.92173589357E+03  0.17438474891E+03 0.  0.
        -24    2    5    5    0    0 -0.96874060463E+02  0.14151004515E+03 -0.41569791884E+03  0.45674839635E+03  0.80029128286E+02 0.  0.
          5    1    3    3  502    0  0.51947770684E+02 -0.29561468518E+03  0.76562574434E+03  0.82236943241E+03  0.47000000000E+01 0. -1.
        -11    1    4    4    0    0 -0.18806682275E+02 -0.33924340700E+02  0.47729056841E+02  0.61502967872E+02  0.00000000000E+00 0.  1.
         12    1    4    4    0    0  0.48205868234E+02 -0.24088636435E+02  0.89441099627E+02  0.10442115897E+03  0.00000000000E+00 0. -1.
         -5    1    5    5    0  501  0.15527103821E+02  0.21211761717E+03 -0.41346863014E+03  0.46498749723E+03  0.47000000000E+01 0.  1.
         13    1    6    6    0    0 -0.66095207015E+02  0.11233661839E+03 -0.37858857385E+03  0.40039655402E+03  0.00000000000E+00 0. -1.
        -14    1    6    6    0    0 -0.30778853448E+02  0.29173426762E+02 -0.37109344985E+02  0.56351842329E+02  0.00000000000E+00 0.  1.
<mgrwt>
<rscale>  2 0.40234523E+03</rscale>
<asrwt>0</asrwt>
<pdfrwt beam="2">  1        2 0.14126155E+00 0.40234523E+03</pdfrwt>
<pdfrwt beam="1">  1       -2 0.15258914E+00 0.40234523E+03</pdfrwt>
<totfact> 0.87925368E+00</totfact>
</mgrwt>
</event>
<event>
12    1  0.4154313E-002  0.2000455E+03  0.7546771E-02  0.1149701E+00
         -2   -1    0    0    0  501 -0.00000000000E+00  0.00000000000E+00  0.12714297183E+03  0.12714297183E+03  0.00000000000E+00 0.  1.
          2   -1    0    0  502    0  0.00000000000E+00 -0.00000000000E+00 -0.66215217030E+03  0.66215217030E+03  0.00000000000E+00 0. -1.
          6    2    1    2  502    0  0.28389671310E+02 -0.96070552584E+02 -0.55342104802E+03  0.58849916950E+03  0.17326537910E+03 0.  0.
         24    2    3    3    0    0 -0.33442679794E+02 -0.92558170150E+02 -0.27970042915E+03  0.30782027170E+03  0.82677457080E+02 0.  0.
         -6    2    1    2    0  501 -0.28389671310E+02  0.96070552584E+02  0.18411849553E+02  0.20079597264E+03  0.17304479741E+03 0.  0.
        -24    2    5    5    0    0 -0.25849279190E+02  0.13591999507E+03  0.10462334475E+02  0.15981162869E+03  0.79296065017E+02 0.  0.
          5    1    3    3  502    0  0.61832351104E+02 -0.35123824344E+01 -0.27372061887E+03  0.28067889780E+03  0.47000000000E+01 0. -1.
        -13    1    4    4    0    0 -0.35471027883E+02 -0.73149479590E+01 -0.13587422548E+03  0.14061830404E+03  0.00000000000E+00 0.  1.
         14    1    4    4    0    0  0.20283480889E+01 -0.85243222191E+02 -0.14382620367E+03  0.16720196766E+03  0.00000000000E+00 0. -1.
         -5    1    5    5    0  501 -0.25403921199E+01 -0.39849442487E+02  0.79495150777E+01  0.40984343946E+02  0.47000000000E+01 0.  1.
         13    1    6    6    0    0  0.11846980934E+02  0.80056998269E+02  0.34889552973E+02  0.88129194004E+02  0.00000000000E+00 0. -1.
        -14    1    6    6    0    0 -0.37696260124E+02  0.55862996803E+02 -0.24427218497E+02  0.71682434687E+02  0.00000000000E+00 0.  1.
<mgrwt>
<rscale>  2 0.20004550E+03</rscale>
<asrwt>0</asrwt>
<pdfrwt beam="2">  1        2 0.10186956E+00 0.20004550E+03</pdfrwt>
<pdfrwt beam="1">  1       -2 0.19560458E-01 0.20004550E+03</pdfrwt>
<totfact> 0.98178458E+02</totfact>
</mgrwt>
</event>
<event>
12    1  0.4154313E-002  0.2865030E+03  0.7546771E-02  0.1092189E+00
          2   -1    0    0  502    0  0.00000000000E+00  0.00000000000E+00  0.86955053595E+03  0.86955053595E+03  0.00000000000E+00 0. -1.
         -2   -1    0    0    0  501 -0.00000000000E+00 -0.00000000000E+00 -0.13054205640E+03  0.13054205640E+03  0.00000000000E+00 0.  1.
          6    2    1    2  502    0 -0.51144233582E+02 -0.22083299467E+03  0.63325900122E+03  0.69533721631E+03  0.17633473166E+03 0.  0.
         24    2    3    3    0    0 -0.45742539049E+02 -0.17437330959E+03  0.61326470173E+03  0.64425353346E+03  0.80439977645E+02 0.  0.
         -6    2    1    2    0  501  0.51144233582E+02  0.22083299467E+03  0.10574947832E+03  0.30475537604E+03  0.17409750973E+03 0.  0.
        -24    2    5    5    0    0 -0.30267939573E+02  0.16377636559E+03  0.93312554489E+02  0.20445498753E+03  0.73183078715E+02 0.  0.
          5    1    3    3  502    0 -0.54016945326E+01 -0.46459685081E+02  0.19994299490E+02  0.51083682852E+02  0.47000000000E+01 0. -1.
        -11    1    4    4    0    0 -0.64323975959E+02 -0.94504566358E+02  0.32327235103E+03  0.34289021550E+03  0.00000000000E+00 0.  1.
         12    1    4    4    0    0  0.18581436909E+02 -0.79868743235E+02  0.28999235070E+03  0.30136331796E+03  0.00000000000E+00 0. -1.
         -5    1    5    5    0  501  0.81412173155E+02  0.57056629085E+02  0.12436923831E+02  0.10030038851E+03  0.47000000000E+01 0.  1.
         11    1    6    6    0    0 -0.52060208407E+02  0.88872595299E+02  0.42908122544E+02  0.11157827062E+03  0.00000000000E+00 0. -1.
        -12    1    6    6    0    0  0.21792268834E+02  0.74903770291E+02  0.50404431946E+02  0.92876716913E+02  0.00000000000E+00 0.  1.
<mgrwt>
<rscale>  2 0.28650296E+03</rscale>
<asrwt>0</asrwt>
<pdfrwt beam="1">  1        2 0.13377700E+00 0.28650296E+03</pdfrwt>
<pdfrwt beam="2">  1       -2 0.20083394E-01 0.28650296E+03</pdfrwt>
<totfact> 0.66599863E+02</totfact>
</mgrwt>
</event>
<event>
12    1  0.4154313E-002  0.1853717E+03  0.7546771E-02  0.1162703E+00
         -2   -1    0    0    0  501 -0.00000000000E+00  0.00000000000E+00  0.77714261242E+02  0.77714261242E+02  0.00000000000E+00 0. -1.
          2   -1    0    0  502    0  0.00000000000E+00 -0.00000000000E+00 -0.60293058823E+03  0.60293058823E+03  0.00000000000E+00 0.  1.
          6    2    1    2  502    0 -0.71729010373E+01  0.65468350832E+02 -0.43780851411E+03  0.47523732496E+03  0.17273292833E+03 0.  0.
         24    2    3    3    0    0  0.16000722268E+02  0.10771210001E+03 -0.31757186845E+03  0.34562061260E+03  0.82120622396E+02 0.  0.
         -6    2    1    2    0  501  0.71729010373E+01 -0.65468350832E+02 -0.87407812875E+02  0.20540752452E+03  0.17382338711E+03 0.  0.
        -24    2    5    5    0    0 -0.25074292435E+02  0.12301503543E+02 -0.26098151663E+00  0.84144620246E+02  0.79373811011E+02 0.  0.
          5    1    3    3  502    0 -0.23173623305E+02 -0.42243749174E+02 -0.12023664567E+03  0.12961671236E+03  0.47000000000E+01 0. -1.
        -11    1    4    4    0    0 -0.33682371926E+02  0.40596596643E+02 -0.11555602307E+03  0.12702669131E+03  0.00000000000E+00 0.  1.
         12    1    4    4    0    0  0.49683094194E+02  0.67115503363E+02 -0.20201584538E+03  0.21859392129E+03  0.00000000000E+00 0. -1.
         -5    1    5    5    0  501  0.32247193473E+02 -0.77769854375E+02 -0.87146831359E+02  0.12126290427E+03  0.47000000000E+01 0.  1.
         13    1    6    6    0    0  0.33648010827E+01  0.38182309924E+02  0.17079091999E+02  0.41963151227E+02  0.00000000000E+00 0. -1.
        -14    1    6    6    0    0 -0.28439093518E+02 -0.25880806381E+02 -0.17340073515E+02  0.42181469019E+02  0.00000000000E+00 0.  1.
<mgrwt>
<rscale>  2 0.18537166E+03</rscale>
<asrwt>0</asrwt>
<pdfrwt beam="2">  1        2 0.92758550E-01 0.18537166E+03</pdfrwt>
<pdfrwt beam="1">  1       -2 0.11956040E-01 0.18537166E+03</pdfrwt>
<totfact> 0.24675537E+03</totfact>
</mgrwt>
</event>
<event>
12    1  0.4154313E-002  0.1843437E+03  0.7546771E-02  0.1163664E+00
          2   -1    0    0  502    0  0.00000000000E+00  0.00000000000E+00  0.11694991669E+04  0.11694991669E+04  0.00000000000E+00 0.  1.
         -2   -1    0    0    0  501 -0.00000000000E+00 -0.00000000000E+00 -0.33794356436E+02  0.33794356436E+02  0.00000000000E+00 0. -1.
          6    2    1    2  502    0  0.62406306273E+02  0.91714106001E+01  0.79304935661E+03  0.81418805279E+03  0.17319423044E+03 0.  0.
         24    2    3    3    0    0  0.83852899387E+02  0.37870559278E+02  0.73950497739E+03  0.74959170586E+03  0.80960644230E+02 0.  0.
         -6    2    1    2    0  501 -0.62406306273E+02 -0.91714106001E+01  0.34265545386E+03  0.38910547055E+03  0.17323869463E+03 0.  0.
        -24    2    5    5    0    0  0.20994612940E+02  0.28525309865E+02  0.14399188359E+03  0.17032233543E+03  0.83794798952E+02 0.  0.
          5    1    3    3  502    0 -0.21446593114E+02 -0.28699148678E+02  0.53544379218E+02  0.64596346931E+02  0.47000000000E+01 0. -1.
        -11    1    4    4    0    0  0.38541408755E+02 -0.67598134860E+01  0.50813775789E+03  0.50964214529E+03  0.00000000000E+00 0.  1.
         12    1    4    4    0    0  0.45311490632E+02  0.44630372764E+02  0.23136721950E+03  0.23994956057E+03  0.00000000000E+00 0. -1.
         -5    1    5    5    0  501 -0.83400919213E+02 -0.37696720465E+02  0.19866357027E+03  0.21878313512E+03  0.47000000000E+01 0.  1.
         11    1    6    6    0    0  0.32791545393E+02 -0.21731759948E+02  0.60982442107E+02  0.72570056394E+02  0.00000000000E+00 0. -1.
        -12    1    6    6    0    0 -0.11796932453E+02  0.50257069814E+02  0.83009441481E+02  0.97752279035E+02  0.00000000000E+00 0.  1.
<mgrwt>
<rscale>  2 0.18434371E+03</rscale>
<asrwt>0</asrwt>
<pdfrwt beam="1">  1        2 0.17992292E+00 0.18434371E+03</pdfrwt>
<pdfrwt beam="2">  1       -2 0.51991327E-02 0.18434371E+03</pdfrwt>
<totfact> 0.38059405E+03</totfact>
</mgrwt>
</event>
<event>
12    1  0.4154313E-002  0.2099862E+03  0.7546771E-02  0.1141577E+00
         -1   -1    0    0    0  501 -0.00000000000E+00  0.00000000000E+00  0.50125991718E+03  0.50125991718E+03  0.00000000000E+00 0. -1.
          1   -1    0    0  502    0  0.00000000000E+00 -0.00000000000E+00 -0.89138756522E+02  0.89138756522E+02  0.00000000000E+00 0.  1.
          6    2    1    2  502    0  0.74240511197E+02 -0.76137027467E+02  0.23356665027E+03  0.31042003049E+03  0.17463881229E+03 0.  0.
         24    2    3    3    0    0 -0.25742523799E+02 -0.18595702460E+02  0.11140583352E+03  0.14233384272E+03  0.82699367343E+02 0.  0.
         -6    2    1    2    0  501 -0.74240511197E+02  0.76137027467E+02  0.17855451039E+03  0.27997864322E+03  0.18761083930E+03 0.  0.
        -24    2    5    5    0    0 -0.12264830498E+03  0.70110311649E+02  0.13532568660E+03  0.21462990942E+03  0.88288697166E+02 0.  0.
          5    1    3    3  502    0  0.99983034996E+02 -0.57541325006E+02  0.12216081674E+03  0.16808618777E+03  0.47000000000E+01 0. -1.
        -11    1    4    4    0    0  0.16604322631E+02 -0.37578177203E+02  0.63542464852E+02  0.75666820809E+02  0.00000000000E+00 0.  1.
         12    1    4    4    0    0 -0.42346846430E+02  0.18982474742E+02  0.47863368669E+02  0.66667021909E+02  0.00000000000E+00 0. -1.
         -5    1    5    5    0  501  0.48407793787E+02  0.60267158179E+01  0.43228823787E+02  0.65348733797E+02  0.47000000000E+01 0.  1.
         11    1    6    6    0    0 -0.41385463324E+02  0.74077494272E+02  0.61851714164E+02  0.10500412505E+03  0.00000000000E+00 0. -1.
        -12    1    6    6    0    0 -0.81262841660E+02 -0.39671826233E+01  0.73473972441E+02  0.10962578437E+03  0.00000000000E+00 0.  1.
<mgrwt>
<rscale>  2 0.20998623E+03</rscale>
<asrwt>0</asrwt>
<pdfrwt beam="2">  1        1 0.13713655E-01 0.20998623E+03</pdfrwt>
<pdfrwt beam="1">  1       -1 0.77116909E-01 0.20998623E+03</pdfrwt>
<totfact> 0.73769697E+02</totfact>
</mgrwt>
</event>
<event>
12    1  0.4154313E-002  0.2342241E+03  0.7546771E-02  0.1123701E+00
          1   -1    0    0  502    0  0.00000000000E+00  0.00000000000E+00  0.88876522685E+03  0.88876522685E+03  0.00000000000E+00 0.  1.
         -1   -1    0    0    0  501 -0.00000000000E+00 -0.00000000000E+00 -0.72725766064E+02  0.72725766064E+02  0.00000000000E+00 0. -1.
          6    2    1    2  502    0 -0.15698474045E+03  0.15793935777E+02  0.59512789206E+03  0.63959854102E+03  0.17324961362E+03 0.  0.
         24    2    3    3    0    0 -0.15293629533E+03 -0.37689300978E+02  0.40335695102E+03  0.44041262196E+03  0.80352061637E+02 0.  0.
         -6    2    1    2    0  501  0.15698474045E+03 -0.15793935777E+02  0.22091156873E+03  0.32189245190E+03  0.17297159376E+03 0.  0.
        -24    2    5    5    0    0  0.39640178037E+02  0.25145720167E+02  0.36062291228E+02  0.99098495183E+02  0.79475605951E+02 0.  0.
          5    1    3    3  502    0 -0.40484451204E+01  0.53483236755E+02  0.19177094105E+03  0.19918591906E+03  0.47000000000E+01 0. -1.
        -13    1    4    4    0    0 -0.78580443740E+02 -0.16549474771E+02  0.30454983233E+03  0.31495931741E+03  0.00000000000E+00 0.  1.
         14    1    4    4    0    0 -0.74355851593E+02 -0.21139826208E+02  0.98807118685E+02  0.12545330454E+03  0.00000000000E+00 0. -1.
         -5    1    5    5    0  501  0.11734456242E+03 -0.40939655943E+02  0.18484927750E+03  0.22279395672E+03  0.47000000000E+01 0.  1.
         11    1    6    6    0    0  0.55972890995E+02  0.21907297837E+02  0.49369702146E+02  0.77783428279E+02  0.00000000000E+00 0. -1.
        -12    1    6    6    0    0 -0.16332712958E+02  0.32384223298E+01 -0.13307410918E+02  0.21315066903E+02  0.00000000000E+00 0.  1.
<mgrwt>
<rscale>  2 0.23422412E+03</rscale>
<asrwt>0</asrwt>
<pdfrwt beam="1">  1        1 0.13673310E+00 0.23422412E+03</pdfrwt>
<pdfrwt beam="2">  1       -1 0.11188580E-01 0.23422412E+03</pdfrwt>
<totfact> 0.99949998E+02</totfact>
</mgrwt>
</event>
<event>
12    1  0.4154313E-002  0.1966329E+03  0.7546771E-02  0.1152611E+00
         -2   -1    0    0    0  501 -0.00000000000E+00  0.00000000000E+00  0.15538798263E+03  0.15538798263E+03  0.00000000000E+00 0.  1.
          2   -1    0    0  502    0  0.00000000000E+00 -0.00000000000E+00 -0.26081348494E+03  0.26081348494E+03  0.00000000000E+00 0. -1.
          6    2    1    2  502    0  0.44960717698E+02 -0.78566527126E+02 -0.97588652863E+02  0.22048562347E+03  0.17577314831E+03 0.  0.
         24    2    3    3    0    0  0.95105383141E+02 -0.59669788678E+02 -0.93319772900E+02  0.16652371530E+03  0.80100250695E+02 0.  0.
         -6    2    1    2    0  501 -0.44960717698E+02  0.78566527126E+02 -0.78368494519E+01  0.19571584410E+03  0.17334679144E+03 0.  0.
        -24    2    5    5    0    0 -0.70785566392E+02 -0.17278496522E+01 -0.25734837620E+02  0.10936459783E+03  0.79276424722E+02 0.  0.
          5    1    3    3  502    0 -0.50144665444E+02 -0.18896738448E+02 -0.42688799624E+01  0.53961908163E+02  0.47000000000E+01 0. -1.
        -11    1    4    4    0    0  0.46405311141E+02 -0.34159762251E+02 -0.95462263007E+02  0.11150509368E+03  0.00000000000E+00 0.  1.
         12    1    4    4    0    0  0.48700072000E+02 -0.25510026427E+02  0.21424901068E+01  0.55018621620E+02  0.00000000000E+00 0. -1.
         -5    1    5    5    0  501  0.25824848695E+02  0.80294376778E+02  0.17897988168E+02  0.86351246272E+02  0.47000000000E+01 0.  1.
         13    1    6    6    0    0 -0.29117506973E+02 -0.45670797496E+01 -0.52182019086E+02  0.59930380824E+02  0.00000000000E+00 0. -1.
        -14    1    6    6    0    0 -0.41668059419E+02  0.28392300974E+01  0.26447181466E+02  0.49434217004E+02  0.00000000000E+00 0.  1.
<mgrwt>
<rscale>  2 0.19663291E+03</rscale>
<asrwt>0</asrwt>
<pdfrwt beam="2">  1        2 0.40125151E-01 0.19663291E+03</pdfrwt>
<pdfrwt beam="1">  1       -2 0.23905844E-01 0.19663291E+03</pdfrwt>
<totfact> 0.19377496E+03</totfact>
</mgrwt>
</event>
<event>
12    1  0.4154313E-002  0.3086732E+03  0.7546771E-02  0.1080984E+00
         -4   -1    0    0    0  501 -0.00000000000E+00  0.00000000000E+00  0.10760436807E+03  0.10760436807E+03  0.00000000000E+00 0.  1.
          4   -1    0    0  502    0  0.00000000000E+00 -0.00000000000E+00 -0.88570126737E+03  0.88570126737E+03  0.00000000000E+00 0. -1.
          6    2    1    2  502    0 -0.46625593496E+02  0.25033009538E+03 -0.39863754265E+03  0.50496325818E+03  0.17673963643E+03 0.  0.
         24    2    3    3    0    0  0.27055115522E+02  0.81148094433E+02 -0.96489311417E+02  0.15089117518E+03  0.78364322388E+02 0.  0.
         -6    2    1    2    0  501  0.46625593496E+02 -0.25033009538E+03 -0.37945935665E+03  0.48834237725E+03  0.17219108992E+03 0.  0.
        -24    2    5    5    0    0  0.15012833767E+02 -0.43203834897E+02 -0.16511152331E+03  0.18856289493E+03  0.78754007450E+02 0.  0.
          5    1    3    3  502    0 -0.73680709018E+02  0.16918200095E+03 -0.30214823123E+03  0.35407208300E+03  0.47000000000E+01 0. -1.
        -11    1    4    4    0    0  0.44654656982E+02  0.68442919823E+02 -0.99738736884E+02  0.12894296142E+03  0.00000000000E+00 0.  1.
         12    1    4    4    0    0 -0.17599541460E+02  0.12705174609E+02  0.32494254667E+01  0.21948213761E+02  0.00000000000E+00 0. -1.
         -5    1    5    5    0  501  0.31612759729E+02 -0.20712626048E+03 -0.21434783335E+03  0.29977948232E+03  0.47000000000E+01 0.  1.
         11    1    6    6    0    0  0.50617562530E+01 -0.49080409857E+02 -0.16924391143E+03  0.17628956170E+03  0.00000000000E+00 0. -1.
        -12    1    6    6    0    0  0.99510775138E+01  0.58765749601E+01  0.41323881269E+01  0.12273333230E+02  0.00000000000E+00 0.  1.
<mgrwt>
<rscale>  2 0.30867318E+03</rscale>
<asrwt>0</asrwt>
<pdfrwt beam="2">  1        4 0.13626174E+00 0.30867318E+03</pdfrwt>
<pdfrwt beam="1">  1       -4 0.16554518E-01 0.30867318E+03</pdfrwt>
<totfact> 0.23687653E+01</totfact>
</mgrwt>
</event>
<event>
12    1  0.4154313E-002  0.2690689E+03  0.7546771E-02  0.1101814E+00
         -2   -1    0    0    0  501 -0.00000000000E+00  0.00000000000E+00  0.89369095877E+02  0.89369095877E+02  0.00000000000E+00 0. -1.
          2   -1    0    0  502    0  0.00000000000E+00 -0.00000000000E+00 -0.87555067824E+03  0.87555067824E+03  0.00000000000E+00 0.  1.
          6    2    1    2  502    0 -0.43613243095E+02 -0.20293189854E+03 -0.52479387273E+03  0.58968236191E+03  0.17097721684E+03 0.  0.
         24    2    3    3    0    0  0.34573572278E+01 -0.20003295559E+03 -0.38590086924E+03  0.44292609560E+03  0.85081776175E+02 0.  0.
         -6    2    1    2    0  501  0.43613243095E+02  0.20293189854E+03 -0.26138770964E+03  0.37523741221E+03  0.17145293918E+03 0.  0.
        -24    2    5    5    0    0  0.42416600615E+01  0.14365715759E+03 -0.25533951466E+03  0.30366725692E+03  0.79750639962E+02 0.  0.
          5    1    3    3  502    0 -0.47070600323E+02 -0.28989429476E+01 -0.13889300349E+03  0.14675626632E+03  0.47000000000E+01 0. -1.
        -13    1    4    4    0    0 -0.24688949247E+02 -0.16151403583E+03 -0.24780979468E+03  0.29682658628E+03  0.00000000000E+00 0.  1.
         14    1    4    4    0    0  0.28146306475E+02 -0.38518919760E+02 -0.13809107456E+03  0.14609950931E+03  0.00000000000E+00 0. -1.
         -5    1    5    5    0  501  0.39371583034E+02  0.59274740952E+02 -0.60481949815E+01  0.71570155289E+02  0.47000000000E+01 0.  1.
         11    1    6    6    0    0  0.11240669480E+02 -0.71072319053E+01 -0.17454212238E+02  0.21943448238E+02  0.00000000000E+00 0. -1.
        -12    1    6    6    0    0 -0.69990094183E+01  0.15076438949E+03 -0.23788530242E+03  0.28172380868E+03  0.00000000000E+00 0.  1.
<mgrwt>
<rscale>  2 0.26906892E+03</rscale>
<asrwt>0</asrwt>
<pdfrwt beam="2">  1        2 0.13470010E+00 0.26906892E+03</pdfrwt>
<pdfrwt beam="1">  1       -2 0.13749092E-01 0.26906892E+03</pdfrwt>
<totfact> 0.12479786E+03</totfact>
</mgrwt>
</event>
<event>
12    1  0.4154313E-002  0.3828336E+03  0.7546771E-02  0.1049891E+00
         -1   -1    0    0    0  501 -0.00000000000E+00  0.00000000000E+00  0.65425038229E+03  0.65425038229E+03  0.00000000000E+00 0.  1.
          1   -1    0    0  502    0  0.00000000000E+00 -0.00000000000E+00 -0.34324097591E+03  0.34324097591E+03  0.00000000000E+00 0. -1.
          6    2    1    2  502    0 -0.17012135547E+03  0.29484014875E+03 -0.13885194928E+03  0.40575742032E+03  0.17171846558E+03 0.  0.
         24    2    3    3    0    0 -0.14947533147E+03  0.14866629753E+03 -0.42905349302E+02  0.22962992918E+03  0.80277597348E+02 0.  0.
         -6    2    1    2    0  501  0.17012135547E+03 -0.29484014875E+03  0.44986135566E+03  0.59173393788E+03  0.17861081997E+03 0.  0.
        -24    2    5    5    0    0  0.13759037045E+02 -0.98654376033E+02  0.10647321688E+03  0.16643929190E+03  0.80271383216E+02 0.  0.
          5    1    3    3  502    0 -0.20646023999E+02  0.14617385122E+03 -0.95946599978E+02  0.17612749114E+03  0.47000000000E+01 0. -1.
        -13    1    4    4    0    0  0.76809509224E+01  0.22684902707E+02 -0.77038997716E+01  0.25158535124E+02  0.00000000000E+00 0.  1.
         14    1    4    4    0    0 -0.15715628240E+03  0.12598139483E+03 -0.35201449531E+02  0.20447139406E+03  0.00000000000E+00 0. -1.
         -5    1    5    5    0  501  0.15636231843E+03 -0.19618577272E+03  0.34338813878E+03  0.42529464598E+03  0.47000000000E+01 0.  1.
         13    1    6    6    0    0 -0.26318700116E+02 -0.77874239032E+02  0.61000743664E+02  0.10236289273E+03  0.00000000000E+00 0. -1.
        -14    1    6    6    0    0  0.40077737161E+02 -0.20780137001E+02  0.45472473216E+02  0.64076399166E+02  0.00000000000E+00 0.  1.
<mgrwt>
<rscale>  2 0.38283357E+03</rscale>
<asrwt>0</asrwt>
<pdfrwt beam="2">  1        1 0.52806304E-01 0.38283357E+03</pdfrwt>
<pdfrwt beam="1">  1       -1 0.10065390E+00 0.38283357E+03</pdfrwt>
<totfact> 0.72822400E+01</totfact>
</mgrwt>
</event>
<event>
12    1  0.4154313E-002  0.2504640E+03  0.7546771E-02  0.1113012E+00
          2   -1    0    0  502    0  0.00000000000E+00  0.00000000000E+00  0.86186737731E+03  0.86186737731E+03  0.00000000000E+00 0.  1.
         -2   -1    0    0    0  501 -0.00000000000E+00 -0.00000000000E+00 -0.76509207924E+02  0.76509207924E+02  0.00000000000E+00 0. -1.
          6    2    1    2  502    0  0.15605026153E+03  0.93725463264E+02  0.28820135665E+03  0.38139373342E+03  0.17107019415E+03 0.  0.
         24    2    3    3    0    0  0.80697529695E+02 -0.15039686346E+02  0.10484746833E+03  0.15523310393E+03  0.79787476947E+02 0.  0.
         -6    2    1    2    0  501 -0.15605026153E+03 -0.93725463264E+02  0.49715681274E+03  0.55698285182E+03  0.17299957857E+03 0.  0.
        -24    2    5    5    0    0 -0.65942592964E+02  0.54840870409E+01  0.13190667315E+03  0.16789201246E+03  0.80061580358E+02 0.  0.
          5    1    3    3  502    0  0.75352731832E+02  0.10876514961E+03  0.18335388832E+03  0.22616062948E+03  0.47000000000E+01 0. -1.
        -13    1    4    4    0    0  0.92475923779E+02  0.31936923900E+01  0.88706403365E+02  0.12818276853E+03  0.00000000000E+00 0.  1.
         14    1    4    4    0    0 -0.11778394084E+02 -0.18233378736E+02  0.16141064967E+02  0.27050335406E+02  0.00000000000E+00 0. -1.
         -5    1    5    5    0  501 -0.90107668564E+02 -0.99209550305E+02  0.36525013959E+03  0.38909083936E+03  0.47000000000E+01 0.  1.
         11    1    6    6    0    0 -0.80473743787E+02 -0.27837580066E+01  0.12716358498E+03  0.15051362095E+03  0.00000000000E+00 0. -1.
        -12    1    6    6    0    0  0.14531150823E+02  0.82678450474E+01  0.47430881683E+01  0.17378391506E+02  0.00000000000E+00 0.  1.
<mgrwt>
<rscale>  2 0.25046397E+03</rscale>
<asrwt>0</asrwt>
<pdfrwt beam="1">  1        2 0.13259497E+00 0.25046397E+03</pdfrwt>
<pdfrwt beam="2">  1       -2 0.11770648E-01 0.25046397E+03</pdfrwt>
<totfact> 0.16411338E+03</totfact>
</mgrwt>
</event>
<event>
12    1  0.4154313E-002  0.2124649E+03  0.7546771E-02  0.1139629E+00
          2   -1    0    0  502    0  0.00000000000E+00  0.00000000000E+00  0.51028140418E+03  0.51028140418E+03  0.00000000000E+00 0. -1.
         -2   -1    0    0    0  501 -0.00000000000E+00 -0.00000000000E+00 -0.89472133375E+02  0.89472133375E+02  0.00000000000E+00 0.  1.
          6    2    1    2  502    0 -0.89951882968E+02  0.83884467013E+02  0.17845966808E+03  0.27738536274E+03  0.17310933329E+03 0.  0.
         24    2    3    3    0    0  0.34594442595E+01 -0.23523424442E+01  0.38937446029E+02  0.88570628656E+02  0.79442622613E+02 0.  0.
         -6    2    1    2    0  501  0.89951882968E+02 -0.83884467013E+02  0.24234960272E+03  0.32236817481E+03  0.17337809879E+03 0.  0.
        -24    2    5    5    0    0  0.55751517117E+02 -0.36644420100E+00  0.53797306906E+02  0.11327732515E+03  0.82639192999E+02 0.  0.
          5    1    3    3  502    0 -0.93411327227E+02  0.86236809457E+02  0.13952222205E+03  0.18881473408E+03  0.47000000000E+01 0. -1.
        -11    1    4    4    0    0 -0.18476352672E+02  0.30424692751E+02  0.38879196786E+01  0.35807170462E+02  0.00000000000E+00 0.  1.
         12    1    4    4    0    0  0.21935796932E+02 -0.32777035195E+02  0.35049526350E+02  0.52763458194E+02  0.00000000000E+00 0. -1.
         -5    1    5    5    0  501  0.34200365851E+02 -0.83518022812E+02  0.18855229581E+03  0.20909084967E+03  0.47000000000E+01 0.  1.
         11    1    6    6    0    0  0.27720226231E+01 -0.24825764139E+02  0.48661472515E+02  0.54698643328E+02  0.00000000000E+00 0. -1.
        -12    1    6    6    0    0  0.52979494494E+02  0.24459319938E+02  0.51358343910E+01  0.58578681818E+02  0.00000000000E+00 0.  1.
<mgrwt>
<rscale>  2 0.21246488E+03</rscale>
<asrwt>0</asrwt>
<pdfrwt beam="1">  1        2 0.78504829E-01 0.21246488E+03</pdfrwt>
<pdfrwt beam="2">  1       -2 0.13764944E-01 0.21246488E+03</pdfrwt>
<totfact> 0.23813864E+03</totfact>
</mgrwt>
</event>
<event>
12    1  0.4154313E-002  0.1905610E+03  0.7546771E-02  0.1157956E+00
          2   -1    0    0  502    0  0.00000000000E+00  0.00000000000E+00  0.15994119633E+04  0.15994119633E+04  0.00000000000E+00 0. -1.
         -2   -1    0    0    0  501 -0.00000000000E+00 -0.00000000000E+00 -0.37118924729E+02  0.37118924729E+02  0.00000000000E+00 0.  1.
          6    2    1    2  502    0  0.40738250000E+02  0.67244398534E+02  0.27190183900E+03  0.33218381875E+03  0.17387945607E+03 0.  0.
         24    2    3    3    0    0  0.11670837210E+02  0.54071096745E+02  0.52302707832E+02  0.11022815026E+03  0.79716873493E+02 0.  0.
         -6    2    1    2    0  501 -0.40738250000E+02 -0.67244398534E+02  0.12903911996E+04  0.13043470693E+04  0.17329285918E+03 0.  0.
        -24    2    5    5    0    0 -0.27949797928E+02 -0.45262953723E+01  0.29919037827E+03  0.31107054024E+03  0.80301432145E+02 0.  0.
          5    1    3    3  502    0  0.29067412791E+02  0.13173301790E+02  0.21959913117E+03  0.22195566849E+03  0.47000000000E+01 0. -1.
        -11    1    4    4    0    0  0.88711580582E+01  0.73830076875E+02  0.51118329097E+02  0.90236695786E+02  0.00000000000E+00 0.  1.
         12    1    4    4    0    0  0.27996791514E+01 -0.19758980130E+02  0.11843787349E+01  0.19991454478E+02  0.00000000000E+00 0. -1.
         -5    1    5    5    0  501 -0.12788452072E+02 -0.62718103162E+02  0.99120082132E+03  0.99327652905E+03  0.47000000000E+01 0.  1.
         11    1    6    6    0    0  0.17158350039E+02 -0.26406554892E+02  0.16138370883E+03  0.16442754208E+03  0.00000000000E+00 0. -1.
        -12    1    6    6    0    0 -0.45108147968E+02  0.21880259519E+02  0.13780666943E+03  0.14664299816E+03  0.00000000000E+00 0.  1.
<mgrwt>
<rscale>  2 0.19056104E+03</rscale>
<asrwt>0</asrwt>
<pdfrwt beam="1">  1        2 0.24606332E+00 0.19056104E+03</pdfrwt>
<pdfrwt beam="2">  1       -2 0.57106051E-02 0.19056104E+03</pdfrwt>
<totfact> 0.19342087E+03</totfact>
</mgrwt>
</event>
<event>
11    1  0.4154313E-002  0.1832245E+03  0.7546771E-02  0.1164718E+00
         -2   -1    0    0    0  501 -0.00000000000E+00  0.00000000000E+00  0.14444926434E+02  0.14444926434E+02  0.00000000000E+00 0. -1.
          2   -1    0    0  502    0  0.00000000000E+00 -0.00000000000E+00 -0.23571851242E+04  0.23571851242E+04  0.00000000000E+00 0.  1.
          6    2    1    2  502    0  0.48567348380E+02  0.96515136213E+01 -0.10353656880E+04  0.10515762509E+04  0.17713995727E+03 0.  0.
         24    2    3    3    0    0  0.39600916004E+02  0.75855233663E+02 -0.72396084913E+03  0.73305090945E+03  0.76955024179E+02 0.  0.
         -6    2    1    2    0  501 -0.48567348380E+02 -0.96515136213E+01 -0.13073745098E+04  0.13200537998E+04  0.17567579926E+03 0.  0.
          5    1    3    3  502    0  0.89664323766E+01 -0.66203720042E+02 -0.31140483888E+03  0.31852534143E+03  0.47000000000E+01 0. -1.
        -13    1    4    4    0    0  0.53091486624E+02  0.27315931948E+02 -0.49653820886E+03  0.50011504571E+03  0.00000000000E+00 0.  1.
         14    1    4    4    0    0 -0.13490570621E+02  0.48539301714E+02 -0.22742264028E+03  0.23293586374E+03  0.00000000000E+00 0. -1.
         -5    1    5    5    0  501  0.33508446474E+02  0.35804926966E+02 -0.13511814618E+03  0.14381867823E+03  0.47000000000E+01 0.  1.
         11    1    5    5    0    0 -0.61536341076E+02 -0.27121662553E+02 -0.71689866639E+03  0.72004583446E+03  0.00000000000E+00 0. -1.
        -12    1    5    5    0    0 -0.20539453778E+02 -0.18334778034E+02 -0.45535769723E+03  0.45618928711E+03  0.00000000000E+00 0.  1.
<mgrwt>
<rscale>  2 0.18322451E+03</rscale>
<asrwt>0</asrwt>
<pdfrwt beam="2">  1        2 0.36264394E+00 0.18322451E+03</pdfrwt>
<pdfrwt beam="1">  1       -2 0.22222959E-02 0.18322451E+03</pdfrwt>
<totfact> 0.31857642E+03</totfact>
</mgrwt>
</event>
<event>
12    1  0.4154313E-002  0.2157685E+03  0.7546771E-02  0.1137078E+00
          2   -1    0    0  502    0  0.00000000000E+00  0.00000000000E+00  0.19386195973E+04  0.19386195973E+04  0.00000000000E+00 0.  1.
         -2   -1    0    0    0  501 -0.00000000000E+00 -0.00000000000E+00 -0.25101493817E+02  0.25101493817E+02  0.00000000000E+00 0. -1.
          6    2    1    2  502    0 -0.37399680659E+02 -0.12605159310E+03  0.75915636470E+03  0.78964871639E+03  0.17302880976E+03 0.  0.
         24    2    3    3    0    0  0.33534336856E+02 -0.96938608162E+02  0.36560917692E+03  0.38867405418E+03  0.82920471786E+02 0.  0.
         -6    2    1    2    0  501  0.37399680659E+02  0.12605159310E+03  0.11543617388E+04  0.11740723747E+04  0.16913656281E+03 0.  0.
        -24    2    5    5    0    0 -0.18190332172E+02  0.10297331185E+03  0.51011713962E+03  0.52700510608E+03  0.81120247562E+02 0.  0.
          5    1    3    3  502    0 -0.70934017515E+02 -0.29112984934E+02  0.39354718777E+03  0.40097466221E+03  0.47000000000E+01 0. -1.
        -11    1    4    4    0    0 -0.12675209805E+02 -0.82483331572E+02  0.23535124932E+03  0.24970857311E+03  0.00000000000E+00 0.  1.
         12    1    4    4    0    0  0.46209546661E+02 -0.14455276590E+02  0.13025792761E+03  0.13896548107E+03  0.00000000000E+00 0. -1.
         -5    1    5    5    0  501  0.55590012831E+02  0.23078281244E+02  0.64424459918E+03  0.64706726866E+03  0.47000000000E+01 0.  1.
         13    1    6    6    0    0 -0.13378773653E+02  0.10954446975E+03  0.50597035042E+03  0.51786579144E+03  0.00000000000E+00 0. -1.
        -14    1    6    6    0    0 -0.48115585190E+01 -0.65711578968E+01  0.41467891975E+01  0.91393146425E+01  0.00000000000E+00 0.  1.
<mgrwt>
<rscale>  2 0.21576851E+03</rscale>
<asrwt>0</asrwt>
<pdfrwt beam="1">  1        2 0.29824905E+00 0.21576851E+03</pdfrwt>
<pdfrwt beam="2">  1       -2 0.38617698E-02 0.21576851E+03</pdfrwt>
<totfact> 0.23244801E+03</totfact>
</mgrwt>
</event>
<event>
12    1  0.4154313E-002  0.1747918E+03  0.7546771E-02  0.1172941E+00
         -2   -1    0    0    0  501 -0.00000000000E+00  0.00000000000E+00  0.93573470976E+02  0.93573470976E+02  0.00000000000E+00 0.  1.
          2   -1    0    0  502    0  0.00000000000E+00 -0.00000000000E+00 -0.59679330064E+03  0.59679330064E+03  0.00000000000E+00 0. -1.
          6    2    1    2  502    0  0.33122727559E+02 -0.92437660987E+01 -0.48559467943E+03  0.51684152465E+03  0.17360992662E+03 0.  0.
         24    2    3    3    0    0 -0.46585783042E+01 -0.60893873198E+02 -0.19494927908E+03  0.21919744293E+03  0.79451440709E+02 0.  0.
         -6    2    1    2    0  501 -0.33122727559E+02  0.92437660987E+01 -0.17625150236E+02  0.17352524697E+03  0.16916797310E+03 0.  0.
        -24    2    5    5    0    0  0.34043954937E+02 -0.18428406849E+02 -0.39617728177E+02  0.97480024383E+02  0.80213426065E+02 0.  0.
          5    1    3    3  502    0  0.37781305863E+02  0.51650107099E+02 -0.29064540036E+03  0.29764408172E+03  0.47000000000E+01 0. -1.
        -13    1    4    4    0    0 -0.61562630824E+01 -0.48375650055E+02 -0.38211386060E+02  0.61953314020E+02  0.00000000000E+00 0.  1.
         14    1    4    4    0    0  0.14976847782E+01 -0.12518223143E+02 -0.15673789302E+03  0.15724412891E+03  0.00000000000E+00 0. -1.
         -5    1    5    5    0  501 -0.67166682496E+02  0.27672172948E+02  0.21992577941E+02  0.76045222583E+02  0.47000000000E+01 0.  1.
         13    1    6    6    0    0  0.22504269887E+02  0.61389787826E+01 -0.59450894098E+02  0.63863432672E+02  0.00000000000E+00 0. -1.
        -14    1    6    6    0    0  0.11539685050E+02 -0.24567385632E+02  0.19833165921E+02  0.33616591711E+02  0.00000000000E+00 0.  1.
<mgrwt>
<rscale>  2 0.17479183E+03</rscale>
<asrwt>0</asrwt>
<pdfrwt beam="2">  1        2 0.91814350E-01 0.17479183E+03</pdfrwt>
<pdfrwt beam="1">  1       -2 0.14395919E-01 0.17479183E+03</pdfrwt>
<totfact> 0.18449571E+03</totfact>
</mgrwt>
</event>
<event>
12    1  0.4154313E-002  0.2037880E+03  0.7546771E-02  0.1146582E+00
          2   -1    0    0  502    0  0.00000000000E+00  0.00000000000E+00  0.76905391910E+03  0.76905391910E+03  0.00000000000E+00 0.  1.
         -2   -1    0    0    0  501 -0.00000000000E+00 -0.00000000000E+00 -0.54019636696E+02  0.54019636696E+02  0.00000000000E+00 0. -1.
          6    2    1    2  502    0  0.11048315219E+03  0.32820513893E+01  0.34789686254E+03  0.40247466042E+03  0.16951792394E+03 0.  0.
         24    2    3    3    0    0  0.15337503713E+02  0.31871742789E+02  0.24199806629E+03  0.25719317528E+03  0.79587802539E+02 0.  0.
         -6    2    1    2    0  501 -0.11048315219E+03 -0.32820513893E+01  0.36713741986E+03  0.42059889537E+03  0.17290531208E+03 0.  0.
        -24    2    5    5    0    0  0.75663913159E+01 -0.25890446520E+02  0.11632601985E+03  0.14243476643E+03  0.77642477398E+02 0.  0.
          5    1    3    3  502    0  0.95145648475E+02 -0.28589691400E+02  0.10589879625E+03  0.14528148514E+03  0.47000000000E+01 0. -1.
        -13    1    4    4    0    0  0.36277394590E+02  0.37926338578E+02  0.22019359712E+03  0.22636182701E+03  0.00000000000E+00 0.  1.
         14    1    4    4    0    0 -0.20939890877E+02 -0.60545957893E+01  0.21804469175E+02  0.30831348270E+02  0.00000000000E+00 0. -1.
         -5    1    5    5    0  501 -0.11804954350E+03  0.22608395130E+02  0.25081140001E+03  0.27816412894E+03  0.47000000000E+01 0.  1.
         11    1    6    6    0    0 -0.38590778501E+01  0.41549077888E+01 -0.10318781212E+02  0.11774250986E+02  0.00000000000E+00 0. -1.
        -12    1    6    6    0    0  0.11425469166E+02 -0.30045354309E+02  0.12664480106E+03  0.13066051545E+03  0.00000000000E+00 0.  1.
<mgrwt>
<rscale>  2 0.20378797E+03</rscale>
<asrwt>0</asrwt>
<pdfrwt beam="1">  1        2 0.11831598E+00 0.20378797E+03</pdfrwt>
<pdfrwt beam="2">  1       -2 0.83107139E-02 0.20378797E+03</pdfrwt>
<totfact> 0.32903034E+03</totfact>
</mgrwt>
</event>
<event>
12    1  0.4154313E-002  0.2014238E+03  0.7546771E-02  0.1148543E+00
         -1   -1    0    0    0  501 -0.00000000000E+00  0.00000000000E+00  0.54048708209E+02  0.54048708209E+02  0.00000000000E+00 0. -1.
          1   -1    0    0  502    0  0.00000000000E+00 -0.00000000000E+00 -0.75228125967E+03  0.75228125967E+03  0.00000000000E+00 0.  1.
          6    2    1    2  502    0  0.10234479169E+03  0.19043943705E+02 -0.32837241500E+03  0.38459047495E+03  0.17100953866E+03 0.  0.
         24    2    3    3    0    0  0.12581825692E+01 -0.29413432772E+02 -0.12364491668E+03  0.15113371569E+03  0.81771642672E+02 0.  0.
         -6    2    1    2    0  501 -0.10234479169E+03 -0.19043943705E+02 -0.36986013646E+03  0.42173949293E+03  0.17386935088E+03 0.  0.
        -24    2    5    5    0    0 -0.75892578748E+02  0.34860638267E+02 -0.93096734954E+02  0.13849844022E+03  0.59496792132E+02 0.  0.
          5    1    3    3  502    0  0.10108660912E+03  0.48457376477E+02 -0.20472749832E+03  0.23345675926E+03  0.47000000000E+01 0. -1.
        -11    1    4    4    0    0  0.22110860764E+02 -0.28832690501E+02 -0.12505378346E+03  0.13022543132E+03  0.00000000000E+00 0.  1.
         12    1    4    4    0    0 -0.20852678195E+02 -0.58074227136E+00  0.14088667786E+01  0.20908284365E+02  0.00000000000E+00 0. -1.
         -5    1    5    5    0  501 -0.26452212941E+02 -0.53904581972E+02 -0.27676340151E+03  0.28324105271E+03  0.47000000000E+01 0.  1.
         11    1    6    6    0    0 -0.75233146675E+02  0.92341188453E+01 -0.60214298121E+02  0.96804219988E+02  0.00000000000E+00 0. -1.
        -12    1    6    6    0    0 -0.65943207307E+00  0.25626519422E+02 -0.32882436833E+02  0.41694220228E+02  0.00000000000E+00 0.  1.
<mgrwt>
<rscale>  2 0.20142378E+03</rscale>
<asrwt>0</asrwt>
<pdfrwt beam="2">  1        1 0.11573558E+00 0.20142378E+03</pdfrwt>
<pdfrwt beam="1">  1       -1 0.83151856E-02 0.20142378E+03</pdfrwt>
<totfact> 0.20429926E+03</totfact>
</mgrwt>
</event>
<event>
12    1  0.4154313E-002  0.2120515E+03  0.7546771E-02  0.1139952E+00
         -2   -1    0    0    0  501 -0.00000000000E+00  0.00000000000E+00  0.21756470520E+02  0.21756470520E+02  0.00000000000E+00 0. -1.
          2   -1    0    0  502    0  0.00000000000E+00 -0.00000000000E+00 -0.21012601246E+04  0.21012601246E+04  0.00000000000E+00 0.  1.
          6    2    1    2  502    0 -0.65443005383E+02  0.10552084974E+03 -0.11684669278E+04  0.11872926829E+04  0.17009267087E+03 0.  0.
         24    2    3    3    0    0 -0.96453894906E+02  0.67166918556E+02 -0.10321840019E+04  0.10422829411E+04  0.84469916296E+02 0.  0.
         -6    2    1    2    0  501  0.65443005383E+02 -0.10552084974E+03 -0.91103672623E+03  0.93572391223E+03  0.17370632313E+03 0.  0.
        -24    2    5    5    0    0  0.81838531305E+02 -0.35339730279E+02 -0.34848720992E+03  0.36855704869E+03  0.80277773493E+02 0.  0.
          5    1    3    3  502    0  0.31010889523E+02  0.38353931182E+02 -0.13628292596E+03  0.14500974179E+03  0.47000000000E+01 0. -1.
        -11    1    4    4    0    0  0.91275922514E+01  0.31946199256E+02 -0.21419835677E+03  0.21675979477E+03  0.00000000000E+00 0.  1.
         12    1    4    4    0    0 -0.10558148716E+03  0.35220719300E+02 -0.81798564508E+03  0.82552314629E+03  0.00000000000E+00 0. -1.
         -5    1    5    5    0  501 -0.16395525922E+02 -0.70181119459E+02 -0.56254951631E+03  0.56716686354E+03  0.47000000000E+01 0.  1.
         11    1    6    6    0    0  0.75548982292E+02 -0.12708574581E+02 -0.32968651241E+03  0.33847060885E+03  0.00000000000E+00 0. -1.
        -12    1    6    6    0    0  0.62895490130E+01 -0.22631155698E+02 -0.18800697513E+02  0.30086439836E+02  0.00000000000E+00 0.  1.
<mgrwt>
<rscale>  2 0.21205152E+03</rscale>
<asrwt>0</asrwt>
<pdfrwt beam="2">  1        2 0.32327091E+00 0.21205152E+03</pdfrwt>
<pdfrwt beam="1">  1       -2 0.33471481E-02 0.21205152E+03</pdfrwt>
<totfact> 0.23681465E+03</totfact>
</mgrwt>
</event>
<event>
12    1  0.4154313E-002  0.1936709E+03  0.7546771E-02  0.1155191E+00
          2   -1    0    0  502    0  0.00000000000E+00  0.00000000000E+00  0.35757746338E+03  0.35757746338E+03  0.00000000000E+00 0. -1.
         -2   -1    0    0    0  501 -0.00000000000E+00 -0.00000000000E+00 -0.11715683648E+03  0.11715683648E+03  0.00000000000E+00 0.  1.
          6    2    1    2  502    0  0.77380748170E+02 -0.47363216923E+02  0.19587660872E+03  0.27409306519E+03  0.16890325051E+03 0.  0.
         24    2    3    3    0    0  0.83881745640E+02 -0.53741494515E+02  0.21654428087E+03  0.25102386353E+03  0.78722671424E+02 0.  0.
         -6    2    1    2    0  501 -0.77380748170E+02  0.47363216923E+02  0.44544018178E+02  0.20064123467E+03  0.17332536165E+03 0.  0.
        -24    2    5    5    0    0 -0.38737435779E+01 -0.32874287133E+02  0.24267783961E+02  0.89850655399E+02  0.79928031963E+02 0.  0.
          5    1    3    3  502    0 -0.65009974692E+01  0.63782775918E+01 -0.20667672150E+02  0.23069201660E+02  0.47000000000E+01 0. -1.
        -13    1    4    4    0    0 -0.14984690418E+02 -0.12487381410E+02  0.27141905972E+02  0.33423924084E+02  0.00000000000E+00 0.  1.
         14    1    4    4    0    0  0.98866436057E+02 -0.41254113106E+02  0.18940237490E+03  0.21759993944E+03  0.00000000000E+00 0. -1.
         -5    1    5    5    0  501 -0.73507004593E+02  0.80237504056E+02  0.20276234217E+02  0.11079057927E+03  0.47000000000E+01 0.  1.
         11    1    6    6    0    0 -0.76763805577E+01 -0.55852250326E+02  0.22640685254E+00  0.56377761085E+02  0.00000000000E+00 0. -1.
        -12    1    6    6    0    0  0.38026369798E+01  0.22977963193E+02  0.24041377108E+02  0.33472894314E+02  0.00000000000E+00 0.  1.
<mgrwt>
<rscale>  2 0.19367090E+03</rscale>
<asrwt>0</asrwt>
<pdfrwt beam="1">  1        2 0.55011917E-01 0.19367090E+03</pdfrwt>
<pdfrwt beam="2">  1       -2 0.18024129E-01 0.19367090E+03</pdfrwt>
<totfact> 0.22406587E+03</totfact>
</mgrwt>
</event>
<event>
12    1  0.4154313E-002  0.1824146E+03  0.7546771E-02  0.1165486E+00
          2   -1    0    0  502    0  0.00000000000E+00  0.00000000000E+00  0.88780484377E+03  0.88780484377E+03  0.00000000000E+00 0. -1.
         -2   -1    0    0    0  501 -0.00000000000E+00 -0.00000000000E+00 -0.39032307878E+02  0.39032307878E+02  0.00000000000E+00 0.  1.
          6    2    1    2  502    0  0.47169484135E+02  0.34371700918E+02  0.51658475681E+03  0.54781401161E+03  0.17272523351E+03 0.  0.
         24    2    3    3    0    0 -0.23653842981E+02  0.55125498540E+02  0.22186898959E+03  0.24396184817E+03  0.81812040340E+02 0.  0.
         -6    2    1    2    0  501 -0.47169484135E+02 -0.34371700918E+02  0.33218777908E+03  0.37902314004E+03  0.17292612889E+03 0.  0.
        -24    2    5    5    0    0 -0.39336867311E+01  0.29748820844E+02  0.25893934737E+03  0.27240138692E+03  0.79072522090E+02 0.  0.
          5    1    3    3  502    0  0.70823327116E+02 -0.20753797622E+02  0.29471576721E+03  0.30385216343E+03  0.47000000000E+01 0. -1.
        -13    1    4    4    0    0  0.27754263463E+02  0.33354981571E+01  0.73019010809E+02  0.78186959449E+02  0.00000000000E+00 0.  1.
         14    1    4    4    0    0 -0.51408106445E+02  0.51790000383E+02  0.14884997878E+03  0.16577488873E+03  0.00000000000E+00 0. -1.
         -5    1    5    5    0  501 -0.43235797404E+02 -0.64120521762E+02  0.73248431712E+02  0.10662175311E+03  0.47000000000E+01 0.  1.
         13    1    6    6    0    0 -0.16072391071E+02 -0.14646930107E+02  0.17773871384E+03  0.17906396821E+03  0.00000000000E+00 0. -1.
        -14    1    6    6    0    0  0.12138704340E+02  0.44395750950E+02  0.81200633533E+02  0.93337418712E+02  0.00000000000E+00 0.  1.
<mgrwt>
<rscale>  2 0.18241459E+03</rscale>
<asrwt>0</asrwt>
<pdfrwt beam="1">  1        2 0.13658535E+00 0.18241459E+03</pdfrwt>
<pdfrwt beam="2">  1       -2 0.60049711E-02 0.18241459E+03</pdfrwt>
<totfact> 0.45089171E+03</totfact>
</mgrwt>
</event>
<event>
12    1  0.4154313E-002  0.1926221E+03  0.7546771E-02  0.1156117E+00
          2   -1    0    0  502    0  0.00000000000E+00  0.00000000000E+00  0.12525267931E+03  0.12525267931E+03  0.00000000000E+00 0. -1.
         -2   -1    0    0    0  501 -0.00000000000E+00 -0.00000000000E+00 -0.50794587579E+03  0.50794587579E+03  0.00000000000E+00 0.  1.
          6    2    1    2  502    0 -0.65942771266E+02 -0.29577555626E+02  0.16150559265E+02  0.18775640405E+03  0.17253505678E+03 0.  0.
         24    2    3    3    0    0  0.11419071492E+02  0.29999791658E+02  0.25163833167E+02  0.89584900394E+02  0.79761226080E+02 0.  0.
         -6    2    1    2    0  501  0.65942771266E+02  0.29577555626E+02 -0.39884375575E+03  0.44544215104E+03  0.18471352833E+03 0.  0.
        -24    2    5    5    0    0  0.12547182956E+02  0.32837986817E+02 -0.69171134562E+02  0.11142441735E+03  0.79968679789E+02 0.  0.
          5    1    3    3  502    0 -0.77361842758E+02 -0.59577347284E+02 -0.90132739020E+01  0.98171503659E+02  0.47000000000E+01 0. -1.
        -11    1    4    4    0    0  0.17625033958E+02 -0.20302062207E+02  0.28005981845E+02  0.38822037182E+02  0.00000000000E+00 0.  1.
         12    1    4    4    0    0 -0.62059624662E+01  0.50301853865E+02 -0.28421486779E+01  0.50762863212E+02  0.00000000000E+00 0. -1.
         -5    1    5    5    0  501  0.53395588310E+02 -0.32604311910E+01 -0.32967262118E+03  0.33401773369E+03  0.47000000000E+01 0.  1.
         13    1    6    6    0    0  0.37486801411E+02  0.36627024700E+02 -0.68421346108E+02  0.86187469052E+02  0.00000000000E+00 0. -1.
        -14    1    6    6    0    0 -0.24939618455E+02 -0.37890378826E+01 -0.74978845418E+00  0.25236948299E+02  0.00000000000E+00 0.  1.
<mgrwt>
<rscale>  2 0.19262212E+03</rscale>
<asrwt>0</asrwt>
<pdfrwt beam="1">  1        2 0.19269643E-01 0.19262212E+03</pdfrwt>
<pdfrwt beam="2">  1       -2 0.78145518E-01 0.19262212E+03</pdfrwt>
<totfact> 0.43478331E+02</totfact>
</mgrwt>
</event>
<event>
12    1  0.4154313E-002  0.1846833E+03  0.7546771E-02  0.1163346E+00
          2   -1    0    0  502    0  0.00000000000E+00  0.00000000000E+00  0.15262949018E+04  0.15262949018E+04  0.00000000000E+00 0.  1.
         -2   -1    0    0    0  501 -0.00000000000E+00 -0.00000000000E+00 -0.22735431034E+02  0.22735431034E+02  0.00000000000E+00 0. -1.
          6    2    1    2  502    0 -0.24115042131E+02 -0.57471425386E+02  0.85574266559E+03  0.87559026647E+03  0.17458036836E+03 0.  0.
         24    2    3    3    0    0 -0.45891222382E+02 -0.99767257479E+02  0.58991863569E+03  0.60550205066E+03  0.81050766011E+02 0.  0.
         -6    2    1    2    0  501  0.24115042131E+02  0.57471425386E+02  0.64781680522E+03  0.67344006642E+03  0.17311964052E+03 0.  0.
        -24    2    5    5    0    0  0.18087966098E+02 -0.14750913028E+00  0.10773015555E+03  0.13023481385E+03  0.70909266303E+02 0.  0.
          5    1    3    3  502    0  0.21776180251E+02  0.42295832093E+02  0.26582402991E+03  0.27008821580E+03  0.47000000000E+01 0. -1.
        -13    1    4    4    0    0 -0.37447960737E+02 -0.96285939189E+01  0.98571084870E+02  0.10588351315E+03  0.00000000000E+00 0.  1.
         14    1    4    4    0    0 -0.84432616460E+01 -0.90138663560E+02  0.49134755082E+03  0.49961853752E+03  0.00000000000E+00 0. -1.
         -5    1    5    5    0  501  0.60270760332E+01  0.57618934517E+02  0.54008664967E+03  0.54320525257E+03  0.47000000000E+01 0.  1.
         11    1    6    6    0    0  0.43084751001E+02 -0.11791292977E+02  0.76376570489E+02  0.88480002705E+02  0.00000000000E+00 0. -1.
        -12    1    6    6    0    0 -0.24996784903E+02  0.11643783847E+02  0.31353585057E+02  0.41754811144E+02  0.00000000000E+00 0.  1.
<mgrwt>
<rscale>  2 0.18468328E+03</rscale>
<asrwt>0</asrwt>
<pdfrwt beam="1">  1        2 0.23481452E+00 0.18468328E+03</pdfrwt>
<pdfrwt beam="2">  1       -2 0.34977598E-02 0.18468328E+03</pdfrwt>
<totfact> 0.44195342E+03</totfact>
</mgrwt>
</event>
<event>
12    1  0.4154313E-002  0.1946228E+03  0.7546771E-02  0.1154357E+00
         -1   -1    0    0    0  501 -0.00000000000E+00  0.00000000000E+00  0.46073022605E+03  0.46073022605E+03  0.00000000000E+00 0.  1.
          1   -1    0    0  502    0  0.00000000000E+00 -0.00000000000E+00 -0.19479252940E+03  0.19479252940E+03  0.00000000000E+00 0. -1.
          6    2    1    2  502    0  0.78447494500E+02  0.42035046604E+02 -0.11631993081E+03  0.22638850959E+03  0.17262814497E+03 0.  0.
         24    2    3    3    0    0  0.25201135981E+02  0.87909010469E+02 -0.53797328063E+02  0.13220379156E+03  0.78870771644E+02 0.  0.
         -6    2    1    2    0  501 -0.78447494500E+02 -0.42035046604E+02  0.38225762746E+03  0.42913424586E+03  0.17353487455E+03 0.  0.
        -24    2    5    5    0    0  0.75643375793E+01 -0.66641652023E+02  0.21059437142E+03  0.23550087125E+03  0.81316308947E+02 0.  0.
          5    1    3    3  502    0  0.53246358519E+02 -0.45873963865E+02 -0.62522602748E+02  0.94184718031E+02  0.47000000000E+01 0. -1.
        -13    1    4    4    0    0  0.91717978087E+01  0.51071377515E+01  0.18399510940E+02  0.21183643074E+02  0.00000000000E+00 0.  1.
         14    1    4    4    0    0  0.16029338173E+02  0.82801872717E+02 -0.72196839003E+02  0.11102014849E+03  0.00000000000E+00 0. -1.
         -5    1    5    5    0  501 -0.86011832079E+02  0.24606605419E+02  0.17166325604E+03  0.19363337461E+03  0.47000000000E+01 0.  1.
         13    1    6    6    0    0 -0.74103566335E+01 -0.26000672648E+01 -0.55208516570E+01  0.95996634439E+01  0.00000000000E+00 0. -1.
        -14    1    6    6    0    0  0.14974694213E+02 -0.64041584758E+02  0.21611522307E+03  0.22590120781E+03  0.00000000000E+00 0.  1.
<mgrwt>
<rscale>  2 0.19462282E+03</rscale>
<asrwt>0</asrwt>
<pdfrwt beam="2">  1        1 0.29968082E-01 0.19462282E+03</pdfrwt>
<pdfrwt beam="1">  1       -1 0.70881573E-01 0.19462282E+03</pdfrwt>
<totfact> 0.32027354E+02</totfact>
</mgrwt>
</event>
<event>
12    1  0.4154313E-002  0.1966069E+03  0.7546771E-02  0.1152634E+00
          2   -1    0    0  502    0  0.00000000000E+00  0.00000000000E+00  0.83846244082E+03  0.83846244082E+03  0.00000000000E+00 0.  1.
         -2   -1    0    0    0  501 -0.00000000000E+00 -0.00000000000E+00 -0.61591317861E+02  0.61591317861E+02  0.00000000000E+00 0. -1.
          6    2    1    2  502    0 -0.29375215927E+02 -0.88650891133E+02  0.16241042974E+03  0.25483537951E+03  0.17274848524E+03 0.  0.
         24    2    3    3    0    0  0.19725960336E+02  0.10256388167E+02  0.50882173887E+02  0.97818764902E+02  0.80530790000E+02 0.  0.
         -6    2    1    2    0  501  0.29375215927E+02  0.88650891133E+02  0.61446069322E+03  0.64521837917E+03  0.17327125988E+03 0.  0.
        -24    2    5    5    0    0 -0.31282815826E+02  0.23614142119E+02  0.18404596702E+03  0.20568669423E+03  0.83053331856E+02 0.  0.
          5    1    3    3  502    0 -0.49101176262E+02 -0.98907279300E+02  0.11152825585E+03  0.15701661460E+03  0.47000000000E+01 0. -1.
        -13    1    4    4    0    0  0.17356184758E+02 -0.86145857222E+01  0.68928668719E+02  0.71600346423E+02  0.00000000000E+00 0.  1.
         14    1    4    4    0    0  0.23697755780E+01  0.18870973889E+02 -0.18046494832E+02  0.26218418479E+02  0.00000000000E+00 0. -1.
         -5    1    5    5    0  501  0.60658031752E+02  0.65036749014E+02  0.43041472621E+03  0.43953168495E+03  0.47000000000E+01 0.  1.
         13    1    6    6    0    0 -0.24041958809E+02  0.52704751290E+02  0.90481506272E+02  0.10743700279E+03  0.00000000000E+00 0. -1.
        -14    1    6    6    0    0 -0.72408570171E+01 -0.29090609170E+02  0.93564460745E+02  0.98249691433E+02  0.00000000000E+00 0.  1.
<mgrwt>
<rscale>  2 0.19660687E+03</rscale>
<asrwt>0</asrwt>
<pdfrwt beam="1">  1        2 0.12899421E+00 0.19660687E+03</pdfrwt>
<pdfrwt beam="2">  1       -2 0.94755880E-02 0.19660687E+03</pdfrwt>
<totfact> 0.23983478E+03</totfact>
</mgrwt>
</event>
<event>
12    1  0.4154313E-002  0.1750691E+03  0.7546771E-02  0.1172662E+00
         -2   -1    0    0    0  501 -0.00000000000E+00  0.00000000000E+00  0.18564557502E+02  0.18564557502E+02  0.00000000000E+00 0. -1.
          2   -1    0    0  502    0  0.00000000000E+00 -0.00000000000E+00 -0.17286121621E+04  0.17286121621E+04  0.00000000000E+00 0.  1.
          6    2    1    2  502    0  0.78082837140E+01 -0.24617425489E+02 -0.10398752628E+04  0.10544980793E+04  0.17308567324E+03 0.  0.
         24    2    3    3    0    0  0.67507657889E+02 -0.30023610432E+02 -0.77558587255E+03  0.78345525266E+03  0.82522640319E+02 0.  0.
         -6    2    1    2    0  501 -0.78082837140E+01  0.24617425489E+02 -0.67017234184E+03  0.69267864028E+03  0.17322166144E+03 0.  0.
        -24    2    5    5    0    0  0.46612376373E+02  0.46339791339E+02 -0.28460424032E+03  0.30265515337E+03  0.79249469168E+02 0.  0.
          5    1    3    3  502    0 -0.59699374175E+02  0.54061849429E+01 -0.26428939023E+03  0.27104282669E+03  0.47000000000E+01 0. -1.
        -11    1    4    4    0    0 -0.13811149554E+02  0.70950443672E+01 -0.23643706705E+03  0.23694635296E+03  0.00000000000E+00 0.  1.
         12    1    4    4    0    0  0.81318807443E+02 -0.37118654799E+02 -0.53914880550E+03  0.54650889970E+03  0.00000000000E+00 0. -1.
         -5    1    5    5    0  501 -0.54420660087E+02 -0.21722365850E+02 -0.38556810153E+03  0.39002348690E+03  0.47000000000E+01 0.  1.
         11    1    6    6    0    0 -0.83076319962E+00  0.18320389509E+02 -0.69905797246E+01  0.19626386426E+02  0.00000000000E+00 0. -1.
        -12    1    6    6    0    0  0.47443139573E+02  0.28019401830E+02 -0.27761366059E+03  0.28302876695E+03  0.00000000000E+00 0.  1.
<mgrwt>
<rscale>  2 0.17506906E+03</rscale>
<asrwt>0</asrwt>
<pdfrwt beam="2">  1        2 0.26594030E+00 0.17506906E+03</pdfrwt>
<pdfrwt beam="1">  1       -2 0.28560861E-02 0.17506906E+03</pdfrwt>
<totfact> 0.46785002E+03</totfact>
</mgrwt>
</event>
<event>
12    1  0.4154313E-002  0.1767967E+03  0.7546771E-02  0.1170940E+00
          1   -1    0    0  502    0  0.00000000000E+00  0.00000000000E+00  0.10022195324E+04  0.10022195324E+04  0.00000000000E+00 0.  1.
         -1   -1    0    0    0  501 -0.00000000000E+00 -0.00000000000E+00 -0.31358146945E+02  0.31358146945E+02  0.00000000000E+00 0. -1.
          6    2    1    2  502    0 -0.73054220738E+01  0.32848509891E+02  0.52397985952E+03  0.55305744680E+03  0.17373903556E+03 0.  0.
         24    2    3    3    0    0 -0.81877837685E+01  0.60495836654E+02  0.16683033970E+03  0.19480750228E+03  0.79942570907E+02 0.  0.
         -6    2    1    2    0  501  0.73054220738E+01 -0.32848509891E+02  0.44688152591E+03  0.48052023252E+03  0.17339031655E+03 0.  0.
        -24    2    5    5    0    0  0.42718039689E+02 -0.35615985945E+02  0.13775999968E+03  0.16932910092E+03  0.81247754048E+02 0.  0.
          5    1    3    3  502    0  0.88236169471E+00 -0.27647326762E+02  0.35714951982E+03  0.35824994452E+03  0.47000000000E+01 0. -1.
        -11    1    4    4    0    0 -0.30890226385E+02  0.14381363356E+02  0.12178719362E+03  0.12646402741E+03  0.00000000000E+00 0.  1.
         12    1    4    4    0    0  0.22702442617E+02  0.46114473298E+02  0.45043146079E+02  0.68343474868E+02  0.00000000000E+00 0. -1.
         -5    1    5    5    0  501 -0.35412617616E+02  0.27674760534E+01  0.30912152623E+03  0.31119113160E+03  0.47000000000E+01 0.  1.
         13    1    6    6    0    0 -0.12916472880E+02  0.11753450195E+01 -0.32230358754E+01  0.13364305737E+02  0.00000000000E+00 0. -1.
        -14    1    6    6    0    0  0.55634512570E+02 -0.36791330964E+02  0.14098303555E+03  0.15596479518E+03  0.00000000000E+00 0.  1.
<mgrwt>
<rscale>  2 0.17679667E+03</rscale>
<asrwt>0</asrwt>
<pdfrwt beam="1">  1        1 0.15418760E+00 0.17679667E+03</pdfrwt>
<pdfrwt beam="2">  1       -1 0.48243311E-02 0.17679667E+03</pdfrwt>
<totfact> 0.29329445E+03</totfact>
</mgrwt>
</event>
<event>
12    1  0.4154313E-002  0.1761440E+03  0.7546771E-02  0.1171588E+00
         -2   -1    0    0    0  501 -0.00000000000E+00  0.00000000000E+00  0.15080432284E+03  0.15080432284E+03  0.00000000000E+00 0. -1.
          2   -1    0    0  502    0  0.00000000000E+00 -0.00000000000E+00 -0.24256153120E+03  0.24256153120E+03  0.00000000000E+00 0.  1.
          6    2    1    2  502    0  0.20587494352E+02  0.28868238344E+02  0.30900217247E+02  0.17815415084E+03  0.17183380903E+03 0.  0.
         24    2    3    3    0    0  0.12998236232E+02  0.83113285055E+02  0.38960982780E+02  0.12259168264E+03  0.80212157276E+02 0.  0.
         -6    2    1    2    0  501 -0.20587494352E+02 -0.28868238344E+02 -0.12265742561E+03  0.21521170320E+03  0.17324552817E+03 0.  0.
        -24    2    5    5    0    0 -0.14993975010E+02 -0.99912746911E+01  0.93083988014E+01  0.81702542364E+02  0.79145525988E+02 0.  0.
          5    1    3    3  502    0  0.75892581200E+01 -0.54245046711E+02 -0.80607655332E+01  0.55562468200E+02  0.47000000000E+01 0. -1.
        -13    1    4    4    0    0 -0.11295176125E+02  0.71119282818E+02 -0.36430907799E+01  0.72102742685E+02  0.00000000000E+00 0.  1.
         14    1    4    4    0    0  0.24293412356E+02  0.11994002237E+02  0.42604073560E+02  0.50488939952E+02  0.00000000000E+00 0. -1.
         -5    1    5    5    0  501 -0.55935193424E+01 -0.18876963653E+02 -0.13196582441E+03  0.13350916084E+03  0.47000000000E+01 0.  1.
         11    1    6    6    0    0 -0.18118596898E+02 -0.27679373286E+02  0.36406387520E+02  0.49192035040E+02  0.00000000000E+00 0. -1.
        -12    1    6    6    0    0  0.31246218888E+01  0.17688098595E+02 -0.27097988719E+02  0.32510507324E+02  0.00000000000E+00 0.  1.
<mgrwt>
<rscale>  2 0.17614397E+03</rscale>
<asrwt>0</asrwt>
<pdfrwt beam="2">  1        2 0.37317158E-01 0.17614397E+03</pdfrwt>
<pdfrwt beam="1">  1       -2 0.23200665E-01 0.17614397E+03</pdfrwt>
<totfact> 0.21991408E+03</totfact>
</mgrwt>
</event>
<event>
12    1  0.4154313E-002  0.2288059E+03  0.7546771E-02  0.1127483E+00
         -2   -1    0    0    0  501 -0.00000000000E+00  0.00000000000E+00  0.71843771618E+02  0.71843771618E+02  0.00000000000E+00 0. -1.
          2   -1    0    0  502    0  0.00000000000E+00 -0.00000000000E+00 -0.92121739530E+03  0.92121739530E+03  0.00000000000E+00 0.  1.
          6    2    1    2  502    0  0.13382795300E+03 -0.67404023604E+02 -0.65085581132E+03  0.68971813040E+03  0.17217604035E+03 0.  0.
         24    2    3    3    0    0  0.76299187601E+02  0.61028815091E+01 -0.50018585152E+03  0.51241513907E+03  0.80774856846E+02 0.  0.
         -6    2    1    2    0  501 -0.13382795300E+03  0.67404023604E+02 -0.19851781236E+03  0.30334303652E+03  0.17365037454E+03 0.  0.
        -24    2    5    5    0    0 -0.11710724779E+03 -0.26590494095E+01 -0.74354183161E+02  0.15972161403E+03  0.79128196020E+02 0.  0.
          5    1    3    3  502    0  0.57528765395E+02 -0.73506905113E+02 -0.15066995981E+03  0.17730299133E+03  0.47000000000E+01 0. -1.
        -11    1    4    4    0    0  0.33719578656E+02 -0.23755422912E+02 -0.36898510847E+03  0.37128336937E+03  0.00000000000E+00 0.  1.
         12    1    4    4    0    0  0.42579608945E+02  0.29858304421E+02 -0.13120074305E+03  0.14113176969E+03  0.00000000000E+00 0. -1.
         -5    1    5    5    0  501 -0.16720705208E+02  0.70063073014E+02 -0.12416362920E+03  0.14362142249E+03  0.47000000000E+01 0.  1.
         13    1    6    6    0    0 -0.98469490312E+02  0.15101805576E+02 -0.22949192500E+02  0.10222998822E+03  0.00000000000E+00 0. -1.
        -14    1    6    6    0    0 -0.18637757475E+02 -0.17760854986E+02 -0.51404990661E+02  0.57491625811E+02  0.00000000000E+00 0.  1.
<mgrwt>
<rscale>  2 0.22880586E+03</rscale>
<asrwt>0</asrwt>
<pdfrwt beam="2">  1        2 0.14172575E+00 0.22880586E+03</pdfrwt>
<pdfrwt beam="1">  1       -2 0.11052888E-01 0.22880586E+03</pdfrwt>
<totfact> 0.16611731E+03</totfact>
</mgrwt>
</event>
<event>
12    1  0.4154313E-002  0.2056705E+03  0.7546771E-02  0.1145041E+00
          2   -1    0    0  502    0  0.00000000000E+00  0.00000000000E+00  0.13834715860E+04  0.13834715860E+04  0.00000000000E+00 0. -1.
         -2   -1    0    0    0  501 -0.00000000000E+00 -0.00000000000E+00 -0.34559819909E+02  0.34559819909E+02  0.00000000000E+00 0.  1.
          6    2    1    2  502    0 -0.35546195811E+01  0.10873531835E+03  0.43924616635E+03  0.48581520676E+03  0.17675750532E+03 0.  0.
         24    2    3    3    0    0  0.16250316987E+02  0.64172114600E+02  0.10723066816E+03  0.15020457570E+03  0.81736560197E+02 0.  0.
         -6    2    1    2    0  501  0.35546195811E+01 -0.10873531835E+03  0.90966559975E+03  0.93221619915E+03  0.17233552690E+03 0.  0.
        -24    2    5    5    0    0  0.13231101924E+02 -0.14406825845E+03  0.70920768846E+03  0.72838412326E+03  0.81468770047E+02 0.  0.
          5    1    3    3  502    0 -0.19804936568E+02  0.44563203745E+02  0.33201549819E+03  0.33561063106E+03  0.47000000000E+01 0. -1.
        -11    1    4    4    0    0  0.20659566438E+02  0.66564252896E+02  0.11872079911E+03  0.13766715509E+03  0.00000000000E+00 0.  1.
         12    1    4    4    0    0 -0.44092494512E+01 -0.23921382961E+01 -0.11490130950E+02  0.12537420611E+02  0.00000000000E+00 0. -1.
         -5    1    5    5    0  501 -0.96764823430E+01  0.35332940108E+02  0.20045791129E+03  0.20383207590E+03  0.47000000000E+01 0.  1.
         11    1    6    6    0    0  0.40682932594E+02 -0.52214717987E+02  0.37068180899E+03  0.37654545714E+03  0.00000000000E+00 0. -1.
        -12    1    6    6    0    0 -0.27451830670E+02 -0.91853540467E+02  0.33852587947E+03  0.35183866612E+03  0.00000000000E+00 0.  1.
<mgrwt>
<rscale>  2 0.20567046E+03</rscale>
<asrwt>0</asrwt>
<pdfrwt beam="1">  1        2 0.21284174E+00 0.20567046E+03</pdfrwt>
<pdfrwt beam="2">  1       -2 0.53168964E-02 0.20567046E+03</pdfrwt>
<totfact> 0.28075931E+03</totfact>
</mgrwt>
</event>
<event>
12    1  0.4154313E-002  0.1978448E+03  0.7546771E-02  0.1151570E+00
         -2   -1    0    0    0  501 -0.00000000000E+00  0.00000000000E+00  0.64172551234E+02  0.64172551234E+02  0.00000000000E+00 0. -1.
          2   -1    0    0  502    0  0.00000000000E+00 -0.00000000000E+00 -0.61359934372E+03  0.61359934372E+03  0.00000000000E+00 0.  1.
          6    2    1    2  502    0 -0.10525884960E+03 -0.29098597416E+02 -0.24217577071E+03  0.30876732858E+03  0.15735947854E+03 0.  0.
         24    2    3    3    0    0 -0.68172251262E+00 -0.36265699935E+02 -0.13182918373E+03  0.15649716693E+03  0.76136481647E+02 0.  0.
         -6    2    1    2    0  501  0.10525884960E+03  0.29098597416E+02 -0.30725102177E+03  0.36900456637E+03  0.17272818482E+03 0.  0.
        -24    2    5    5    0    0  0.59441181989E+02  0.64324895573E+02 -0.10494334756E+03  0.15855116110E+03  0.80339393710E+02 0.  0.
          5    1    3    3  502    0 -0.10457712709E+03  0.71671025194E+01 -0.11034658698E+03  0.15227016165E+03  0.47000000000E+01 0. -1.
        -13    1    4    4    0    0 -0.19491767584E+02 -0.31505140072E+01 -0.11167798945E+03  0.11340999987E+03  0.00000000000E+00 0.  1.
         14    1    4    4    0    0  0.18810045071E+02 -0.33115185928E+02 -0.20151194275E+02  0.43087167061E+02  0.00000000000E+00 0. -1.
         -5    1    5    5    0  501  0.45817667616E+02 -0.35226298157E+02 -0.20230767421E+03  0.21045340527E+03  0.47000000000E+01 0.  1.
         13    1    6    6    0    0  0.59678177166E+02  0.55076023547E+02 -0.11757472607E+03  0.14289390963E+03  0.00000000000E+00 0. -1.
        -14    1    6    6    0    0 -0.23699517687E+00  0.92488720257E+01  0.12631378508E+02  0.15657251466E+02  0.00000000000E+00 0.  1.
<mgrwt>
<rscale>  2 0.19784481E+03</rscale>
<asrwt>0</asrwt>
<pdfrwt beam="2">  1        2 0.94399904E-01 0.19784481E+03</pdfrwt>
<pdfrwt beam="1">  1       -2 0.98726997E-02 0.19784481E+03</pdfrwt>
<totfact> 0.32879276E+03</totfact>
</mgrwt>
</event>
<event>
12    1  0.4154313E-002  0.1801545E+03  0.7546771E-02  0.1167654E+00
         -2   -1    0    0    0  501 -0.00000000000E+00  0.00000000000E+00  0.35771399616E+03  0.35771399616E+03  0.00000000000E+00 0.  1.
          2   -1    0    0  502    0  0.00000000000E+00 -0.00000000000E+00 -0.90962341232E+02  0.90962341232E+02  0.00000000000E+00 0. -1.
          6    2    1    2  502    0 -0.24765680315E+02  0.47699493772E+02  0.12260325626E+03  0.21849224857E+03  0.17268098799E+03 0.  0.
         24    2    3    3    0    0 -0.11462222134E+02  0.97794656908E+02  0.85542448717E+02  0.15460092815E+03  0.82998548157E+02 0.  0.
         -6    2    1    2    0  501  0.24765680315E+02 -0.47699493772E+02  0.14414839867E+03  0.23018408882E+03  0.17122316806E+03 0.  0.
        -24    2    5    5    0    0 -0.21376280452E+02 -0.72288598899E+02  0.13903329505E+03  0.17743981028E+03  0.80449003978E+02 0.  0.
          5    1    3    3  502    0 -0.13303458180E+02 -0.50095163136E+02  0.37060807547E+02  0.63891320422E+02  0.47000000000E+01 0. -1.
        -13    1    4    4    0    0  0.19174893871E+02  0.88543181740E+02  0.82365094922E+02  0.12244010964E+03  0.00000000000E+00 0.  1.
         14    1    4    4    0    0 -0.30637116006E+02  0.92514751682E+01  0.31773537953E+01  0.32160818508E+02  0.00000000000E+00 0. -1.
         -5    1    5    5    0  501  0.46141960767E+02  0.24589105127E+02  0.51151036116E+01  0.52744278545E+02  0.47000000000E+01 0.  1.
         11    1    6    6    0    0  0.75069156787E+01 -0.56255403799E+02  0.31421659232E+02  0.64871757403E+02  0.00000000000E+00 0. -1.
        -12    1    6    6    0    0 -0.28883196131E+02 -0.16033195099E+02  0.10761163582E+03  0.11256805287E+03  0.00000000000E+00 0.  1.
<mgrwt>
<rscale>  2 0.18015455E+03</rscale>
<asrwt>0</asrwt>
<pdfrwt beam="2">  1        2 0.13994207E-01 0.18015455E+03</pdfrwt>
<pdfrwt beam="1">  1       -2 0.55032922E-01 0.18015455E+03</pdfrwt>
<totfact> 0.13203999E+03</totfact>
</mgrwt>
</event>
<event>
12    1  0.4154313E-002  0.1777048E+03  0.7546771E-02  0.1170043E+00
          1   -1    0    0  502    0  0.00000000000E+00  0.00000000000E+00  0.39037221991E+04  0.39037221991E+04  0.00000000000E+00 0. -1.
         -1   -1    0    0    0  501 -0.00000000000E+00 -0.00000000000E+00 -0.96252964658E+01  0.96252964658E+01  0.00000000000E+00 0.  1.
          6    2    1    2  502    0 -0.69414669774E+01  0.41364100372E+02  0.11690846180E+04  0.11825726192E+04  0.17308952283E+03 0.  0.
         24    2    3    3    0    0 -0.19167312276E+02 -0.40176843476E+02  0.70876990355E+03  0.71490807795E+03  0.82202306118E+02 0.  0.
         -6    2    1    2    0  501  0.69414669774E+01 -0.41364100372E+02  0.27250122847E+04  0.27307748764E+04  0.17227971770E+03 0.  0.
        -24    2    5    5    0    0 -0.66135356905E+02 -0.15656485255E+02  0.15219117276E+04  0.15251737218E+04  0.72942195684E+02 0.  0.
          5    1    3    3  502    0  0.12225845299E+02  0.81540943847E+02  0.46031471444E+03  0.46766454126E+03  0.47000000000E+01 0. -1.
        -13    1    4    4    0    0 -0.33226839818E+02 -0.88849807141E+01  0.11221648810E+03  0.11736910142E+03  0.00000000000E+00 0.  1.
         14    1    4    4    0    0  0.14059527542E+02 -0.31291862762E+02  0.59655341545E+03  0.59753897653E+03  0.00000000000E+00 0. -1.
         -5    1    5    5    0  501  0.73076823882E+02 -0.25707615116E+02  0.12031005570E+04  0.12056011546E+04  0.47000000000E+01 0.  1.
         13    1    6    6    0    0  0.31447063080E+01 -0.10271064618E+02  0.76585950358E+03  0.76593482958E+03  0.00000000000E+00 0. -1.
        -14    1    6    6    0    0 -0.69280063213E+02 -0.53854206379E+01  0.75605222406E+03  0.75923889219E+03  0.00000000000E+00 0.  1.
<mgrwt>
<rscale>  2 0.17770483E+03</rscale>
<asrwt>0</asrwt>
<pdfrwt beam="1">  1        1 0.60057138E+00 0.17770483E+03</pdfrwt>
<pdfrwt beam="2">  1       -1 0.14808180E-02 0.17770483E+03</pdfrwt>
<totfact> 0.16568943E+02</totfact>
</mgrwt>
</event>
<event>
11    1  0.4154313E-002  0.1800362E+03  0.7546771E-02  0.1167768E+00
          2   -1    0    0  502    0  0.00000000000E+00  0.00000000000E+00  0.13544144464E+04  0.13544144464E+04  0.00000000000E+00 0. -1.
         -2   -1    0    0    0  501 -0.00000000000E+00 -0.00000000000E+00 -0.25073548642E+02  0.25073548642E+02  0.00000000000E+00 0.  1.
          6    2    1    2  502    0  0.82667822615E-01 -0.45431001392E+02  0.52149776518E+03  0.55207037838E+03  0.17537902063E+03 0.  0.
         24    2    3    3    0    0  0.12552033235E+02 -0.68358380445E+02  0.17707637378E+03  0.20662959527E+03  0.80680392746E+02 0.  0.
         -6    2    1    2    0  501 -0.82667822615E-01  0.45431001392E+02  0.80784313256E+03  0.82741761664E+03  0.17304740040E+03 0.  0.
          5    1    3    3  502    0 -0.12469365412E+02  0.22927379053E+02  0.34442139140E+03  0.34544078311E+03  0.47000000000E+01 0. -1.
        -13    1    4    4    0    0 -0.15614611789E+02 -0.50292935014E+02  0.16121597817E+03  0.16959890044E+03  0.00000000000E+00 0.  1.
         14    1    4    4    0    0  0.28166645024E+02 -0.18065445430E+02  0.15860395614E+02  0.37030694829E+02  0.00000000000E+00 0. -1.
         -5    1    5    5    0  501 -0.68740151899E+01 -0.15146607906E+02  0.31547874614E+02  0.35972631382E+02  0.47000000000E+01 0.  1.
         11    1    5    5    0    0  0.19193002465E+02  0.18908275995E+02  0.71908686630E+03  0.71959142264E+03  0.00000000000E+00 0. -1.
        -12    1    5    5    0    0 -0.12401655098E+02  0.41669333303E+02  0.57208391637E+02  0.71853562617E+02  0.00000000000E+00 0.  1.
<mgrwt>
<rscale>  2 0.18003622E+03</rscale>
<asrwt>0</asrwt>
<pdfrwt beam="1">  1        2 0.20837140E+00 0.18003622E+03</pdfrwt>
<pdfrwt beam="2">  1       -2 0.38574701E-02 0.18003622E+03</pdfrwt>
<totfact> 0.47124201E+03</totfact>
</mgrwt>
</event>
<event>
12    1  0.4154313E-002  0.1822613E+03  0.7546771E-02  0.1165632E+00
          3   -1    0    0  502    0  0.00000000000E+00  0.00000000000E+00  0.62551825202E+02  0.62551825202E+02  0.00000000000E+00 0. -1.
         -3   -1    0    0    0  501 -0.00000000000E+00 -0.00000000000E+00 -0.55086546781E+03  0.55086546781E+03  0.00000000000E+00 0.  1.
          6    2    1    2  502    0 -0.55188811608E+02  0.19518497403E+02 -0.30265451162E+03  0.35343850919E+03  0.17289375265E+03 0.  0.
         24    2    3    3    0    0 -0.40771193469E+02 -0.48614184388E+02 -0.23528724825E+03  0.25643145679E+03  0.79820885128E+02 0.  0.
         -6    2    1    2    0  501  0.55188811608E+02 -0.19518497403E+02 -0.18565913099E+03  0.25997878382E+03  0.17231621645E+03 0.  0.
        -24    2    5    5    0    0 -0.22930471153E+01  0.31918532753E+02 -0.15596819695E+03  0.17719247023E+03  0.77762730467E+02 0.  0.
          5    1    3    3  502    0 -0.14417618139E+02  0.68132681791E+02 -0.67367263372E+02  0.97007052399E+02  0.47000000000E+01 0. -1.
        -11    1    4    4    0    0  0.80630969249E+01  0.12777482257E+02 -0.10633818088E+02  0.18475813162E+02  0.00000000000E+00 0.  1.
         12    1    4    4    0    0 -0.48834290394E+02 -0.61391666645E+02 -0.22465343016E+03  0.23795564363E+03  0.00000000000E+00 0. -1.
         -5    1    5    5    0  501  0.57481858724E+02 -0.51437030156E+02 -0.29690934037E+02  0.82786313589E+02  0.47000000000E+01 0.  1.
         11    1    6    6    0    0  0.15073940953E+02  0.26287751433E+02 -0.12850721641E+02  0.32915203446E+02  0.00000000000E+00 0. -1.
        -12    1    6    6    0    0 -0.17366988068E+02  0.56307813202E+01 -0.14311747531E+03  0.14427726679E+03  0.00000000000E+00 0.  1.
<mgrwt>
<rscale>  2 0.18226133E+03</rscale>
<asrwt>0</asrwt>
<pdfrwt beam="1">  1        3 0.96233580E-02 0.18226133E+03</pdfrwt>
<pdfrwt beam="2">  1       -3 0.84748531E-01 0.18226133E+03</pdfrwt>
<totfact> 0.24963493E+02</totfact>
</mgrwt>
</event>
<event>
12    1  0.4154313E-002  0.1996410E+03  0.7546771E-02  0.1150042E+00
         -2   -1    0    0    0  501 -0.00000000000E+00  0.00000000000E+00  0.15810963322E+03  0.15810963322E+03  0.00000000000E+00 0.  1.
          2   -1    0    0  502    0  0.00000000000E+00 -0.00000000000E+00 -0.25651457201E+03  0.25651457201E+03  0.00000000000E+00 0. -1.
          6    2    1    2  502    0 -0.85145729040E+02 -0.50537651325E+02 -0.21731340207E+02  0.19985149828E+03  0.17223391316E+03 0.  0.
         24    2    3    3    0    0 -0.10945022175E+03 -0.80225938959E+02 -0.51676042323E+01  0.15779736486E+03  0.80360138746E+02 0.  0.
         -6    2    1    2    0  501  0.85145729040E+02  0.50537651325E+02 -0.76673598585E+02  0.21477270694E+03  0.17448388336E+03 0.  0.
        -24    2    5    5    0    0  0.52158724972E+02 -0.36120423425E+02 -0.58211449551E+02  0.12011170492E+03  0.83743842884E+02 0.  0.
          5    1    3    3  502    0  0.24304492712E+02  0.29688287634E+02 -0.16563735975E+02  0.42054133424E+02  0.47000000000E+01 0. -1.
        -13    1    4    4    0    0 -0.10644789536E+03 -0.35273551268E+02  0.21154626688E+01  0.11215994396E+03  0.00000000000E+00 0.  1.
         14    1    4    4    0    0 -0.30023263878E+01 -0.44952387691E+02 -0.72830669011E+01  0.45637420899E+02  0.00000000000E+00 0. -1.
         -5    1    5    5    0  501  0.32987004068E+02  0.86658074750E+02 -0.18462149034E+02  0.94661002022E+02  0.47000000000E+01 0.  1.
         13    1    6    6    0    0 -0.14198724231E+00  0.24780784547E+02 -0.14247050228E+02  0.28584714156E+02  0.00000000000E+00 0. -1.
        -14    1    6    6    0    0  0.52300712214E+02 -0.60901207972E+02 -0.43964399323E+02  0.91526990765E+02  0.00000000000E+00 0.  1.
<mgrwt>
<rscale>  2 0.19964096E+03</rscale>
<asrwt>0</asrwt>
<pdfrwt beam="2">  1        2 0.39463780E-01 0.19964096E+03</pdfrwt>
<pdfrwt beam="1">  1       -2 0.24324559E-01 0.19964096E+03</pdfrwt>
<totfact> 0.19144557E+03</totfact>
</mgrwt>
</event>
<event>
12    1  0.4154313E-002  0.1986765E+03  0.7546771E-02  0.1150860E+00
          1   -1    0    0  502    0  0.00000000000E+00  0.00000000000E+00  0.43999853197E+03  0.43999853197E+03  0.00000000000E+00 0. -1.
         -1   -1    0    0    0  501 -0.00000000000E+00 -0.00000000000E+00 -0.95527475365E+02  0.95527475365E+02  0.00000000000E+00 0.  1.
          6    2    1    2  502    0 -0.63689997220E+02 -0.73407803125E+02  0.10631478975E+03  0.22550168070E+03  0.17350231172E+03 0.  0.
         24    2    3    3    0    0 -0.55290987153E+02  0.17180238309E+02  0.92372360678E+02  0.13334302430E+03  0.76781868061E+02 0.  0.
         -6    2    1    2    0  501  0.63689997220E+02  0.73407803125E+02  0.23815626685E+03  0.31002432664E+03  0.17306517374E+03 0.  0.
        -24    2    5    5    0    0  0.92992807753E+02  0.29769360507E+01  0.14061713286E+03  0.18610849068E+03  0.78782407972E+02 0.  0.
          5    1    3    3  502    0 -0.83990100665E+01 -0.90588041433E+02  0.13942429072E+02  0.92158656399E+02  0.47000000000E+01 0. -1.
        -11    1    4    4    0    0 -0.21727210874E+02 -0.77363489733E+01 -0.81615678193E+01  0.24464954059E+02  0.00000000000E+00 0.  1.
         12    1    4    4    0    0 -0.33563776279E+02  0.24916587282E+02  0.10053392850E+03  0.10887807024E+03  0.00000000000E+00 0. -1.
         -5    1    5    5    0  501 -0.29302810534E+02  0.70430867074E+02  0.97539133994E+02  0.12391583596E+03  0.47000000000E+01 0.  1.
         11    1    6    6    0    0  0.20583324549E+02  0.36641490626E+02  0.50622316895E+02  0.65794308664E+02  0.00000000000E+00 0. -1.
        -12    1    6    6    0    0  0.72409483204E+02 -0.33664554575E+02  0.89994815966E+02  0.12031418201E+03  0.00000000000E+00 0.  1.
<mgrwt>
<rscale>  2 0.19867650E+03</rscale>
<asrwt>0</asrwt>
<pdfrwt beam="1">  1        1 0.67692081E-01 0.19867650E+03</pdfrwt>
<pdfrwt beam="2">  1       -1 0.14696535E-01 0.19867650E+03</pdfrwt>
<totfact> 0.17640937E+03</totfact>
</mgrwt>
</event>
<event>
12    1  0.4154313E-002  0.1831580E+03  0.7546771E-02  0.1164781E+00
         -2   -1    0    0    0  501 -0.00000000000E+00  0.00000000000E+00  0.19703719458E+03  0.19703719458E+03  0.00000000000E+00 0.  1.
          2   -1    0    0  502    0  0.00000000000E+00 -0.00000000000E+00 -0.23949122288E+03  0.23949122288E+03  0.00000000000E+00 0. -1.
          6    2    1    2  502    0 -0.62242382119E+02 -0.24148976245E+02 -0.13854741154E+03  0.22933571429E+03  0.17012406479E+03 0.  0.
         24    2    3    3    0    0 -0.10484371007E+03 -0.18987344706E+02 -0.12834675305E+03  0.18497741161E+03  0.79943924021E+02 0.  0.
         -6    2    1    2    0  501  0.62242382119E+02  0.24148976245E+02  0.96093383228E+02  0.20719270317E+03  0.17099003117E+03 0.  0.
        -24    2    5    5    0    0  0.10627917719E+03  0.26281760591E+02  0.54660008973E+02  0.14650825218E+03  0.80566475231E+02 0.  0.
          5    1    3    3  502    0  0.42601327951E+02 -0.51616315395E+01 -0.10200658486E+02  0.44358302683E+02  0.47000000000E+01 0. -1.
        -11    1    4    4    0    0 -0.69865494853E+02 -0.49716385259E+02 -0.93170326857E+02  0.12662391615E+03  0.00000000000E+00 0.  1.
         12    1    4    4    0    0 -0.34978215217E+02  0.30729040553E+02 -0.35176426194E+02  0.58353495463E+02  0.00000000000E+00 0. -1.
         -5    1    5    5    0  501 -0.44036795074E+02 -0.21327843459E+01  0.41433374255E+02  0.60684450987E+02  0.47000000000E+01 0.  1.
         11    1    6    6    0    0  0.31336217120E+02 -0.29071752820E+02  0.16146478792E+02  0.45692823209E+02  0.00000000000E+00 0. -1.
        -12    1    6    6    0    0  0.74942960072E+02  0.55353513411E+02  0.38513530181E+02  0.10081542897E+03  0.00000000000E+00 0.  1.
<mgrwt>
<rscale>  2 0.18315801E+03</rscale>
<asrwt>0</asrwt>
<pdfrwt beam="2">  1        2 0.36844804E-01 0.18315801E+03</pdfrwt>
<pdfrwt beam="1">  1       -2 0.30313415E-01 0.18315801E+03</pdfrwt>
<totfact> 0.13892113E+03</totfact>
</mgrwt>
</event>
<event>
11    1  0.4154313E-002  0.2397457E+03  0.7546771E-02  0.1119962E+00
         -2   -1    0    0    0  501 -0.00000000000E+00  0.00000000000E+00  0.12954952608E+03  0.12954952608E+03  0.00000000000E+00 0.  1.
          2   -1    0    0  502    0  0.00000000000E+00 -0.00000000000E+00 -0.45359009775E+03  0.45359009775E+03  0.00000000000E+00 0. -1.
          6    2    1    2  502    0  0.16294899286E+03 -0.35241077408E+02 -0.12060623411E+03  0.27053740706E+03  0.17564258340E+03 0.  0.
         24    2    3    3    0    0  0.85652631910E+02 -0.82426395727E+02 -0.10638664717E+03  0.17874705716E+03  0.80634407566E+02 0.  0.
         -6    2    1    2    0  501 -0.16294899286E+03  0.35241077408E+02 -0.20343433756E+03  0.31260221677E+03  0.16893877121E+03 0.  0.
          5    1    3    3  502    0  0.77296360953E+02  0.47185318319E+02 -0.14219586938E+02  0.91790349897E+02  0.47000000000E+01 0. -1.
        -11    1    4    4    0    0  0.35471200411E+02 -0.58804070019E+02 -0.12647950243E+02  0.69829043776E+02  0.00000000000E+00 0.  1.
         12    1    4    4    0    0  0.50181431498E+02 -0.23622325709E+02 -0.93738696926E+02  0.10891801339E+03  0.00000000000E+00 0. -1.
         -5    1    5    5    0  501  0.10942495471E+02  0.16616803739E+02 -0.74905310079E+00  0.20457454734E+02  0.47000000000E+01 0.  1.
         11    1    5    5    0    0 -0.17310451316E+03  0.17755410365E+02 -0.12453231409E+03  0.21398300009E+03  0.00000000000E+00 0. -1.
        -12    1    5    5    0    0 -0.78697517173E+00  0.86886330416E+00 -0.78152970367E+02  0.78161761946E+02  0.00000000000E+00 0.  1.
<mgrwt>
<rscale>  2 0.23974573E+03</rscale>
<asrwt>0</asrwt>
<pdfrwt beam="2">  1        2 0.69783093E-01 0.23974573E+03</pdfrwt>
<pdfrwt beam="1">  1       -2 0.19930696E-01 0.23974573E+03</pdfrwt>
<totfact> 0.14655152E+03</totfact>
</mgrwt>
</event>
<event>
12    1  0.4154313E-002  0.1756042E+03  0.7546771E-02  0.1172126E+00
         -3   -1    0    0    0  501 -0.00000000000E+00  0.00000000000E+00  0.78575825707E+02  0.78575825707E+02  0.00000000000E+00 0. -1.
          3   -1    0    0  502    0  0.00000000000E+00 -0.00000000000E+00 -0.39341438582E+03  0.39341438582E+03  0.00000000000E+00 0.  1.
          6    2    1    2  502    0  0.81874263853E+01  0.28303227456E+02 -0.14582253200E+03  0.22834832594E+03  0.17323579448E+03 0.  0.
         24    2    3    3    0    0  0.70635169939E+02  0.31977275700E+02 -0.79293152890E+02  0.13690726520E+03  0.80276533158E+02 0.  0.
         -6    2    1    2    0  501 -0.81874263853E+01 -0.28303227456E+02 -0.16901602812E+03  0.24364188559E+03  0.17299376872E+03 0.  0.
        -24    2    5    5    0    0  0.12738446535E+02 -0.82242934147E+02 -0.12838779170E+03  0.17278902601E+03  0.80289813896E+02 0.  0.
          5    1    3    3  502    0 -0.62447743554E+02 -0.36740482438E+01 -0.66529379107E+02  0.91441060743E+02  0.47000000000E+01 0. -1.
        -11    1    4    4    0    0  0.14702806655E+02  0.50564830066E+02 -0.36583986009E+02  0.64119907950E+02  0.00000000000E+00 0.  1.
         12    1    4    4    0    0  0.55932363284E+02 -0.18587554367E+02 -0.42709166881E+02  0.72787357251E+02  0.00000000000E+00 0. -1.
         -5    1    5    5    0  501 -0.20925872920E+02  0.53939706691E+02 -0.40628236417E+02  0.70852859574E+02  0.47000000000E+01 0.  1.
         13    1    6    6    0    0 -0.15481707075E+02 -0.19125806336E+02 -0.90837708415E+02  0.94111471097E+02  0.00000000000E+00 0. -1.
        -14    1    6    6    0    0  0.28220153610E+02 -0.63117127811E+02 -0.37550083287E+02  0.78677554917E+02  0.00000000000E+00 0.  1.
<mgrwt>
<rscale>  2 0.17560416E+03</rscale>
<asrwt>0</asrwt>
<pdfrwt beam="2">  1        3 0.60525291E-01 0.17560416E+03</pdfrwt>
<pdfrwt beam="1">  1       -3 0.12088588E-01 0.17560416E+03</pdfrwt>
<totfact> 0.34905823E+02</totfact>
</mgrwt>
</event>
<event>
12    1  0.4154313E-002  0.1828238E+03  0.7546771E-02  0.1165098E+00
          2   -1    0    0  502    0  0.00000000000E+00  0.00000000000E+00  0.10241318483E+04  0.10241318483E+04  0.00000000000E+00 0. -1.
         -2   -1    0    0    0  501 -0.00000000000E+00 -0.00000000000E+00 -0.33318340398E+02  0.33318340398E+02  0.00000000000E+00 0.  1.
          6    2    1    2  502    0 -0.28419200362E+02  0.50802109473E+02  0.56949279267E+03  0.59794620877E+03  0.17271109518E+03 0.  0.
         24    2    3    3    0    0  0.25943520055E+01 -0.34632325259E+02  0.22217730569E+03  0.23890439983E+03  0.80662435368E+02 0.  0.
         -6    2    1    2    0  501  0.28419200362E+02 -0.50802109473E+02  0.42132071521E+03  0.45950397991E+03  0.17390876117E+03 0.  0.
        -24    2    5    5    0    0  0.46079662765E+02 -0.95222402135E+02  0.28518910878E+03  0.31514692743E+03  0.82426433325E+02 0.  0.
          5    1    3    3  502    0 -0.31013552367E+02  0.85434434732E+02  0.34731548699E+03  0.35904180894E+03  0.47000000000E+01 0. -1.
        -13    1    4    4    0    0 -0.12152397215E+02  0.11294068489E+02  0.63684534496E+01  0.17770592011E+02  0.00000000000E+00 0.  1.
         14    1    4    4    0    0  0.14746749220E+02 -0.45926393747E+02  0.21580885224E+03  0.22113380782E+03  0.00000000000E+00 0. -1.
         -5    1    5    5    0  501 -0.17660462404E+02  0.44420292662E+02  0.13613160642E+03  0.14435705248E+03  0.47000000000E+01 0.  1.
         13    1    6    6    0    0  0.34182867781E+01 -0.90142701093E+02  0.17507561386E+03  0.19694888122E+03  0.00000000000E+00 0. -1.
        -14    1    6    6    0    0  0.42661375987E+02 -0.50797010414E+01  0.11011349492E+03  0.11819804621E+03  0.00000000000E+00 0.  1.
<mgrwt>
<rscale>  2 0.18282382E+03</rscale>
<asrwt>0</asrwt>
<pdfrwt beam="1">  1        2 0.15755872E+00 0.18282382E+03</pdfrwt>
<pdfrwt beam="2">  1       -2 0.51258993E-02 0.18282382E+03</pdfrwt>
<totfact> 0.47227354E+03</totfact>
</mgrwt>
</event>
<event>
12    1  0.4154313E-002  0.1992341E+03  0.7546771E-02  0.1150387E+00
         -2   -1    0    0    0  501 -0.00000000000E+00  0.00000000000E+00  0.38259821717E+02  0.38259821717E+02  0.00000000000E+00 0. -1.
          2   -1    0    0  502    0  0.00000000000E+00 -0.00000000000E+00 -0.14049970094E+04  0.14049970094E+04  0.00000000000E+00 0.  1.
          6    2    1    2  502    0  0.72249371485E+02  0.61308725946E+02 -0.10484326891E+04  0.10669050957E+04  0.17348385567E+03 0.  0.
         24    2    3    3    0    0  0.56163765907E+02  0.88381321223E+02 -0.10013902721E+04  0.10101005966E+04  0.80963644374E+02 0.  0.
         -6    2    1    2    0  501 -0.72249371485E+02 -0.61308725946E+02 -0.31830449855E+03  0.37635173535E+03  0.17704277264E+03 0.  0.
        -24    2    5    5    0    0 -0.20309497316E+02 -0.68047248420E+02 -0.84272124075E+02  0.13648427087E+03  0.80518703413E+02 0.  0.
          5    1    3    3  502    0  0.16085605578E+02 -0.27072595277E+02 -0.47042417007E+02  0.56804499115E+02  0.47000000000E+01 0. -1.
        -13    1    4    4    0    0  0.13385210182E+02  0.31258730294E+02 -0.68144053627E+03  0.68228841155E+03  0.00000000000E+00 0.  1.
         14    1    4    4    0    0  0.42778555725E+02  0.57122590928E+02 -0.31994973582E+03  0.32781218506E+03  0.00000000000E+00 0. -1.
         -5    1    5    5    0  501 -0.51939874169E+02  0.67385224742E+01 -0.23403237448E+03  0.23986746448E+03  0.47000000000E+01 0.  1.
         11    1    6    6    0    0  0.26894174726E+02 -0.49452902897E+02 -0.49675661406E+02  0.75077010964E+02  0.00000000000E+00 0. -1.
        -12    1    6    6    0    0 -0.47203672042E+02 -0.18594345523E+02 -0.34596462669E+02  0.61407259903E+02  0.00000000000E+00 0.  1.
<mgrwt>
<rscale>  2 0.19923410E+03</rscale>
<asrwt>0</asrwt>
<pdfrwt beam="2">  1        2 0.21615335E+00 0.19923410E+03</pdfrwt>
<pdfrwt beam="1">  1       -2 0.58861274E-02 0.19923410E+03</pdfrwt>
<totfact> 0.23405777E+03</totfact>
</mgrwt>
</event>
<event>
12    1  0.4154313E-002  0.2051057E+03  0.7546771E-02  0.1145501E+00
          1   -1    0    0  502    0  0.00000000000E+00  0.00000000000E+00  0.36450011939E+03  0.36450011939E+03  0.00000000000E+00 0. -1.
         -1   -1    0    0    0  501 -0.00000000000E+00 -0.00000000000E+00 -0.15057448061E+03  0.15057448061E+03  0.00000000000E+00 0.  1.
          6    2    1    2  502    0 -0.11136004757E+03 -0.87294831052E+01  0.23156062350E+03  0.30958372567E+03  0.17246592932E+03 0.  0.
         24    2    3    3    0    0  0.57826548765E+01 -0.13152411374E+02  0.13510793163E+03  0.15770487000E+03  0.80064023191E+02 0.  0.
         -6    2    1    2    0  501  0.11136004757E+03  0.87294831052E+01 -0.17634984713E+02  0.20549087433E+03  0.17157576367E+03 0.  0.
        -24    2    5    5    0    0  0.12248972018E+03 -0.35821671010E+02  0.12153434622E+02  0.15055350206E+03  0.78941290509E+02 0.  0.
          5    1    3    3  502    0 -0.11714270245E+03  0.44229282690E+01  0.96452691865E+02  0.15187885567E+03  0.47000000000E+01 0. -1.
        -13    1    4    4    0    0 -0.13882636368E+02  0.13613402032E+01 -0.54956630156E+01  0.14992769979E+02  0.00000000000E+00 0.  1.
         14    1    4    4    0    0  0.19665291244E+02 -0.14513751577E+02  0.14060359465E+03  0.14271210002E+03  0.00000000000E+00 0. -1.
         -5    1    5    5    0  501 -0.11129672605E+02  0.44551154115E+02 -0.29788419336E+02  0.54937372269E+02  0.47000000000E+01 0.  1.
         13    1    6    6    0    0  0.29865873975E+02  0.15765184307E+02  0.27339633145E+02  0.43450742284E+02  0.00000000000E+00 0. -1.
        -14    1    6    6    0    0  0.92623846203E+02 -0.51586855316E+02 -0.15186198523E+02  0.10710275978E+03  0.00000000000E+00 0.  1.
<mgrwt>
<rscale>  2 0.20510572E+03</rscale>
<asrwt>0</asrwt>
<pdfrwt beam="1">  1        1 0.56076941E-01 0.20510572E+03</pdfrwt>
<pdfrwt beam="2">  1       -1 0.23165305E-01 0.20510572E+03</pdfrwt>
<totfact> 0.10789101E+03</totfact>
</mgrwt>
</event>
<event>
12    1  0.4154313E-002  0.2244322E+03  0.7546771E-02  0.1130621E+00
          1   -1    0    0  502    0  0.00000000000E+00  0.00000000000E+00  0.10446769140E+04  0.10446769140E+04  0.00000000000E+00 0.  1.
         -1   -1    0    0    0  501 -0.00000000000E+00 -0.00000000000E+00 -0.81054821484E+02  0.81054821484E+02  0.00000000000E+00 0. -1.
          6    2    1    2  502    0 -0.12113441572E+03 -0.73937976829E+02  0.84098863181E+03  0.87060483103E+03  0.17478707585E+03 0.  0.
         24    2    3    3    0    0 -0.12938293364E+03 -0.64493573667E+02  0.52772817541E+03  0.55705828211E+03  0.10448702299E+03 0.  0.
         -6    2    1    2    0  501  0.12113441572E+03  0.73937976829E+02  0.12263346076E+03  0.25512690451E+03  0.17294623621E+03 0.  0.
        -24    2    5    5    0    0  0.13051660214E+03  0.33695921924E+02  0.37474043130E+02  0.16035525888E+03  0.78355003363E+02 0.  0.
          5    1    3    3  502    0  0.82485179250E+01 -0.94444031616E+01  0.31326045639E+03  0.31354654892E+03  0.47000000000E+01 0. -1.
        -13    1    4    4    0    0 -0.20495061207E+01 -0.50160351488E+02  0.15342566491E+03  0.16143015824E+03  0.00000000000E+00 0.  1.
         14    1    4    4    0    0 -0.12733342752E+03 -0.14333222180E+02  0.37430251051E+03  0.39562812387E+03  0.00000000000E+00 0. -1.
         -5    1    5    5    0  501 -0.93821864236E+01  0.40242054905E+02  0.85159417627E+02  0.94771645631E+02  0.47000000000E+01 0. -1.
         11    1    6    6    0    0 -0.46493973943E+01  0.10734128429E+02 -0.98732342760E+01  0.15307487199E+02  0.00000000000E+00 0. -1.
        -12    1    6    6    0    0  0.13516599954E+03  0.22961793495E+02  0.47347277406E+02  0.14504777168E+03  0.00000000000E+00 0.  1.
<mgrwt>
<rscale>  2 0.22443221E+03</rscale>
<asrwt>0</asrwt>
<pdfrwt beam="1">  1        1 0.16071952E+00 0.22443221E+03</pdfrwt>
<pdfrwt beam="2">  1       -1 0.12469973E-01 0.22443221E+03</pdfrwt>
<totfact> 0.64300733E+02</totfact>
</mgrwt>
</event>
<event>
12    1  0.4154313E-002  0.1784703E+03  0.7546771E-02  0.1169292E+00
          2   -1    0    0  502    0  0.00000000000E+00  0.00000000000E+00  0.10660674564E+04  0.10660674564E+04  0.00000000000E+00 0. -1.
         -2   -1    0    0    0  501 -0.00000000000E+00 -0.00000000000E+00 -0.31303518280E+02  0.31303518280E+02  0.00000000000E+00 0.  1.
          6    2    1    2  502    0  0.35913573252E+02 -0.16906075510E+02  0.41035463581E+03  0.44889149244E+03  0.17758672451E+03 0.  0.
         24    2    3    3    0    0  0.78873282097E+02 -0.69510276341E+01  0.16691328156E+03  0.20144367466E+03  0.80313131478E+02 0.  0.
         -6    2    1    2    0  501 -0.35913573252E+02  0.16906075510E+02  0.62440930227E+03  0.64847948220E+03  0.17047891934E+03 0.  0.
        -24    2    5    5    0    0  0.18330633517E+01 -0.72346419762E+01  0.14660001270E+03  0.16855095626E+03  0.82838161285E+02 0.  0.
          5    1    3    3  502    0 -0.42959708845E+02 -0.99550478756E+01  0.24344135425E+03  0.24744781778E+03  0.47000000000E+01 0. -1.
        -11    1    4    4    0    0  0.24934221616E+01  0.25038454297E+02  0.67631848538E+02  0.72160988660E+02  0.00000000000E+00 0.  1.
         12    1    4    4    0    0  0.76379859935E+02 -0.31989481931E+02  0.99281433017E+02  0.12928268600E+03  0.00000000000E+00 0. -1.
         -5    1    5    5    0  501 -0.37746636604E+02  0.24140717486E+02  0.47780928957E+03  0.47992852595E+03  0.47000000000E+01 0.  1.
         11    1    6    6    0    0 -0.37516603695E+02 -0.16187911648E+02  0.55555014103E+02  0.68963059882E+02  0.00000000000E+00 0. -1.
        -12    1    6    6    0    0  0.39349667047E+02  0.89532696716E+01  0.91044998600E+02  0.99587896376E+02  0.00000000000E+00 0.  1.
<mgrwt>
<rscale>  2 0.17847028E+03</rscale>
<asrwt>0</asrwt>
<pdfrwt beam="1">  1        2 0.16401035E+00 0.17847028E+03</pdfrwt>
<pdfrwt beam="2">  1       -2 0.48159267E-02 0.17847028E+03</pdfrwt>
<totfact> 0.48975192E+03</totfact>
</mgrwt>
</event>
<event>
12    1  0.4154313E-002  0.2025877E+03  0.7546771E-02  0.1147574E+00
         -2   -1    0    0    0  501 -0.00000000000E+00  0.00000000000E+00  0.15428429587E+03  0.15428429587E+03  0.00000000000E+00 0. -1.
          2   -1    0    0  502    0  0.00000000000E+00 -0.00000000000E+00 -0.48122197653E+03  0.48122197653E+03  0.00000000000E+00 0.  1.
          6    2    1    2  502    0 -0.54508813655E+02  0.85856045785E+02  0.46983222873E+02  0.21227723077E+03  0.18031008875E+03 0.  0.
         24    2    3    3    0    0  0.35278037902E+01 -0.14022093111E+02 -0.10553393080E+02  0.83139924889E+02  0.81189953260E+02 0.  0.
         -6    2    1    2    0  501  0.54508813655E+02 -0.85856045785E+02 -0.37392090353E+03  0.42322904163E+03  0.17018668638E+03 0.  0.
        -24    2    5    5    0    0  0.79226912967E+02 -0.12815902538E+02 -0.26832494229E+03  0.29239156998E+03  0.83984548829E+02 0.  0.
          5    1    3    3  502    0 -0.58036617445E+02  0.99878138896E+02  0.57536615953E+02  0.12913730588E+03  0.47000000000E+01 0. -1.
        -11    1    4    4    0    0  0.41158308513E+02 -0.37770406981E+01 -0.14818025405E+02  0.43907246247E+02  0.00000000000E+00 0.  1.
         12    1    4    4    0    0 -0.37630504722E+02 -0.10245052413E+02  0.42646323257E+01  0.39232678643E+02  0.00000000000E+00 0. -1.
         -5    1    5    5    0  501 -0.24718099312E+02 -0.73040143247E+02 -0.10559596124E+03  0.13083747166E+03  0.47000000000E+01 0.  1.
         11    1    6    6    0    0  0.84070158105E+01 -0.46043926039E+01  0.43674351096E+01  0.10533415188E+02  0.00000000000E+00 0. -1.
        -12    1    6    6    0    0  0.70819897157E+02 -0.82115099342E+01 -0.27269237740E+03  0.28185815479E+03  0.00000000000E+00 0.  1.
<mgrwt>
<rscale>  2 0.20258767E+03</rscale>
<asrwt>0</asrwt>
<pdfrwt beam="2">  1        2 0.74034150E-01 0.20258767E+03</pdfrwt>
<pdfrwt beam="1">  1       -2 0.23736046E-01 0.20258767E+03</pdfrwt>
<totfact> 0.10125753E+03</totfact>
</mgrwt>
</event>
<event>
12    1  0.4154313E-002  0.2819577E+03  0.7546771E-02  0.1094624E+00
          2   -1    0    0  502    0  0.00000000000E+00  0.00000000000E+00  0.78605465894E+03  0.78605465894E+03  0.00000000000E+00 0. -1.
         -2   -1    0    0    0  501 -0.00000000000E+00 -0.00000000000E+00 -0.10848223540E+03  0.10848223540E+03  0.00000000000E+00 0.  1.
          6    2    1    2  502    0  0.21993721665E+03  0.36692384770E+02  0.45496991980E+03  0.53516538674E+03  0.17229524911E+03 0.  0.
         24    2    3    3    0    0  0.97989317882E+02 -0.36230287312E+02  0.13145231689E+03  0.18178919128E+03  0.69663895336E+02 0.  0.
         -6    2    1    2    0  501 -0.21993721665E+03 -0.36692384770E+02  0.22260250374E+03  0.35937150761E+03  0.17285050026E+03 0.  0.
        -24    2    5    5    0    0 -0.66968403212E+02 -0.61318090783E+02  0.13458336289E+03  0.18111511239E+03  0.80282794430E+02 0.  0.
          5    1    3    3  502    0  0.12194789877E+03  0.72922672082E+02  0.32351760292E+03  0.35337619546E+03  0.47000000000E+01 0. -1.
        -13    1    4    4    0    0  0.12953957116E+02 -0.34147273703E+02  0.20171177533E+02  0.41721909225E+02  0.00000000000E+00 0.  1.
         14    1    4    4    0    0  0.85035360766E+02 -0.20830136087E+01  0.11128113935E+03  0.14006728205E+03  0.00000000000E+00 0. -1.
         -5    1    5    5    0  501 -0.15296881344E+03  0.24625706013E+02  0.88019140846E+02  0.17825639522E+03  0.47000000000E+01 0.  1.
         13    1    6    6    0    0 -0.10800282692E+02 -0.59139585579E+02  0.43963914388E+02  0.74477932684E+02  0.00000000000E+00 0. -1.
        -14    1    6    6    0    0 -0.56168120520E+02 -0.21785052046E+01  0.90619448504E+02  0.10663717970E+03  0.00000000000E+00 0.  1.
<mgrwt>
<rscale>  2 0.28195767E+03</rscale>
<asrwt>0</asrwt>
<pdfrwt beam="1">  1        2 0.12093148E+00 0.28195767E+03</pdfrwt>
<pdfrwt beam="2">  1       -2 0.16689575E-01 0.28195767E+03</pdfrwt>
<totfact> 0.10402225E+03</totfact>
</mgrwt>
</event>
<event>
12    1  0.4154313E-002  0.4213092E+03  0.7546771E-02  0.1036641E+00
          1   -1    0    0  502    0  0.00000000000E+00  0.00000000000E+00  0.28989792394E+04  0.28989792394E+04  0.00000000000E+00 0.  1.
         -1   -1    0    0    0  501 -0.00000000000E+00 -0.00000000000E+00 -0.84168728120E+02  0.84168728120E+02  0.00000000000E+00 0. -1.
          6    2    1    2  502    0 -0.11956286376E+03  0.36513059887E+03  0.62902789733E+03  0.75715624675E+03  0.17318733714E+03 0.  0.
         24    2    3    3    0    0 -0.13714807646E+03  0.36725208394E+03  0.57784182187E+03  0.70278856585E+03  0.79541870481E+02 0.  0.
         -6    2    1    2    0  501  0.11956286376E+03 -0.36513059887E+03  0.21857826139E+04  0.22259917207E+04  0.17256266365E+03 0.  0.
        -24    2    5    5    0    0 -0.10379566301E+02 -0.12787845294E+03  0.83897727624E+03  0.85228129876E+03  0.77716845264E+02 0.  0.
          5    1    3    3  502    0  0.17585212698E+02 -0.21214850710E+01  0.51186075461E+02  0.54367680892E+02  0.47000000000E+01 0. -1.
        -11    1    4    4    0    0 -0.77778838819E+02  0.23556759461E+03  0.42773129144E+03  0.49446506153E+03  0.00000000000E+00 0.  1.
         12    1    4    4    0    0 -0.59369237637E+02  0.13168448932E+03  0.15011053043E+03  0.20832350432E+03  0.00000000000E+00 0. -1.
         -5    1    5    5    0  501  0.12994243006E+03 -0.23725214592E+03  0.13468053377E+04  0.13737104220E+04  0.47000000000E+01 0.  1.
         11    1    6    6    0    0  0.31370243171E+01 -0.20539100592E+02  0.32459914177E+02  0.38540129775E+02  0.00000000000E+00 0. -1.
        -12    1    6    6    0    0 -0.13516590618E+02 -0.10733935235E+03  0.80651736206E+03  0.81374116898E+03  0.00000000000E+00 0.  1.
<mgrwt>
<rscale>  2 0.42130923E+03</rscale>
<asrwt>0</asrwt>
<pdfrwt beam="1">  1        1 0.44599673E+00 0.42130923E+03</pdfrwt>
<pdfrwt beam="2">  1       -1 0.12949037E-01 0.42130923E+03</pdfrwt>
<totfact> 0.33102857E+01</totfact>
</mgrwt>
</event>
<event>
12    1  0.4154313E-002  0.1841484E+03  0.7546771E-02  0.1163848E+00
          2   -1    0    0  502    0  0.00000000000E+00  0.00000000000E+00  0.24672289715E+04  0.24672289715E+04  0.00000000000E+00 0. -1.
         -2   -1    0    0    0  501 -0.00000000000E+00 -0.00000000000E+00 -0.15113262621E+02  0.15113262621E+02  0.00000000000E+00 0.  1.
          6    2    1    2  502    0  0.45478245041E+02  0.46245879141E+02  0.84523487201E+03  0.86480445989E+03  0.17104915343E+03 0.  0.
         24    2    3    3    0    0  0.42844036688E+02 -0.68022345016E+01  0.24080606787E+03  0.25802829797E+03  0.81909452168E+02 0.  0.
         -6    2    1    2    0  501 -0.45478245041E+02 -0.46245879141E+02  0.16068808369E+04  0.16175377742E+04  0.17365331852E+03 0.  0.
        -24    2    5    5    0    0 -0.95053451643E+02 -0.14101658228E+02  0.11687493717E+04  0.11754153672E+04  0.79951085636E+02 0.  0.
          5    1    3    3  502    0  0.26342083531E+01  0.53048113643E+02  0.60442880413E+03  0.60677616192E+03  0.47000000000E+01 0. -1.
        -13    1    4    4    0    0  0.16717540575E+02  0.28514227341E+02  0.37314371062E+02  0.49848767402E+02  0.00000000000E+00 0.  1.
         14    1    4    4    0    0  0.26126496113E+02 -0.35316461843E+02  0.20349169681E+03  0.20817953057E+03  0.00000000000E+00 0. -1.
         -5    1    5    5    0  501  0.49575206602E+02 -0.32144220913E+02  0.43813146519E+03  0.44212240708E+03  0.47000000000E+01 0.  1.
         11    1    6    6    0    0  0.90757390284E+01  0.12896372519E+02  0.22576838564E+03  0.22631846901E+03  0.00000000000E+00 0. -1.
        -12    1    6    6    0    0 -0.10412919067E+03 -0.26998030747E+02  0.94298098606E+03  0.94909689816E+03  0.00000000000E+00 0.  1.
<mgrwt>
<rscale>  2 0.18414838E+03</rscale>
<asrwt>0</asrwt>
<pdfrwt beam="1">  1        2 0.37957337E+00 0.18414838E+03</pdfrwt>
<pdfrwt beam="2">  1       -2 0.23251193E-02 0.18414838E+03</pdfrwt>
<totfact> 0.26031519E+03</totfact>
</mgrwt>
</event>
<event>
12    1  0.4154313E-002  0.2130930E+03  0.7546771E-02  0.1139140E+00
          2   -1    0    0  502    0  0.00000000000E+00  0.00000000000E+00  0.30768135515E+04  0.30768135515E+04  0.00000000000E+00 0. -1.
         -2   -1    0    0    0  501 -0.00000000000E+00 -0.00000000000E+00 -0.21757454378E+02  0.21757454378E+02  0.00000000000E+00 0.  1.
          6    2    1    2  502    0  0.53665144101E+02 -0.11092616367E+03  0.24035070602E+04  0.24128854383E+04  0.17316289468E+03 0.  0.
         24    2    3    3    0    0 -0.94453017073E+01 -0.51483564531E+02  0.62177983656E+03  0.62904398215E+03  0.79664265409E+02 0.  0.
         -6    2    1    2    0  501 -0.53665144101E+02  0.11092616367E+03  0.65154903686E+03  0.68568556759E+03  0.17453936144E+03 0.  0.
        -24    2    5    5    0    0  0.20856666536E+02  0.74929432025E+02  0.51040517165E+03  0.52200005926E+03  0.76949348937E+02 0.  0.
          5    1    3    3  502    0  0.63110445808E+02 -0.59442599139E+02  0.17817272237E+04  0.17838414561E+04  0.47000000000E+01 0. -1.
        -11    1    4    4    0    0 -0.35105321918E+02 -0.49332303270E+02  0.53799599591E+03  0.54139241904E+03  0.00000000000E+00 0.  1.
         12    1    4    4    0    0  0.25660020210E+02 -0.21512612610E+01  0.83783840651E+02  0.87651563114E+02  0.00000000000E+00 0. -1.
         -5    1    5    5    0  501 -0.74521810637E+02  0.35996731646E+02  0.14114386521E+03  0.16368550833E+03  0.47000000000E+01 0.  1.
         13    1    6    6    0    0  0.21717031099E+02 -0.10380197289E+02  0.11710809936E+03  0.11955619964E+03  0.00000000000E+00 0. -1.
        -14    1    6    6    0    0 -0.86036456310E+00  0.85309629314E+02  0.39329707229E+03  0.40244385963E+03  0.00000000000E+00 0.  1.
<mgrwt>
<rscale>  2 0.21309298E+03</rscale>
<asrwt>0</asrwt>
<pdfrwt beam="1">  1        2 0.47335559E+00 0.21309298E+03</pdfrwt>
<pdfrwt beam="2">  1       -2 0.33473031E-02 0.21309298E+03</pdfrwt>
<totfact> 0.68341128E+02</totfact>
</mgrwt>
</event>
<event>
12    1  0.4154313E-002  0.1894677E+03  0.7546771E-02  0.1158942E+00
          2   -1    0    0  502    0  0.00000000000E+00  0.00000000000E+00  0.69882826047E+03  0.69882826047E+03  0.00000000000E+00 0.  1.
         -2   -1    0    0    0  501 -0.00000000000E+00 -0.00000000000E+00 -0.57933278023E+02  0.57933278023E+02  0.00000000000E+00 0. -1.
          6    2    1    2  502    0  0.75775968040E+02  0.63258000821E+01  0.19316626600E+03  0.27061654019E+03  0.17360326156E+03 0.  0.
         24    2    3    3    0    0  0.11190378841E+03 -0.24569758881E+02  0.13220284640E+03  0.19316730845E+03  0.81913891032E+02 0.  0.
         -6    2    1    2    0  501 -0.75775968040E+02 -0.63258000821E+01  0.44772871644E+03  0.48614499830E+03  0.17347605819E+03 0.  0.
        -24    2    5    5    0    0 -0.42370097874E+02  0.59790399537E+02  0.20034185399E+03  0.22786287788E+03  0.80090671022E+02 0.  0.
          5    1    3    3  502    0 -0.36127820371E+02  0.30895558963E+02  0.60963419600E+02  0.77449231744E+02  0.47000000000E+01 0. -1.
        -13    1    4    4    0    0  0.70470334297E+02 -0.37356054411E-01  0.12633402168E+03  0.14465944298E+03  0.00000000000E+00 0.  1.
         14    1    4    4    0    0  0.41433454115E+02 -0.24532402827E+02  0.58688247270E+01  0.48507865466E+02  0.00000000000E+00 0. -1.
         -5    1    5    5    0  501 -0.33405870167E+02 -0.66116199619E+02  0.24738686245E+03  0.25828212042E+03  0.47000000000E+01 0.  1.
         13    1    6    6    0    0 -0.58122517090E+02  0.60343612743E+02  0.12230502624E+03  0.14825011985E+03  0.00000000000E+00 0. -1.
        -14    1    6    6    0    0  0.15752419217E+02 -0.55321320559E+00  0.78036827744E+02  0.79612758025E+02  0.00000000000E+00 0.  1.
<mgrwt>
<rscale>  2 0.18946774E+03</rscale>
<asrwt>0</asrwt>
<pdfrwt beam="1">  1        2 0.10751203E+00 0.18946774E+03</pdfrwt>
<pdfrwt beam="2">  1       -2 0.89128125E-02 0.18946774E+03</pdfrwt>
<totfact> 0.33088192E+03</totfact>
</mgrwt>
</event>
<event>
12    1  0.4154313E-002  0.2079433E+03  0.7546771E-02  0.1143205E+00
         -1   -1    0    0    0  501 -0.00000000000E+00  0.00000000000E+00  0.24699754206E+03  0.24699754206E+03  0.00000000000E+00 0. -1.
          1   -1    0    0  502    0  0.00000000000E+00 -0.00000000000E+00 -0.17706778793E+03  0.17706778793E+03  0.00000000000E+00 0.  1.
          6    2    1    2  502    0 -0.97215850834E+02  0.61766085993E+02  0.12363271761E+02  0.20801687925E+03  0.17277789364E+03 0.  0.
         24    2    3    3    0    0 -0.54634960916E+01  0.65849899514E+02  0.44648394384E+02  0.11055103253E+03  0.76563650755E+02 0.  0.
         -6    2    1    2    0  501  0.97215850834E+02 -0.61766085993E+02  0.57566482368E+02  0.21604845074E+03  0.17348504875E+03 0.  0.
        -24    2    5    5    0    0 -0.91148275844E+01 -0.26349222745E+02  0.55797452214E+02  0.10386205743E+03  0.83045828789E+02 0.  0.
          5    1    3    3  502    0 -0.91752354742E+02 -0.40838135211E+01 -0.32285122624E+02  0.97465846718E+02  0.47000000000E+01 0. -1.
        -13    1    4    4    0    0  0.34540357984E+01  0.32393830381E+02 -0.19275182003E+02  0.37852651840E+02  0.00000000000E+00 0.  1.
         14    1    4    4    0    0 -0.89175318901E+01  0.33456069133E+02  0.63923576388E+02  0.72698380690E+02  0.00000000000E+00 0. -1.
         -5    1    5    5    0  501  0.10633067842E+03 -0.35416863248E+02  0.17690301541E+01  0.11218639331E+03  0.47000000000E+01 0.  1.
         11    1    6    6    0    0  0.35237102818E+02 -0.18692707154E+02  0.13535046445E+02  0.42122063078E+02  0.00000000000E+00 0. -1.
        -12    1    6    6    0    0 -0.44351930402E+02 -0.76565155913E+01  0.42262405769E+02  0.61739994353E+02  0.00000000000E+00 0.  1.
<mgrwt>
<rscale>  2 0.20794333E+03</rscale>
<asrwt>0</asrwt>
<pdfrwt beam="2">  1        1 0.27241198E-01 0.20794333E+03</pdfrwt>
<pdfrwt beam="1">  1       -1 0.37999622E-01 0.20794333E+03</pdfrwt>
<totfact> 0.11544532E+03</totfact>
</mgrwt>
</event>
<event>
12    1  0.4154313E-002  0.2186595E+03  0.7546771E-02  0.1134886E+00
          1   -1    0    0  502    0  0.00000000000E+00  0.00000000000E+00  0.10146949293E+04  0.10146949293E+04  0.00000000000E+00 0.  1.
         -1   -1    0    0    0  501 -0.00000000000E+00 -0.00000000000E+00 -0.47209330938E+02  0.47209330938E+02  0.00000000000E+00 0. -1.
          6    2    1    2  502    0  0.94204397475E+02 -0.90153756244E+02  0.46603425920E+03  0.51571892355E+03  0.17825798464E+03 0.  0.
         24    2    3    3    0    0  0.12355698758E+03 -0.10166656365E+03  0.32441738586E+03  0.37055850162E+03  0.80402385099E+02 0.  0.
         -6    2    1    2    0  501 -0.94204397475E+02  0.90153756244E+02  0.50145133919E+03  0.54618533672E+03  0.17280858833E+03 0.  0.
        -24    2    5    5    0    0 -0.64725554926E+02  0.45830755111E+02  0.15605188139E+03  0.19667652991E+03  0.89663884355E+02 0.  0.
          5    1    3    3  502    0 -0.29352590105E+02  0.11512807402E+02  0.14161687334E+03  0.14516042193E+03  0.47000000000E+01 0. -1.
        -13    1    4    4    0    0  0.11464564879E+03 -0.82664493828E+02  0.31895922336E+03  0.34887251180E+03  0.00000000000E+00 0.  1.
         14    1    4    4    0    0  0.89113387880E+01 -0.19002069819E+02  0.54581625034E+01  0.21685989816E+02  0.00000000000E+00 0. -1.
         -5    1    5    5    0  501 -0.29478842549E+02  0.44323001134E+02  0.34539945780E+03  0.34950880680E+03  0.47000000000E+01 0.  1.
         13    1    6    6    0    0 -0.24570335517E+02 -0.25857082115E+02  0.64138602427E+02  0.73389715929E+02  0.00000000000E+00 0. -1.
        -14    1    6    6    0    0 -0.40155219408E+02  0.71687837225E+02  0.91913278965E+02  0.12328681398E+03  0.00000000000E+00 0.  1.
<mgrwt>
<rscale>  2 0.21865946E+03</rscale>
<asrwt>0</asrwt>
<pdfrwt beam="1">  1        1 0.15610690E+00 0.21865946E+03</pdfrwt>
<pdfrwt beam="2">  1       -1 0.72629748E-02 0.21865946E+03</pdfrwt>
<totfact> 0.15565486E+03</totfact>
</mgrwt>
</event>
<event>
12    1  0.4154313E-002  0.2531615E+03  0.7546771E-02  0.1111323E+00
          1   -1    0    0  502    0  0.00000000000E+00  0.00000000000E+00  0.11960101170E+04  0.11960101170E+04  0.00000000000E+00 0. -1.
         -1   -1    0    0    0  501 -0.00000000000E+00 -0.00000000000E+00 -0.56950711393E+02  0.56950711393E+02  0.00000000000E+00 0.  1.
          6    2    1    2  502    0  0.52462892961E+02  0.17752398048E+03  0.41704767942E+03  0.48781560470E+03  0.17253457188E+03 0.  0.
         24    2    3    3    0    0  0.22190637585E+02  0.45738359085E+02  0.78182937543E+02  0.12293855316E+03  0.80105519423E+02 0.  0.
         -6    2    1    2    0  501 -0.52462892961E+02 -0.17752398048E+03  0.72201172621E+03  0.76514522371E+03  0.17285589897E+03 0.  0.
        -24    2    5    5    0    0  0.16786132681E+02 -0.26532313569E+02  0.29118514546E+03  0.30337954320E+03  0.79149354874E+02 0.  0.
          5    1    3    3  502    0  0.30272255376E+02  0.13178562140E+03  0.33886474188E+03  0.36487705154E+03  0.47000000000E+01 0. -1.
        -11    1    4    4    0    0 -0.15104376819E+02 -0.10668389203E+02  0.42790200081E+02  0.46614997052E+02  0.00000000000E+00 0.  1.
         12    1    4    4    0    0  0.37295014404E+02  0.56406748287E+02  0.35392737462E+02  0.76323556107E+02  0.00000000000E+00 0. -1.
         -5    1    5    5    0  501 -0.69249025642E+02 -0.15099166691E+03  0.43082658074E+03  0.46176568052E+03  0.47000000000E+01 0.  1.
         11    1    6    6    0    0 -0.23147436680E+02 -0.33947168633E+02  0.10365622492E+03  0.11150258763E+03  0.00000000000E+00 0. -1.
        -12    1    6    6    0    0  0.39933569361E+02  0.74148550644E+01  0.18752892054E+03  0.19187695556E+03  0.00000000000E+00 0.  1.
<mgrwt>
<rscale>  2 0.25316154E+03</rscale>
<asrwt>0</asrwt>
<pdfrwt beam="1">  1        1 0.18400154E+00 0.25316154E+03</pdfrwt>
<pdfrwt beam="2">  1       -1 0.87616488E-02 0.25316154E+03</pdfrwt>
<totfact> 0.86474316E+02</totfact>
</mgrwt>
</event>
<event>
12    1  0.4154313E-002  0.1807409E+03  0.7546771E-02  0.1167088E+00
          2   -1    0    0  502    0  0.00000000000E+00  0.00000000000E+00  0.27013505299E+04  0.27013505299E+04  0.00000000000E+00 0.  1.
         -2   -1    0    0    0  501 -0.00000000000E+00 -0.00000000000E+00 -0.22883556591E+02  0.22883556591E+02  0.00000000000E+00 0. -1.
          6    2    1    2  502    0 -0.51802440939E+02  0.26894425538E+02  0.39157524948E+03  0.42995428172E+03  0.16769825687E+03 0.  0.
         24    2    3    3    0    0 -0.28376547481E+02 -0.45735281348E+02  0.16908930384E+03  0.19469711858E+03  0.80117606690E+02 0.  0.
         -6    2    1    2    0  501  0.51802440939E+02 -0.26894425538E+02  0.22868917238E+04  0.22942798047E+04  0.17446851584E+03 0.  0.
        -24    2    5    5    0    0  0.14000455099E+02  0.45657290290E+02  0.84925980743E+03  0.85431440287E+03  0.79563041265E+02 0.  0.
          5    1    3    3  502    0 -0.23425893458E+02  0.72629706886E+02  0.22248594563E+03  0.23525716315E+03  0.47000000000E+01 0. -1.
        -13    1    4    4    0    0  0.49984504053E+00  0.19773241650E+02  0.68047661179E+02  0.70864060865E+02  0.00000000000E+00 0.  1.
         14    1    4    4    0    0 -0.28876392521E+02 -0.65508522997E+02  0.10104164266E+03  0.12383305771E+03  0.00000000000E+00 0. -1.
         -5    1    5    5    0  501  0.37801985841E+02 -0.72551715829E+02  0.14376319164E+04  0.14399654019E+04  0.47000000000E+01 0.  1.
         11    1    6    6    0    0  0.14388087908E+02 -0.20085808464E+02  0.15603549517E+03  0.15797953199E+03  0.00000000000E+00 0. -1.
        -12    1    6    6    0    0 -0.38763280927E+00  0.65743098754E+02  0.69322431225E+03  0.69633487087E+03  0.00000000000E+00 0.  1.
<mgrwt>
<rscale>  2 0.18074086E+03</rscale>
<asrwt>0</asrwt>
<pdfrwt beam="1">  1        2 0.41559214E+00 0.18074086E+03</pdfrwt>
<pdfrwt beam="2">  1       -2 0.35205493E-02 0.18074086E+03</pdfrwt>
<totfact> 0.10506957E+03</totfact>
</mgrwt>
</event>
<event>
11    1  0.4154313E-002  0.3333971E+03  0.7546771E-02  0.1069644E+00
         -2   -1    0    0    0  501 -0.00000000000E+00  0.00000000000E+00  0.50181689682E+02  0.50181689682E+02  0.00000000000E+00 0.  1.
          2   -1    0    0  502    0  0.00000000000E+00 -0.00000000000E+00 -0.22302703119E+04  0.22302703119E+04  0.00000000000E+00 0. -1.
          6    2    1    2  502    0 -0.28485110090E+03 -0.94256767152E+01 -0.11850613692E+04  0.12311284787E+04  0.17342978172E+03 0.  0.
         -6    2    1    2    0  501  0.28485110090E+03  0.94256767152E+01 -0.99502725304E+03  0.10493235229E+04  0.17254456931E+03 0.  0.
        -24    2    4    4    0    0  0.19626861103E+03 -0.17617036774E+02 -0.46832300471E+03  0.51451737012E+03  0.81055288259E+02 0.  0.
          5    1    3    3  502    0 -0.28541158691E+03  0.23872692697E+02 -0.10031402709E+04  0.10432363934E+04  0.47000000000E+01 0. -1.
        -13    1    3    3    0    0 -0.95676668776E+01 -0.33286859538E+02 -0.16053915606E+03  0.16423268827E+03  0.00000000000E+00 0.  1.
         14    1    3    3    0    0  0.10128152891E+02 -0.11509874395E-01 -0.21381942267E+02  0.23659397046E+02  0.00000000000E+00 0. -1.
         -5    1    4    4    0  501  0.88582489868E+02  0.27042713489E+02 -0.52670424833E+03  0.53480615280E+03  0.47000000000E+01 0.  1.
         11    1    5    5    0    0  0.79141953872E+02  0.81725758232E+01 -0.28136551260E+03  0.29239834394E+03  0.00000000000E+00 0. -1.
        -12    1    5    5    0    0  0.11712665716E+03 -0.25789612597E+02 -0.18695749211E+03  0.22211902618E+03  0.00000000000E+00 0.  1.
<mgrwt>
<rscale>  2 0.33339713E+03</rscale>
<asrwt>0</asrwt>
<pdfrwt beam="2">  1        2 0.34311846E+00 0.33339713E+03</pdfrwt>
<pdfrwt beam="1">  1       -2 0.77202611E-02 0.33339713E+03</pdfrwt>
<totfact> 0.55566977E+02</totfact>
</mgrwt>
</event>
<event>
12    1  0.4154313E-002  0.2210986E+03  0.7546771E-02  0.1133067E+00
         -1   -1    0    0    0  501 -0.00000000000E+00  0.00000000000E+00  0.17315106587E+03  0.17315106587E+03  0.00000000000E+00 0.  1.
          1   -1    0    0  502    0  0.00000000000E+00 -0.00000000000E+00 -0.39789460771E+03  0.39789460771E+03  0.00000000000E+00 0. -1.
          6    2    1    2  502    0  0.97240886124E+02  0.97928462852E+02  0.41519494150E+02  0.22493195668E+03  0.17269841623E+03 0.  0.
         24    2    3    3    0    0  0.55769065651E+02  0.51892540763E+02  0.92847751529E+02  0.14433482260E+03  0.80055053435E+02 0.  0.
         -6    2    1    2    0  501 -0.97240886124E+02 -0.97928462852E+02 -0.26626303599E+03  0.34611371689E+03  0.17277999571E+03 0.  0.
        -24    2    5    5    0    0 -0.10486269184E+03 -0.74330696920E+02 -0.27908442738E+03  0.31780427401E+03  0.81180061163E+02 0.  0.
          5    1    3    3  502    0  0.41471820473E+02  0.46035922089E+02 -0.51328257379E+02  0.80597134078E+02  0.47000000000E+01 0. -1.
        -11    1    4    4    0    0  0.57471577575E+02  0.51677552520E+01  0.27339884422E+02  0.63852620960E+02  0.00000000000E+00 0.  1.
         12    1    4    4    0    0 -0.17025119236E+01  0.46724785511E+02  0.65507867107E+02  0.80482201640E+02  0.00000000000E+00 0. -1.
         -5    1    5    5    0  501  0.76218057160E+01 -0.23597765932E+02  0.12821391386E+02  0.28309442884E+02  0.47000000000E+01 0.  1.
         13    1    6    6    0    0 -0.10816720843E+03 -0.86162225176E+02 -0.24184776277E+03  0.27859363666E+03  0.00000000000E+00 0. -1.
        -14    1    6    6    0    0  0.33045165942E+01  0.11831528256E+02 -0.37236664604E+02  0.39210637353E+02  0.00000000000E+00 0.  1.
<mgrwt>
<rscale>  2 0.22109864E+03</rscale>
<asrwt>0</asrwt>
<pdfrwt beam="2">  1        1 0.61214555E-01 0.22109864E+03</pdfrwt>
<pdfrwt beam="1">  1       -1 0.26638626E-01 0.22109864E+03</pdfrwt>
<totfact> 0.76557974E+02</totfact>
</mgrwt>
</event>
<event>
12    1  0.4154313E-002  0.1836741E+03  0.7546771E-02  0.1164294E+00
         -2   -1    0    0    0  501 -0.00000000000E+00  0.00000000000E+00  0.20168456664E+02  0.20168456664E+02  0.00000000000E+00 0.  1.
          2   -1    0    0  502    0  0.00000000000E+00 -0.00000000000E+00 -0.17385522873E+04  0.17385522873E+04  0.00000000000E+00 0. -1.
          6    2    1    2  502    0 -0.54072512682E+02  0.33493771366E+02 -0.10320941622E+04  0.10483803625E+04  0.17273492821E+03 0.  0.
         24    2    3    3    0    0  0.58281652898E+01  0.65710032420E+02 -0.43055133494E+03  0.44298640667E+03  0.80689086020E+02 0.  0.
         -6    2    1    2    0  501  0.54072512682E+02 -0.33493771366E+02 -0.68628966837E+03  0.71034038143E+03  0.17188449384E+03 0.  0.
        -24    2    5    5    0    0  0.87714149044E+02  0.92804469292E+01 -0.56393929998E+03  0.57635121734E+03  0.79832906917E+02 0.  0.
          5    1    3    3  502    0 -0.59900677972E+02 -0.32216261054E+02 -0.60154282728E+03  0.60539395583E+03  0.47000000000E+01 0. -1.
        -11    1    4    4    0    0  0.40594202780E+01 -0.99524996560E+01 -0.72326195874E+01  0.12955382221E+02  0.00000000000E+00 0.  1.
         12    1    4    4    0    0  0.17687450118E+01  0.75662532076E+02 -0.42331871536E+03  0.43003102445E+03  0.00000000000E+00 0. -1.
         -5    1    5    5    0  501 -0.33641636362E+02 -0.42774218295E+02 -0.12235036839E+03  0.13398916409E+03  0.47000000000E+01 0.  1.
         13    1    6    6    0    0  0.50981510955E+02 -0.34057818006E+02 -0.32682261128E+03  0.33252378663E+03  0.00000000000E+00 0. -1.
        -14    1    6    6    0    0  0.36732638088E+02  0.43338264935E+02 -0.23711668870E+03  0.24382743071E+03  0.00000000000E+00 0.  1.
<mgrwt>
<rscale>  2 0.18367408E+03</rscale>
<asrwt>0</asrwt>
<pdfrwt beam="2">  1        2 0.26746967E+00 0.18367408E+03</pdfrwt>
<pdfrwt beam="1">  1       -2 0.31028385E-02 0.18367408E+03</pdfrwt>
<totfact> 0.40921667E+03</totfact>
</mgrwt>
</event>
<event>
12    1  0.4154313E-002  0.1965155E+03  0.7546771E-02  0.1152713E+00
         -2   -1    0    0    0  501 -0.00000000000E+00  0.00000000000E+00  0.11562057728E+02  0.11562057728E+02  0.00000000000E+00 0.  1.
          2   -1    0    0  502    0  0.00000000000E+00 -0.00000000000E+00 -0.33412507744E+04  0.33412507744E+04  0.00000000000E+00 0. -1.
          6    2    1    2  502    0  0.60333691963E+01  0.92493271362E+02 -0.16909058797E+04  0.17022220205E+04  0.17264329233E+03 0.  0.
         24    2    3    3    0    0 -0.47819187727E+02  0.80284653441E+02 -0.83682594648E+03  0.84634599530E+03  0.85390741668E+02 0.  0.
         -6    2    1    2    0  501 -0.60333691963E+01 -0.92493271362E+02 -0.16387828370E+04  0.16505908116E+04  0.17392364354E+03 0.  0.
        -24    2    5    5    0    0  0.46246985630E+02 -0.45188882517E+02 -0.58831277955E+03  0.59774686673E+03  0.83717210414E+02 0.  0.
          5    1    3    3  502    0  0.53852556923E+02  0.12208617920E+02 -0.85407993321E+03  0.85587602522E+03  0.47000000000E+01 0. -1.
        -13    1    4    4    0    0 -0.26128464040E+02 -0.14092440286E+02 -0.20771962052E+03  0.20983025105E+03  0.00000000000E+00 0.  1.
         14    1    4    4    0    0 -0.21690723687E+02  0.94377093728E+02 -0.62910632596E+03  0.63651574425E+03  0.00000000000E+00 0. -1.
         -5    1    5    5    0  501 -0.52280354826E+02 -0.47304388845E+02 -0.10504700574E+04  0.10528439449E+04  0.47000000000E+01 0.  1.
         13    1    6    6    0    0 -0.20953794324E+02  0.44385649656E+01 -0.92655996819E+02  0.95099401166E+02  0.00000000000E+00 0. -1.
        -14    1    6    6    0    0  0.67200779954E+02 -0.49627447482E+02 -0.49565678273E+03  0.50264746556E+03  0.00000000000E+00 0.  1.
<mgrwt>
<rscale>  2 0.19651549E+03</rscale>
<asrwt>0</asrwt>
<pdfrwt beam="2">  1        2 0.51403882E+00 0.19651549E+03</pdfrwt>
<pdfrwt beam="1">  1       -2 0.17787773E-02 0.19651549E+03</pdfrwt>
<totfact> 0.12008613E+03</totfact>
</mgrwt>
</event>
<event>
12    1  0.4154313E-002  0.2525179E+03  0.7546771E-02  0.1111724E+00
         -2   -1    0    0    0  501 -0.00000000000E+00  0.00000000000E+00  0.13635466604E+03  0.13635466604E+03  0.00000000000E+00 0. -1.
          2   -1    0    0  502    0  0.00000000000E+00 -0.00000000000E+00 -0.52211547503E+03  0.52211547503E+03  0.00000000000E+00 0.  1.
          6    2    1    2  502    0  0.13022631907E+03 -0.12886012673E+03 -0.86659534738E+02  0.26714364454E+03  0.17404604396E+03 0.  0.
         24    2    3    3    0    0  0.11769317189E+03 -0.75783783165E+02  0.39886008568E+01  0.16125052620E+03  0.79943472305E+02 0.  0.
         -6    2    1    2    0  501 -0.13022631907E+03  0.12886012673E+03 -0.29910127425E+03  0.39132649653E+03  0.17352529554E+03 0.  0.
        -24    2    5    5    0    0 -0.46860396856E+02  0.50080530397E+02 -0.24119529594E+03  0.26275241630E+03  0.78483789209E+02 0.  0.
          5    1    3    3  502    0  0.12533147181E+02 -0.53076343565E+02 -0.90648135595E+02  0.10589311834E+03  0.47000000000E+01 0. -1.
        -11    1    4    4    0    0  0.44482683118E+02  0.96334366494E+01 -0.13332739784E+02  0.47426513146E+02  0.00000000000E+00 0.  1.
         12    1    4    4    0    0  0.73210488768E+02 -0.85417219814E+02  0.17321340641E+02  0.11382401306E+03  0.00000000000E+00 0. -1.
         -5    1    5    5    0  501 -0.83365922211E+02  0.78779596333E+02 -0.57905978314E+02  0.12857408024E+03  0.47000000000E+01 0.  1.
         13    1    6    6    0    0 -0.20110579411E+02 -0.18753615755E+02 -0.40970760216E+02  0.49343051191E+02  0.00000000000E+00 0. -1.
        -14    1    6    6    0    0 -0.26749817445E+02  0.68834146151E+02 -0.20022453572E+03  0.21340936510E+03  0.00000000000E+00 0.  1.
<mgrwt>
<rscale>  2 0.25251790E+03</rscale>
<asrwt>0</asrwt>
<pdfrwt beam="2">  1        2 0.80325459E-01 0.25251790E+03</pdfrwt>
<pdfrwt beam="1">  1       -2 0.20977641E-01 0.25251790E+03</pdfrwt>
<totfact> 0.11474742E+03</totfact>
</mgrwt>
</event>
<event>
12    1  0.4154313E-002  0.2250610E+03  0.7546771E-02  0.1130165E+00
          2   -1    0    0  502    0  0.00000000000E+00  0.00000000000E+00  0.74511095353E+02  0.74511095353E+02  0.00000000000E+00 0. -1.
         -2   -1    0    0    0  501 -0.00000000000E+00 -0.00000000000E+00 -0.70453342863E+03  0.70453342863E+03  0.00000000000E+00 0.  1.
          6    2    1    2  502    0  0.22279245831E+02  0.14217257248E+03 -0.24170711179E+03  0.33010414384E+03  0.17273393626E+03 0.  0.
         24    2    3    3    0    0 -0.26092843384E+00  0.74550884879E+02 -0.44349219812E+02  0.12021612700E+03  0.83229570306E+02 0.  0.
         -6    2    1    2    0  501 -0.22279245831E+02 -0.14217257248E+03 -0.38831522149E+03  0.44894038014E+03  0.17334747912E+03 0.  0.
        -24    2    5    5    0    0 -0.36100871579E+02 -0.96274415781E+01 -0.11036580295E+03  0.14065930979E+03  0.78793847550E+02 0.  0.
          5    1    3    3  502    0  0.22540174265E+02  0.67621687599E+02 -0.19735789197E+03  0.20988801684E+03  0.47000000000E+01 0. -1.
        -11    1    4    4    0    0  0.87951259684E+01  0.28097369682E+02 -0.62847169836E+02  0.69401607908E+02  0.00000000000E+00 0.  1.
         12    1    4    4    0    0 -0.90560544022E+01  0.46453515197E+02  0.18497950025E+02  0.50814519093E+02  0.00000000000E+00 0. -1.
         -5    1    5    5    0  501  0.13821625748E+02 -0.13254513090E+03 -0.27794941855E+03  0.30828107035E+03  0.47000000000E+01 0.  1.
         11    1    6    6    0    0 -0.53730198339E+02  0.32358097259E+01 -0.10529319848E+03  0.11825422751E+03  0.00000000000E+00 0. -1.
        -12    1    6    6    0    0  0.17629326760E+02 -0.12863251304E+02 -0.50726044691E+01  0.22405082285E+02  0.00000000000E+00 0.  1.
<mgrwt>
<rscale>  2 0.22506105E+03</rscale>
<asrwt>0</asrwt>
<pdfrwt beam="1">  1        2 0.11463245E-01 0.22506105E+03</pdfrwt>
<pdfrwt beam="2">  1       -2 0.10838976E+00 0.22506105E+03</pdfrwt>
<totfact> 0.38297680E+02</totfact>
</mgrwt>
</event>
<event>
12    1  0.4154313E-002  0.2012684E+03  0.7546771E-02  0.1148673E+00
          3   -1    0    0  502    0  0.00000000000E+00  0.00000000000E+00  0.29524988621E+03  0.29524988621E+03  0.00000000000E+00 0. -1.
         -3   -1    0    0    0  501 -0.00000000000E+00 -0.00000000000E+00 -0.13871021386E+03  0.13871021386E+03  0.00000000000E+00 0.  1.
          6    2    1    2  502    0  0.90187044497E+02 -0.49854037449E+02  0.10091214584E+03  0.22519323628E+03  0.17294393439E+03 0.  0.
         24    2    3    3    0    0 -0.11019523092E+02  0.13332692614E+02  0.38630666699E+02  0.90521766311E+02  0.80016693164E+02 0.  0.
         -6    2    1    2    0  501 -0.90187044497E+02  0.49854037449E+02  0.55627526511E+02  0.20876686379E+03  0.17282955091E+03 0.  0.
        -24    2    5    5    0    0 -0.45573183101E+02  0.17026774400E+02  0.10008208930E+03  0.13758874931E+03  0.80916087860E+02 0.  0.
          5    1    3    3  502    0  0.10120656759E+03 -0.63186730063E+02  0.62281479138E+02  0.13467146997E+03  0.47000000000E+01 0. -1.
        -11    1    4    4    0    0 -0.14722841546E+02  0.33665295091E+02 -0.96616744235E+01  0.37992921833E+02  0.00000000000E+00 0.  1.
         12    1    4    4    0    0  0.37033184543E+01 -0.20332602477E+02  0.48292341123E+02  0.52528844478E+02  0.00000000000E+00 0. -1.
         -5    1    5    5    0  501 -0.44613861397E+02  0.32827263049E+02 -0.44454562788E+02  0.71178114479E+02  0.47000000000E+01 0.  1.
         11    1    6    6    0    0 -0.60703727496E+02  0.17783607478E+02  0.38234184105E+02  0.73912462150E+02  0.00000000000E+00 0. -1.
        -12    1    6    6    0    0  0.15130544396E+02 -0.75683307765E+00  0.61847905194E+02  0.63676287163E+02  0.00000000000E+00 0.  1.
<mgrwt>
<rscale>  2 0.20126836E+03</rscale>
<asrwt>0</asrwt>
<pdfrwt beam="1">  1        3 0.45423059E-01 0.20126836E+03</pdfrwt>
<pdfrwt beam="2">  1       -3 0.21340033E-01 0.20126836E+03</pdfrwt>
<totfact> 0.23650830E+02</totfact>
</mgrwt>
</event>
<event>
12    1  0.4154313E-002  0.2661256E+03  0.7546771E-02  0.1103518E+00
         -4   -1    0    0    0  501 -0.00000000000E+00  0.00000000000E+00  0.71182330331E+02  0.71182330331E+02  0.00000000000E+00 0. -1.
          4   -1    0    0  502    0  0.00000000000E+00 -0.00000000000E+00 -0.99941953574E+03  0.99941953574E+03  0.00000000000E+00 0.  1.
          6    2    1    2  502    0 -0.27817658646E+02 -0.20029294445E+03 -0.42803242433E+03  0.50393045969E+03  0.17275145788E+03 0.  0.
         24    2    3    3    0    0  0.44428604766E+02 -0.11199656504E+03 -0.29673826446E+03  0.32993040334E+03  0.79267534036E+02 0.  0.
         -6    2    1    2    0  501  0.27817658646E+02  0.20029294445E+03 -0.50020478107E+03  0.56667140637E+03  0.17326446278E+03 0.  0.
        -24    2    5    5    0    0  0.48627213764E+01  0.16382896184E+03 -0.48933006950E+03  0.52198471345E+03  0.78489167129E+02 0.  0.
          5    1    3    3  502    0 -0.72246263412E+02 -0.88296379412E+02 -0.13129415987E+03  0.17400005635E+03  0.47000000000E+01 0. -1.
        -13    1    4    4    0    0 -0.15660269148E+02 -0.12699130000E+00 -0.50561888652E+02  0.52931698827E+02  0.00000000000E+00 0.  1.
         14    1    4    4    0    0  0.60088873914E+02 -0.11186957374E+03 -0.24617637581E+03  0.27699870452E+03  0.00000000000E+00 0. -1.
         -5    1    5    5    0  501  0.22954937270E+02  0.36463982610E+02 -0.10874711570E+02  0.44686692925E+02  0.47000000000E+01 0.  1.
         11    1    6    6    0    0 -0.19575214085E+02  0.87238376925E+02 -0.16313888145E+03  0.18603230380E+03  0.00000000000E+00 0. -1.
        -12    1    6    6    0    0  0.24437935461E+02  0.76590584917E+02 -0.32619118805E+03  0.33595240965E+03  0.00000000000E+00 0.  1.
<mgrwt>
<rscale>  2 0.26612563E+03</rscale>
<asrwt>0</asrwt>
<pdfrwt beam="2">  1        4 0.15375684E+00 0.26612563E+03</pdfrwt>
<pdfrwt beam="1">  1       -4 0.10951128E-01 0.26612563E+03</pdfrwt>
<totfact> 0.35373799E+01</totfact>
</mgrwt>
</event>
<event>
12    1  0.4154313E-002  0.5087602E+03  0.7546771E-02  0.1011517E+00
          1   -1    0    0  502    0  0.00000000000E+00  0.00000000000E+00  0.15953221305E+04  0.15953221305E+04  0.00000000000E+00 0.  1.
         -1   -1    0    0    0  501 -0.00000000000E+00 -0.00000000000E+00 -0.21338607832E+03  0.21338607832E+03  0.00000000000E+00 0. -1.
          6    2    1    2  502    0 -0.23016912516E+03 -0.41935092823E+03  0.24810116035E+03  0.56590394784E+03  0.17280065170E+03 0.  0.
         24    2    3    3    0    0 -0.11085329144E+03 -0.16148923537E+03  0.16791253422E+03  0.27063927575E+03  0.81754345868E+02 0.  0.
         -6    2    1    2    0  501  0.23016912516E+03  0.41935092823E+03  0.11338348919E+04  0.12428042610E+04  0.17363133932E+03 0.  0.
        -24    2    5    5    0    0  0.13024858914E+03  0.18085986699E+03  0.40511143275E+03  0.46955005334E+03  0.81774037384E+02 0.  0.
          5    1    3    3  502    0 -0.11931583373E+03 -0.25786169286E+03  0.80188626132E+02  0.29526467209E+03  0.47000000000E+01 0. -1.
        -11    1    4    4    0    0 -0.38237215522E+02 -0.23994072304E+02  0.80414316807E+02  0.92218558350E+02  0.00000000000E+00 0.  1.
         12    1    4    4    0    0 -0.72616075914E+02 -0.13749516306E+03  0.87498217410E+02  0.17842071740E+03  0.00000000000E+00 0. -1.
         -5    1    5    5    0  501  0.99920536027E+02  0.23849106124E+03  0.72872345913E+03  0.77325420768E+03  0.47000000000E+01 0.  1.
         11    1    6    6    0    0 -0.37499637855E+01  0.37560290927E+02  0.99132408583E+02  0.10607578477E+03  0.00000000000E+00 0. -1.
        -12    1    6    6    0    0  0.13399855292E+03  0.14329957607E+03  0.30597902416E+03  0.36347426857E+03  0.00000000000E+00 0.  1.
<mgrwt>
<rscale>  2 0.50876020E+03</rscale>
<asrwt>0</asrwt>
<pdfrwt beam="1">  1        1 0.24543417E+00 0.50876020E+03</pdfrwt>
<pdfrwt beam="2">  1       -1 0.32828628E-01 0.50876020E+03</pdfrwt>
<totfact> 0.51974561E+01</totfact>
</mgrwt>
</event>
<event>
11    1  0.4154313E-002  0.1761732E+03  0.7546771E-02  0.1171559E+00
          1   -1    0    0  502    0  0.00000000000E+00  0.00000000000E+00  0.15129496435E+03  0.15129496435E+03  0.00000000000E+00 0.  1.
         -1   -1    0    0    0  501 -0.00000000000E+00 -0.00000000000E+00 -0.21247312739E+03  0.21247312739E+03  0.00000000000E+00 0. -1.
          6    2    1    2  502    0  0.19644645599E+02 -0.97211217398E+01  0.27038428087E+01  0.17860421780E+03  0.17723358468E+03 0.  0.
         -6    2    1    2    0  501 -0.19644645599E+02  0.97211217398E+01 -0.63882005849E+02  0.18516387395E+03  0.17240747442E+03 0.  0.
        -24    2    4    4    0    0 -0.63947456984E+02  0.17055466485E+02  0.14139808025E+02  0.95019405731E+02  0.66697729367E+02 0.  0.
          5    1    3    3  502    0  0.19186186858E+02  0.34006183639E+02 -0.76513928194E+02  0.86029073571E+02  0.47000000000E+01 0. -1.
        -13    1    3    3    0    0  0.10706374084E+01 -0.24534995144E+02  0.24943369073E+02  0.35004055649E+02  0.00000000000E+00 0.  1.
         14    1    3    3    0    0 -0.61217866785E+00 -0.19192310234E+02  0.54274401930E+02  0.57571088575E+02  0.00000000000E+00 0. -1.
         -5    1    4    4    0  501  0.44302811385E+02 -0.73343447453E+01 -0.78021813873E+02  0.90144468214E+02  0.47000000000E+01 0.  1.
         13    1    5    5    0    0 -0.84362634888E+01 -0.21118344218E+02 -0.79960969989E+01  0.24105861764E+02  0.00000000000E+00 0. -1.
        -14    1    5    5    0    0 -0.55511193495E+02  0.38173810703E+02  0.22135905024E+02  0.70913543968E+02  0.00000000000E+00 0.  1.
<mgrwt>
<rscale>  2 0.17617317E+03</rscale>
<asrwt>0</asrwt>
<pdfrwt beam="1">  1        1 0.23276148E-01 0.17617317E+03</pdfrwt>
<pdfrwt beam="2">  1       -1 0.32688173E-01 0.17617317E+03</pdfrwt>
<totfact> 0.18217420E+03</totfact>
</mgrwt>
</event>
<event>
12    1  0.4154313E-002  0.1942713E+03  0.7546771E-02  0.1154664E+00
          3   -1    0    0  502    0  0.00000000000E+00  0.00000000000E+00  0.56313324134E+02  0.56313324134E+02  0.00000000000E+00 0.  1.
         -3   -1    0    0    0  501 -0.00000000000E+00 -0.00000000000E+00 -0.67351409367E+03  0.67351409367E+03  0.00000000000E+00 0. -1.
          6    2    1    2  502    0  0.12250857617E+02 -0.88244141453E+02 -0.28226282525E+03  0.34238223084E+03  0.17209351372E+03 0.  0.
         24    2    3    3    0    0  0.40935033441E+02 -0.11238897673E+03 -0.16495174253E+03  0.21913558731E+03  0.80649669606E+02 0.  0.
         -6    2    1    2    0  501 -0.12250857617E+02  0.88244141453E+02 -0.33493794429E+03  0.38744518697E+03  0.17318554895E+03 0.  0.
        -24    2    5    5    0    0  0.93609329879E+01  0.80263043570E+02 -0.10425189309E+03  0.15556394229E+03  0.82473630317E+02 0.  0.
          5    1    3    3  502    0 -0.28684175824E+02  0.24144835277E+02 -0.11731108272E+03  0.12324664353E+03  0.47000000000E+01 0. -1.
        -11    1    4    4    0    0 -0.22494021930E+02 -0.44457671565E+02 -0.43059528097E+02  0.65852779315E+02  0.00000000000E+00 0.  1.
         12    1    4    4    0    0  0.63429055370E+02 -0.67931305164E+02 -0.12189221443E+03  0.15328280799E+03  0.00000000000E+00 0. -1.
         -5    1    5    5    0  501 -0.21611790605E+02  0.79810978825E+01 -0.23068605120E+03  0.23188124468E+03  0.47000000000E+01 0.  1.
         11    1    6    6    0    0  0.30652060061E+02  0.60771326090E+02 -0.10673641869E+03  0.12659133437E+03  0.00000000000E+00 0. -1.
        -12    1    6    6    0    0 -0.21291127073E+02  0.19491717480E+02  0.24845256039E+01  0.28972607923E+02  0.00000000000E+00 0.  1.
<mgrwt>
<rscale>  2 0.19427132E+03</rscale>
<asrwt>0</asrwt>
<pdfrwt beam="1">  1        3 0.86635879E-02 0.19427132E+03</pdfrwt>
<pdfrwt beam="2">  1       -3 0.10361756E+00 0.19427132E+03</pdfrwt>
<totfact> 0.19003057E+02</totfact>
</mgrwt>
</event>
<event>
12    1  0.4154313E-002  0.1753170E+03  0.7546771E-02  0.1172414E+00
          2   -1    0    0  502    0  0.00000000000E+00  0.00000000000E+00  0.20365933128E+04  0.20365933128E+04  0.00000000000E+00 0.  1.
         -2   -1    0    0    0  501 -0.00000000000E+00 -0.00000000000E+00 -0.16675212981E+02  0.16675212981E+02  0.00000000000E+00 0. -1.
          6    2    1    2  502    0 -0.30225891529E+02  0.19336751747E+02  0.13411986919E+04  0.13529967705E+04  0.17463910054E+03 0.  0.
         24    2    3    3    0    0 -0.18179101429E+02  0.76832882054E+02  0.69884128828E+03  0.70794169216E+03  0.81046417565E+02 0.  0.
         -6    2    1    2    0  501  0.30225891529E+02 -0.19336751747E+02  0.67871940798E+03  0.70027175531E+03  0.16862082322E+03 0.  0.
        -24    2    5    5    0    0  0.10205849352E+00 -0.51716958017E+02  0.61374568493E+03  0.62153423082E+03  0.83344946768E+02 0.  0.
          5    1    3    3  502    0 -0.12046790100E+02 -0.57496130307E+02  0.64235740357E+03  0.64505507833E+03  0.47000000000E+01 0. -1.
        -13    1    4    4    0    0 -0.45798019000E+01  0.84022628833E+02  0.66991788190E+03  0.67518200896E+03  0.00000000000E+00 0.  1.
         14    1    4    4    0    0 -0.13599299529E+02 -0.71897467788E+01  0.28923406385E+02  0.32759683199E+02  0.00000000000E+00 0. -1.
         -5    1    5    5    0  501  0.30123833035E+02  0.32380206270E+02  0.64973723051E+02  0.78737524484E+02  0.47000000000E+01 0.  1.
         11    1    6    6    0    0  0.99178558277E+01 -0.42776480096E+02  0.12289997856E+03  0.13050898759E+03  0.00000000000E+00 0. -1.
        -12    1    6    6    0    0 -0.98157973342E+01 -0.89404779219E+01  0.49084570637E+03  0.49102524323E+03  0.00000000000E+00 0.  1.
<mgrwt>
<rscale>  2 0.17531703E+03</rscale>
<asrwt>0</asrwt>
<pdfrwt beam="1">  1        2 0.31332185E+00 0.17531703E+03</pdfrwt>
<pdfrwt beam="2">  1       -2 0.25654190E-02 0.17531703E+03</pdfrwt>
<totfact> 0.37990514E+03</totfact>
</mgrwt>
</event>
<event>
12    1  0.4154313E-002  0.2348426E+03  0.7546771E-02  0.1123277E+00
         -2   -1    0    0    0  501 -0.00000000000E+00  0.00000000000E+00  0.87075059876E+02  0.87075059876E+02  0.00000000000E+00 0.  1.
          2   -1    0    0  502    0  0.00000000000E+00 -0.00000000000E+00 -0.79635475468E+03  0.79635475468E+03  0.00000000000E+00 0. -1.
          6    2    1    2  502    0  0.75499506072E+02  0.13958226884E+03 -0.15462808424E+03  0.28105014451E+03  0.17290446524E+03 0.  0.
         24    2    3    3    0    0  0.20885712355E+02  0.72612502989E+02 -0.70512256527E+01  0.10996935894E+03  0.79591152464E+02 0.  0.
         -6    2    1    2    0  501 -0.75499506072E+02 -0.13958226884E+03 -0.55465161056E+03  0.60237967005E+03  0.17331899086E+03 0.  0.
        -24    2    5    5    0    0 -0.91035479376E+02 -0.32134933458E+02 -0.28340808323E+03  0.31017864768E+03  0.81058863722E+02 0.  0.
          5    1    3    3  502    0  0.54613793717E+02  0.66969765848E+02 -0.14757685859E+03  0.17108078557E+03  0.47000000000E+01 0. -1.
        -13    1    4    4    0    0  0.39575125264E+02  0.54157902799E+02  0.22201554492E+02  0.70655346557E+02  0.00000000000E+00 0.  1.
         14    1    4    4    0    0 -0.18689412909E+02  0.18454600191E+02 -0.29252780145E+02  0.39314012379E+02  0.00000000000E+00 0. -1.
         -5    1    5    5    0  501  0.15535973304E+02 -0.10744733538E+03 -0.27124352734E+03  0.29220102236E+03  0.47000000000E+01 0.  1.
         13    1    6    6    0    0 -0.83693908345E+02 -0.54834331112E+02 -0.20321791073E+03  0.22651488561E+03  0.00000000000E+00 0. -1.
        -14    1    6    6    0    0 -0.73415710314E+01  0.22699397654E+02 -0.80190172499E+02  0.83663762075E+02  0.00000000000E+00 0.  1.
<mgrwt>
<rscale>  2 0.23484261E+03</rscale>
<asrwt>0</asrwt>
<pdfrwt beam="2">  1        2 0.12251611E+00 0.23484261E+03</pdfrwt>
<pdfrwt beam="1">  1       -2 0.13396163E-01 0.23484261E+03</pdfrwt>
<totfact> 0.14724751E+03</totfact>
</mgrwt>
</event>
<event>
12    1  0.4154313E-002  0.1789275E+03  0.7546771E-02  0.1168845E+00
         -2   -1    0    0    0  501 -0.00000000000E+00  0.00000000000E+00  0.63517623865E+02  0.63517623865E+02  0.00000000000E+00 0.  1.
          2   -1    0    0  502    0  0.00000000000E+00 -0.00000000000E+00 -0.50892902998E+03  0.50892902998E+03  0.00000000000E+00 0. -1.
          6    2    1    2  502    0 -0.16085279709E+02 -0.42557131319E+02 -0.24995380679E+03  0.30701749327E+03  0.17237456307E+03 0.  0.
         24    2    3    3    0    0 -0.10952820012E+02 -0.88809458989E+02 -0.22250928502E+03  0.25278731963E+03  0.79899704468E+02 0.  0.
         -6    2    1    2    0  501  0.16085279709E+02  0.42557131319E+02 -0.19545759932E+03  0.26542916058E+03  0.17372138758E+03 0.  0.
        -24    2    5    5    0    0  0.76021571534E+02  0.13831939034E+02 -0.11338081830E+03  0.15971168930E+03  0.81743573847E+02 0.  0.
          5    1    3    3  502    0 -0.51324596967E+01  0.46252327670E+02 -0.27444521770E+02  0.54230173636E+02  0.47000000000E+01 0. -1.
        -11    1    4    4    0    0  0.30695157420E+02 -0.25008031886E+02 -0.47004229336E+02  0.61457236542E+02  0.00000000000E+00 0.  1.
         12    1    4    4    0    0 -0.41647977432E+02 -0.63801427103E+02 -0.17550505568E+03  0.19133008309E+03  0.00000000000E+00 0. -1.
         -5    1    5    5    0  501 -0.59936291825E+02  0.28725192285E+02 -0.82076781021E+02  0.10571747127E+03  0.47000000000E+01 0.  1.
         11    1    6    6    0    0 -0.37606234230E+01 -0.15083419228E+02 -0.53859583930E+02  0.56058064587E+02  0.00000000000E+00 0. -1.
        -12    1    6    6    0    0  0.79782194957E+02  0.28915358262E+02 -0.59521234372E+02  0.10365362472E+03  0.00000000000E+00 0.  1.
<mgrwt>
<rscale>  2 0.17892751E+03</rscale>
<asrwt>0</asrwt>
<pdfrwt beam="2">  1        2 0.78296771E-01 0.17892751E+03</pdfrwt>
<pdfrwt beam="1">  1       -2 0.97719425E-02 0.17892751E+03</pdfrwt>
<totfact> 0.41169518E+03</totfact>
</mgrwt>
</event>
<event>
12    1  0.4154313E-002  0.1787523E+03  0.7546771E-02  0.1169016E+00
         -1   -1    0    0    0  501 -0.00000000000E+00  0.00000000000E+00  0.33179988795E+02  0.33179988795E+02  0.00000000000E+00 0.  1.
          1   -1    0    0  502    0  0.00000000000E+00 -0.00000000000E+00 -0.11914872602E+04  0.11914872602E+04  0.00000000000E+00 0. -1.
          6    2    1    2  502    0 -0.20910750494E+02  0.36487847451E+02 -0.31933070253E+03  0.36749485387E+03  0.17695125753E+03 0.  0.
         24    2    3    3    0    0  0.46772086881E+02 -0.13773369014E+02 -0.20301930554E+03  0.22376737763E+03  0.80483955322E+02 0.  0.
         -6    2    1    2    0  501  0.20910750494E+02 -0.36487847451E+02 -0.83897656892E+03  0.85717239517E+03  0.17057024756E+03 0.  0.
        -24    2    5    5    0    0  0.73905938131E+01  0.42569066214E+02 -0.51840194792E+03  0.52668341221E+03  0.82389870789E+02 0.  0.
          5    1    3    3  502    0 -0.67682837375E+02  0.50261216465E+02 -0.11631139699E+03  0.14372747624E+03  0.47000000000E+01 0. -1.
        -11    1    4    4    0    0  0.35118960340E+02 -0.61899796004E+01 -0.21341998417E+02  0.41558851274E+02  0.00000000000E+00 0.  1.
         12    1    4    4    0    0  0.11653126541E+02 -0.75833894136E+01 -0.18167730712E+03  0.18220852636E+03  0.00000000000E+00 0. -1.
         -5    1    5    5    0  501  0.13520156681E+02 -0.79056913666E+02 -0.32057462100E+03  0.33048898297E+03  0.47000000000E+01 0.  1.
         13    1    6    6    0    0  0.42959255702E+02  0.14235096097E+02 -0.31680717423E+03  0.32002331361E+03  0.00000000000E+00 0. -1.
        -14    1    6    6    0    0 -0.35568661889E+02  0.28333970117E+02 -0.20159477370E+03  0.20666009860E+03  0.00000000000E+00 0.  1.
<mgrwt>
<rscale>  2 0.17875226E+03</rscale>
<asrwt>0</asrwt>
<pdfrwt beam="2">  1        1 0.18330573E+00 0.17875226E+03</pdfrwt>
<pdfrwt beam="1">  1       -1 0.51046138E-02 0.17875226E+03</pdfrwt>
<totfact> 0.19760422E+03</totfact>
</mgrwt>
</event>
<event>
12    1  0.4154313E-002  0.2897823E+03  0.7546771E-02  0.1090463E+00
          2   -1    0    0  502    0  0.00000000000E+00  0.00000000000E+00  0.29416661009E+03  0.29416661009E+03  0.00000000000E+00 0. -1.
         -2   -1    0    0    0  501 -0.00000000000E+00 -0.00000000000E+00 -0.30605858906E+03  0.30605858906E+03  0.00000000000E+00 0.  1.
          6    2    1    2  502    0 -0.14873320921E+03  0.17753031865E+03 -0.83765602893E+02  0.30052985599E+03  0.17222931386E+03 0.  0.
         24    2    3    3    0    0 -0.34241604224E+02  0.38493370032E+02 -0.72569001222E+02  0.12001100772E+03  0.80511831669E+02 0.  0.
         -6    2    1    2    0  501  0.14873320921E+03 -0.17753031865E+03  0.71873623925E+02  0.29969534315E+03  0.17610479644E+03 0.  0.
        -24    2    5    5    0    0  0.11002552456E+02 -0.74845411173E+02  0.63196260146E+02  0.12761596997E+03  0.81050458113E+02 0.  0.
          5    1    3    3  502    0 -0.11449160498E+03  0.13903694862E+03 -0.11196601671E+02  0.18051884827E+03  0.47000000000E+01 0. -1.
        -13    1    4    4    0    0 -0.56249726577E+02  0.44183434618E+02 -0.45989665985E+02  0.85036797988E+02  0.00000000000E+00 0.  1.
         14    1    4    4    0    0  0.22008122353E+02 -0.56900645868E+01 -0.26579335237E+02  0.34974209729E+02  0.00000000000E+00 0. -1.
         -5    1    5    5    0  501  0.13773065675E+03 -0.10268490748E+03  0.86773637791E+01  0.17207937318E+03  0.47000000000E+01 0.  1.
         13    1    6    6    0    0  0.32430523803E+02 -0.71715442546E+02  0.23069287954E+02  0.82018507792E+02  0.00000000000E+00 0. -1.
        -14    1    6    6    0    0 -0.21427971347E+02 -0.31299686269E+01  0.40126972192E+02  0.45597462177E+02  0.00000000000E+00 0.  1.
<mgrwt>
<rscale>  2 0.28978231E+03</rscale>
<asrwt>0</asrwt>
<pdfrwt beam="1">  1        2 0.45256401E-01 0.28978231E+03</pdfrwt>
<pdfrwt beam="2">  1       -2 0.47085937E-01 0.28978231E+03</pdfrwt>
<totfact> 0.48581672E+02</totfact>
</mgrwt>
</event>
<event>
11    1  0.4154313E-002  0.2039461E+03  0.7546771E-02  0.1146452E+00
         -3   -1    0    0    0  501 -0.00000000000E+00  0.00000000000E+00  0.21628462296E+03  0.21628462296E+03  0.00000000000E+00 0.  1.
          3   -1    0    0  502    0  0.00000000000E+00 -0.00000000000E+00 -0.19619278359E+03  0.19619278359E+03  0.00000000000E+00 0. -1.
          6    2    1    2  502    0 -0.10207400837E+03  0.37313357945E+02 -0.18954078617E+02  0.20497794582E+03  0.17275795585E+03 0.  0.
         24    2    3    3    0    0 -0.51912528621E+02  0.13916399445E+02  0.57427313744E+02  0.11053325927E+03  0.77660338912E+02 0.  0.
         -6    2    1    2    0  501  0.10207400837E+03 -0.37313357945E+02  0.39045917982E+02  0.20749946073E+03  0.17239504815E+03 0.  0.
          5    1    3    3  502    0 -0.50161479754E+02  0.23396958500E+02 -0.76381392361E+02  0.94444686548E+02  0.47000000000E+01 0. -1.
        -11    1    4    4    0    0 -0.66496005630E+02  0.22338587607E+02  0.25875064359E+02  0.74767975876E+02  0.00000000000E+00 0.  1.
         12    1    4    4    0    0  0.14583477008E+02 -0.84221881623E+01  0.31552249385E+02  0.35765283395E+02  0.00000000000E+00 0. -1.
         -5    1    5    5    0  501  0.13503447636E+03 -0.50188081628E+02 -0.12158456612E+02  0.14464809508E+03  0.47000000000E+01 0.  1.
         13    1    5    5    0    0 -0.29624907246E+02  0.11010974404E+02  0.39790776015E+02  0.50815180237E+02  0.00000000000E+00 0. -1.
        -14    1    5    5    0    0 -0.33355607375E+01  0.18637492781E+01  0.11413598579E+02  0.12036185414E+02  0.00000000000E+00 0.  1.
<mgrwt>
<rscale>  2 0.20394613E+03</rscale>
<asrwt>0</asrwt>
<pdfrwt beam="2">  1        3 0.30183505E-01 0.20394613E+03</pdfrwt>
<pdfrwt beam="1">  1       -3 0.33274557E-01 0.20394613E+03</pdfrwt>
<totfact> 0.22955538E+02</totfact>
</mgrwt>
</event>
<event>
12    1  0.4154313E-002  0.2113343E+03  0.7546771E-02  0.1140514E+00
         -2   -1    0    0    0  501 -0.00000000000E+00  0.00000000000E+00  0.16366104477E+03  0.16366104477E+03  0.00000000000E+00 0.  1.
          2   -1    0    0  502    0  0.00000000000E+00 -0.00000000000E+00 -0.31857136101E+03  0.31857136101E+03  0.00000000000E+00 0. -1.
          6    2    1    2  502    0  0.11651202133E+03  0.34733899665E+02  0.14062124151E+02  0.21110160507E+03  0.17200188786E+03 0.  0.
         24    2    3    3    0    0  0.14342716098E+03  0.10486948020E+02 -0.14011739467E+02  0.16503023408E+03  0.79732820915E+02 0.  0.
         -6    2    1    2    0  501 -0.11651202133E+03 -0.34733899665E+02 -0.16897244039E+03  0.27113080071E+03  0.17372026532E+03 0.  0.
        -24    2    5    5    0    0 -0.41266926962E+02 -0.43574026937E+02 -0.17360511945E+02  0.10157774435E+03  0.80093668211E+02 0.  0.
          5    1    3    3  502    0 -0.26915139651E+02  0.24246951645E+02  0.28073863618E+02  0.46071370990E+02  0.47000000000E+01 0. -1.
        -11    1    4    4    0    0  0.88428115741E+01 -0.21021935169E+02  0.97078011717E+01  0.24786255836E+02  0.00000000000E+00 0.  1.
         12    1    4    4    0    0  0.13458434941E+03  0.31508883189E+02 -0.23719540638E+02  0.14024397824E+03  0.00000000000E+00 0. -1.
         -5    1    5    5    0  501 -0.75245094367E+02  0.88401272716E+01 -0.15161192844E+03  0.16955305636E+03  0.47000000000E+01 0.  1.
         13    1    6    6    0    0 -0.37062857265E+02 -0.48955580885E+02 -0.43053481991E+02  0.74992710312E+02  0.00000000000E+00 0. -1.
        -14    1    6    6    0    0 -0.42040696967E+01  0.53815539477E+01  0.25692970046E+02  0.26585034036E+02  0.00000000000E+00 0.  1.
<mgrwt>
<rscale>  2 0.21133433E+03</rscale>
<asrwt>0</asrwt>
<pdfrwt beam="2">  1        2 0.49010978E-01 0.21133433E+03</pdfrwt>
<pdfrwt beam="1">  1       -2 0.25178622E-01 0.21133433E+03</pdfrwt>
<totfact> 0.14296303E+03</totfact>
</mgrwt>
</event>
<event>
12    1  0.4154313E-002  0.1782657E+03  0.7546771E-02  0.1169492E+00
          2   -1    0    0  502    0  0.00000000000E+00  0.00000000000E+00  0.16482858782E+04  0.16482858782E+04  0.00000000000E+00 0. -1.
         -2   -1    0    0    0  501 -0.00000000000E+00 -0.00000000000E+00 -0.64513879667E+02  0.64513879667E+02  0.00000000000E+00 0.  1.
          6    2    1    2  502    0  0.23613006880E+02 -0.25944497724E+02  0.77279044862E+02  0.19601259327E+03  0.17668671396E+03 0.  0.
         24    2    3    3    0    0  0.46963755496E+02 -0.78096811955E+02  0.36770553315E+02  0.12581181530E+03  0.78561013934E+02 0.  0.
         -6    2    1    2    0  501 -0.23613006880E+02  0.25944497724E+02  0.15064929537E+04  0.15167871646E+04  0.17289185106E+03 0.  0.
        -24    2    5    5    0    0  0.36352294793E+02 -0.97546992303E+01  0.49286871498E+03  0.50075249130E+03  0.80105204869E+02 0.  0.
          5    1    3    3  502    0 -0.23350748616E+02  0.52152314230E+02  0.40508491546E+02  0.70200777972E+02  0.47000000000E+01 0. -1.
        -11    1    4    4    0    0  0.53874517750E+01 -0.30758380765E+02 -0.23143548754E+02  0.38868064948E+02  0.00000000000E+00 0.  1.
         12    1    4    4    0    0  0.41576303721E+02 -0.47338431190E+02  0.59914102069E+02  0.86943750352E+02  0.00000000000E+00 0. -1.
         -5    1    5    5    0  501 -0.59965301673E+02  0.35699196954E+02  0.10136242387E+04  0.10160346733E+04  0.47000000000E+01 0.  1.
         13    1    6    6    0    0  0.38665416312E+02 -0.17326771354E+02  0.49072383679E+03  0.49254960706E+03  0.00000000000E+00 0. -1.
        -14    1    6    6    0    0 -0.23131215190E+01  0.75720721233E+01  0.21448781888E+01  0.82028842396E+01  0.00000000000E+00 0.  1.
<mgrwt>
<rscale>  2 0.17826571E+03</rscale>
<asrwt>0</asrwt>
<pdfrwt beam="1">  1        2 0.25358241E+00 0.17826571E+03</pdfrwt>
<pdfrwt beam="2">  1       -2 0.99252135E-02 0.17826571E+03</pdfrwt>
<totfact> 0.77503444E+02</totfact>
</mgrwt>
</event>
<event>
12    1  0.4154313E-002  0.2630008E+03  0.7546771E-02  0.1105354E+00
          1   -1    0    0  502    0  0.00000000000E+00  0.00000000000E+00  0.52854231328E+03  0.52854231328E+03  0.00000000000E+00 0. -1.
         -1   -1    0    0    0  501 -0.00000000000E+00 -0.00000000000E+00 -0.13203086530E+03  0.13203086530E+03  0.00000000000E+00 0.  1.
          6    2    1    2  502    0 -0.12719913009E+03  0.15142182080E+03  0.16724077842E+03  0.31164607443E+03  0.17333669903E+03 0.  0.
         24    2    3    3    0    0 -0.20990415667E+02  0.86650452976E+01  0.36259043386E+02  0.90652651714E+02  0.79921864816E+02 0.  0.
         -6    2    1    2    0  501  0.12719913009E+03 -0.15142182080E+03  0.22927066956E+03  0.34892710415E+03  0.17342692287E+03 0.  0.
        -24    2    5    5    0    0  0.52930111449E+02 -0.11601575110E+03  0.62618227095E+02  0.16301152255E+03  0.79940371012E+02 0.  0.
          5    1    3    3  502    0 -0.10620871442E+03  0.14275677551E+03  0.13098173504E+03  0.22099342272E+03  0.47000000000E+01 0. -1.
        -11    1    4    4    0    0 -0.16399433967E+02  0.27444770556E+02  0.55070421601E+02  0.63678161096E+02  0.00000000000E+00 0.  1.
         12    1    4    4    0    0 -0.45909817003E+01 -0.18779725258E+02 -0.18811378215E+02  0.26974490618E+02  0.00000000000E+00 0. -1.
         -5    1    5    5    0  501  0.74269018639E+02 -0.35406069708E+02  0.16665244247E+03  0.18591558160E+03  0.47000000000E+01 0.  1.
         13    1    6    6    0    0  0.28587129134E+02 -0.30894859824E+02  0.61433767379E+02  0.74470289982E+02  0.00000000000E+00 0. -1.
        -14    1    6    6    0    0  0.24342982315E+02 -0.85120891272E+02  0.11844597162E+01  0.88541232563E+02  0.00000000000E+00 0.  1.
<mgrwt>
<rscale>  2 0.26300083E+03</rscale>
<asrwt>0</asrwt>
<pdfrwt beam="1">  1        1 0.81314201E-01 0.26300083E+03</pdfrwt>
<pdfrwt beam="2">  1       -1 0.20312441E-01 0.26300083E+03</pdfrwt>
<totfact> 0.82590585E+02</totfact>
</mgrwt>
</event>
<event>
12    1  0.4154313E-002  0.2569140E+03  0.7546771E-02  0.1109012E+00
         -3   -1    0    0    0  501 -0.00000000000E+00  0.00000000000E+00  0.33511109411E+03  0.33511109411E+03  0.00000000000E+00 0.  1.
          3   -1    0    0  502    0  0.00000000000E+00 -0.00000000000E+00 -0.19861787737E+03  0.19861787737E+03  0.00000000000E+00 0. -1.
          6    2    1    2  502    0 -0.10362820617E+03  0.16035386748E+03  0.44139699847E+02  0.26153540774E+03  0.17320591350E+03 0.  0.
         24    2    3    3    0    0 -0.12053406314E+03  0.15787515874E+03  0.74232522566E+02  0.22661234980E+03  0.79935371095E+02 0.  0.
         -6    2    1    2    0  501  0.10362820617E+03 -0.16035386748E+03  0.92353516892E+02  0.27219356373E+03  0.17061065653E+03 0.  0.
        -24    2    5    5    0    0  0.29284939972E+02 -0.11727858251E+03 -0.79832652696E+00  0.14537969486E+03  0.80763511117E+02 0.  0.
          5    1    3    3  502    0  0.16905856968E+02  0.24787087413E+01 -0.30092822718E+02  0.34923057942E+02  0.47000000000E+01 0. -1.
        -11    1    4    4    0    0 -0.47679818711E+02  0.16738848332E+02  0.39223638932E+02  0.63969117603E+02  0.00000000000E+00 0.  1.
         12    1    4    4    0    0 -0.72854244427E+02  0.14113631041E+03  0.35008883633E+02  0.16264323220E+03  0.00000000000E+00 0. -1.
         -5    1    5    5    0  501  0.74343266198E+02 -0.43075284966E+02  0.93151843419E+02  0.12681386886E+03  0.47000000000E+01 0.  1.
         11    1    6    6    0    0 -0.23638513793E+02 -0.56475867741E+02 -0.16158850096E+02  0.63319913202E+02  0.00000000000E+00 0. -1.
        -12    1    6    6    0    0  0.52923453765E+02 -0.60802714774E+02  0.15360523569E+02  0.82059781663E+02  0.00000000000E+00 0.  1.
<mgrwt>
<rscale>  2 0.25691400E+03</rscale>
<asrwt>0</asrwt>
<pdfrwt beam="2">  1        3 0.30556596E-01 0.25691400E+03</pdfrwt>
<pdfrwt beam="1">  1       -3 0.51555553E-01 0.25691400E+03</pdfrwt>
<totfact> 0.97162678E+01</totfact>
</mgrwt>
</event>
<event>
12    1  0.4154313E-002  0.2017562E+03  0.7546771E-02  0.1148266E+00
          2   -1    0    0  502    0  0.00000000000E+00  0.00000000000E+00  0.21785138850E+03  0.21785138850E+03  0.00000000000E+00 0.  1.
         -2   -1    0    0    0  501 -0.00000000000E+00 -0.00000000000E+00 -0.24876838270E+03  0.24876838270E+03  0.00000000000E+00 0. -1.
          6    2    1    2  502    0 -0.15549995318E+02  0.10590360183E+03  0.10092496733E+03  0.22580844480E+03  0.17130741221E+03 0.  0.
         24    2    3    3    0    0 -0.90265324416E+01  0.12358776084E+03  0.27667201809E+02  0.15001876703E+03  0.79904589905E+02 0.  0.
         -6    2    1    2    0  501  0.15549995318E+02 -0.10590360183E+03 -0.13184196153E+03  0.24081132641E+03  0.17073493161E+03 0.  0.
        -24    2    5    5    0    0  0.45031355898E+02 -0.68140272694E+02 -0.14319652984E+03  0.19135188979E+03  0.97156470661E+02 0.  0.
          5    1    3    3  502    0 -0.65234628761E+01 -0.17684159011E+02  0.73257765516E+02  0.75789677769E+02  0.47000000000E+01 0. -1.
        -11    1    4    4    0    0  0.24766794090E+02  0.10057654592E+03  0.33178088645E+02  0.10876498170E+03  0.00000000000E+00 0.  1.
         12    1    4    4    0    0 -0.33793326531E+02  0.23011214920E+02 -0.55108868356E+01  0.41253785328E+02  0.00000000000E+00 0. -1.
         -5    1    5    5    0  501 -0.29481360580E+02 -0.37763329134E+02  0.11354568314E+02  0.49459436617E+02  0.47000000000E+01 0.  1.
         13    1    6    6    0    0  0.40927143091E+02 -0.76588301830E+01 -0.11901153332E+03  0.12608502601E+03  0.00000000000E+00 0. -1.
        -14    1    6    6    0    0  0.41042128067E+01 -0.60481442511E+02 -0.24184996523E+02  0.65266863781E+02  0.00000000000E+00 0.  1.
<mgrwt>
<rscale>  2 0.20175624E+03</rscale>
<asrwt>0</asrwt>
<pdfrwt beam="1">  1        2 0.33515598E-01 0.20175624E+03</pdfrwt>
<pdfrwt beam="2">  1       -2 0.38272059E-01 0.20175624E+03</pdfrwt>
<totfact> 0.10018549E+03</totfact>
</mgrwt>
</event>
<event>
12    1  0.4154313E-002  0.2346901E+03  0.7546771E-02  0.1123382E+00
          1   -1    0    0  502    0  0.00000000000E+00  0.00000000000E+00  0.63512474648E+03  0.63512474648E+03  0.00000000000E+00 0.  1.
         -1   -1    0    0    0  501 -0.00000000000E+00 -0.00000000000E+00 -0.86896853933E+02  0.86896853933E+02  0.00000000000E+00 0. -1.
          6    2    1    2  502    0 -0.15072059354E+03 -0.48943037814E+02  0.25751801745E+03  0.34817395320E+03  0.17261939087E+03 0.  0.
         24    2    3    3    0    0 -0.16137541423E+03 -0.75928868263E+02  0.25110053886E+03  0.31809016553E+03  0.79515127117E+02 0.  0.
         -6    2    1    2    0  501  0.15072059354E+03  0.48943037814E+02  0.29070987510E+03  0.37384764722E+03  0.17360217045E+03 0.  0.
        -24    2    5    5    0    0  0.16814440401E+03  0.73052692400E+02  0.22810972837E+03  0.30438015132E+03  0.83689855271E+02 0.  0.
          5    1    3    3  502    0  0.10654820682E+02  0.26985830448E+02  0.64174785911E+01  0.30083787664E+02  0.47000000000E+01 0. -1.
        -13    1    4    4    0    0 -0.97263339153E+02 -0.32841460017E+02  0.79290181670E+02  0.12971372922E+03  0.00000000000E+00 0.  1.
         14    1    4    4    0    0 -0.64112075073E+02 -0.43087408246E+02  0.17181035719E+03  0.18837643631E+03  0.00000000000E+00 0. -1.
         -5    1    5    5    0  501 -0.17423810470E+02 -0.24109654586E+02  0.62600146734E+02  0.69467495900E+02  0.47000000000E+01 0.  1.
         13    1    6    6    0    0  0.83970150311E+02  0.29034157130E+02  0.17320784285E+03  0.19466618928E+03  0.00000000000E+00 0. -1.
        -14    1    6    6    0    0  0.84174253703E+02  0.44018535270E+02  0.54901885514E+02  0.10971396204E+03  0.00000000000E+00 0.  1.
<mgrwt>
<rscale>  2 0.23469009E+03</rscale>
<asrwt>0</asrwt>
<pdfrwt beam="1">  1        1 0.97711497E-01 0.23469009E+03</pdfrwt>
<pdfrwt beam="2">  1       -1 0.13368747E-01 0.23469009E+03</pdfrwt>
<totfact> 0.12532342E+03</totfact>
</mgrwt>
</event>
<event>
12    1  0.4154313E-002  0.2175102E+03  0.7546771E-02  0.1135753E+00
         -1   -1    0    0    0  501 -0.00000000000E+00  0.00000000000E+00  0.53886434410E+03  0.53886434410E+03  0.00000000000E+00 0. -1.
          1   -1    0    0  502    0  0.00000000000E+00 -0.00000000000E+00 -0.92890911250E+02  0.92890911250E+02  0.00000000000E+00 0.  1.
          6    2    1    2  502    0  0.12096944031E+03  0.51533637955E+02  0.29674235290E+03  0.36779162738E+03  0.17298940962E+03 0.  0.
         24    2    3    3    0    0  0.38961381882E+02 -0.26444926521E+02  0.19068447511E+03  0.21262609769E+03  0.81436877111E+02 0.  0.
         -6    2    1    2    0  501 -0.12096944031E+03 -0.51533637955E+02  0.14923107994E+03  0.26396362796E+03  0.17354411640E+03 0.  0.
        -24    2    5    5    0    0 -0.13659643510E+02  0.18051241028E+02  0.90894478304E+02  0.12331265227E+03  0.80198322055E+02 0.  0.
          5    1    3    3  502    0  0.82008058423E+02  0.77978564476E+02  0.10605787780E+03  0.15516552970E+03  0.47000000000E+01 0. -1.
        -11    1    4    4    0    0  0.78623386222E+01 -0.27986241522E+02  0.12334115304E+02  0.31578101327E+02  0.00000000000E+00 0.  1.
         12    1    4    4    0    0  0.31099043260E+02  0.15413150005E+01  0.17835035980E+03  0.18104799636E+03  0.00000000000E+00 0. -1.
         -5    1    5    5    0  501 -0.10730979680E+03 -0.69584878983E+02  0.58336601640E+02  0.14065097569E+03  0.47000000000E+01 0.  1.
         11    1    6    6    0    0 -0.57852458009E+01 -0.24909921909E+02  0.37647673374E+01  0.25848534806E+02  0.00000000000E+00 0. -1.
        -12    1    6    6    0    0 -0.78743977087E+01  0.42961162937E+02  0.87129710967E+02  0.97464117465E+02  0.00000000000E+00 0.  1.
<mgrwt>
<rscale>  2 0.21751016E+03</rscale>
<asrwt>0</asrwt>
<pdfrwt beam="2">  1        1 0.14290910E-01 0.21751016E+03</pdfrwt>
<pdfrwt beam="1">  1       -1 0.82902205E-01 0.21751016E+03</pdfrwt>
<totfact> 0.60178811E+02</totfact>
</mgrwt>
</event>
<event>
12    1  0.4154313E-002  0.1799105E+03  0.7546771E-02  0.1167890E+00
         -2   -1    0    0    0  501 -0.00000000000E+00  0.00000000000E+00  0.23547671693E+03  0.23547671693E+03  0.00000000000E+00 0.  1.
          2   -1    0    0  502    0  0.00000000000E+00 -0.00000000000E+00 -0.14065630221E+03  0.14065630221E+03  0.00000000000E+00 0. -1.
          6    2    1    2  502    0  0.31106431746E+02 -0.45022478002E+02  0.18535629305E+02  0.17848371771E+03  0.16887342690E+03 0.  0.
         24    2    3    3    0    0  0.47550465127E+02  0.14921603205E+02  0.51889638874E+02  0.10778520952E+03  0.80258431290E+02 0.  0.
         -6    2    1    2    0  501 -0.31106431746E+02  0.45022478002E+02  0.76284785412E+02  0.19764930143E+03  0.17392884824E+03 0.  0.
        -24    2    5    5    0    0  0.41435866840E+02  0.92929965366E+01  0.85725154636E+01  0.92074577035E+02  0.81246223724E+02 0.  0.
          5    1    3    3  502    0 -0.16444033382E+02 -0.59944081207E+02 -0.33354009569E+02  0.70698508188E+02  0.47000000000E+01 0. -1.
        -11    1    4    4    0    0  0.66625661811E+02 -0.47112832971E+01  0.40681629349E+02  0.78205945865E+02  0.00000000000E+00 0.  1.
         12    1    4    4    0    0 -0.19075196684E+02  0.19632886502E+02  0.11208009525E+02  0.29579263657E+02  0.00000000000E+00 0. -1.
         -5    1    5    5    0  501 -0.72542298585E+02  0.35729481466E+02  0.67712269949E+02  0.10557472440E+03  0.47000000000E+01 0.  1.
         11    1    6    6    0    0  0.53500412590E+02  0.32890981280E+02  0.15488546483E+02  0.64683891882E+02  0.00000000000E+00 0. -1.
        -12    1    6    6    0    0 -0.12064545751E+02 -0.23597984743E+02 -0.69160310192E+01  0.27390685153E+02  0.00000000000E+00 0.  1.
<mgrwt>
<rscale>  2 0.17991047E+03</rscale>
<asrwt>0</asrwt>
<pdfrwt beam="2">  1        2 0.21639431E-01 0.17991047E+03</pdfrwt>
<pdfrwt beam="1">  1       -2 0.36227187E-01 0.17991047E+03</pdfrwt>
<totfact> 0.17965708E+03</totfact>
</mgrwt>
</event>
<event>
12    1  0.4154313E-002  0.2662981E+03  0.7546771E-02  0.1103417E+00
          1   -1    0    0  502    0  0.00000000000E+00  0.00000000000E+00  0.70097523367E+03  0.70097523367E+03  0.00000000000E+00 0. -1.
         -1   -1    0    0    0  501 -0.00000000000E+00 -0.00000000000E+00 -0.11743844940E+03  0.11743844940E+03  0.00000000000E+00 0.  1.
          6    2    1    2  502    0  0.16638863829E+03  0.11598420374E+03  0.13922410568E+03  0.30028894381E+03  0.17219925581E+03 0.  0.
         24    2    3    3    0    0  0.17127898684E+03  0.62608669447E+02  0.66104079118E+02  0.20950628327E+03  0.79163101437E+02 0.  0.
         -6    2    1    2    0  501 -0.16638863829E+03 -0.11598420374E+03  0.44431267859E+03  0.51812473927E+03  0.17292187431E+03 0.  0.
        -24    2    5    5    0    0 -0.12510105460E+03 -0.14971205371E+03  0.32874073935E+03  0.39076228180E+03  0.80998236323E+02 0.  0.
          5    1    3    3  502    0 -0.48903485507E+01  0.53375534293E+02  0.73120026566E+02  0.90782660541E+02  0.47000000000E+01 0. -1.
        -11    1    4    4    0    0 -0.50420454674E+01  0.14308148108E+02  0.19626177681E+00  0.15171810816E+02  0.00000000000E+00 0.  1.
         12    1    4    4    0    0  0.17632103231E+03  0.48300521339E+02  0.65907817341E+02  0.19433447245E+03  0.00000000000E+00 0. -1.
         -5    1    5    5    0  501 -0.41287583693E+02  0.33727849967E+02  0.11557193925E+03  0.12736245747E+03  0.47000000000E+01 0.  1.
         13    1    6    6    0    0 -0.12364534175E+01 -0.86772133756E+01 -0.32776580674E+01  0.93576648490E+01  0.00000000000E+00 0. -1.
        -14    1    6    6    0    0 -0.12386460118E+03 -0.14103484033E+03  0.33201839741E+03  0.38140461695E+03  0.00000000000E+00 0.  1.
<mgrwt>
<rscale>  2 0.26629811E+03</rscale>
<asrwt>0</asrwt>
<pdfrwt beam="1">  1        1 0.10784234E+00 0.26629811E+03</pdfrwt>
<pdfrwt beam="2">  1       -1 0.18067454E-01 0.26629811E+03</pdfrwt>
<totfact> 0.67240387E+02</totfact>
</mgrwt>
</event>
<event>
12    1  0.4154313E-002  0.1848423E+03  0.7546771E-02  0.1163197E+00
         -1   -1    0    0    0  501 -0.00000000000E+00  0.00000000000E+00  0.31769316867E+03  0.31769316867E+03  0.00000000000E+00 0. -1.
          1   -1    0    0  502    0  0.00000000000E+00 -0.00000000000E+00 -0.10765867957E+03  0.10765867957E+03  0.00000000000E+00 0.  1.
          6    2    1    2  502    0  0.62616567432E+02  0.12498516805E+01  0.97856399494E+02  0.20865995154E+03  0.17332254270E+03 0.  0.
         24    2    3    3    0    0 -0.29190252152E+02 -0.22442430758E+01  0.17509844177E+02  0.86519213976E+02  0.79510202466E+02 0.  0.
         -6    2    1    2    0  501 -0.62616567432E+02 -0.12498516805E+01  0.11217808960E+03  0.21669189670E+03  0.17449658353E+03 0.  0.
        -24    2    5    5    0    0  0.96048827263E+01  0.44313612977E+02  0.88035646601E+02  0.12782731023E+03  0.80830663122E+02 0.  0.
          5    1    3    3  502    0  0.91806819584E+02  0.34940947563E+01  0.80346555317E+02  0.12214073756E+03  0.47000000000E+01 0. -1.
        -11    1    4    4    0    0 -0.33274199352E+02 -0.10769495361E+02  0.45262927923E+02  0.57200410987E+02  0.00000000000E+00 0.  1.
         12    1    4    4    0    0  0.40839472005E+01  0.85252522855E+01 -0.27753083747E+02  0.29318802989E+02  0.00000000000E+00 0. -1.
         -5    1    5    5    0  501 -0.72221450159E+02 -0.45563464657E+02  0.24142443000E+02  0.88864586471E+02  0.47000000000E+01 0.  1.
         13    1    6    6    0    0 -0.17526212116E+02 -0.17668766470E+02  0.26765244525E+02  0.36547663868E+02  0.00000000000E+00 0. -1.
        -14    1    6    6    0    0  0.27131094843E+02  0.61982379447E+02  0.61270402077E+02  0.91279646362E+02  0.00000000000E+00 0.  1.
<mgrwt>
<rscale>  2 0.18484228E+03</rscale>
<asrwt>0</asrwt>
<pdfrwt beam="2">  1        1 0.16562874E-01 0.18484228E+03</pdfrwt>
<pdfrwt beam="1">  1       -1 0.48875872E-01 0.18484228E+03</pdfrwt>
<totfact> 0.13869290E+03</totfact>
</mgrwt>
</event>
<event>
12    1  0.4154313E-002  0.1791103E+03  0.7546771E-02  0.1168667E+00
         -1   -1    0    0    0  501 -0.00000000000E+00  0.00000000000E+00  0.53989428412E+03  0.53989428412E+03  0.00000000000E+00 0. -1.
          1   -1    0    0  502    0  0.00000000000E+00 -0.00000000000E+00 -0.11766249193E+03  0.11766249193E+03  0.00000000000E+00 0.  1.
          6    2    1    2  502    0 -0.16850631752E+02  0.45647914206E+02 -0.20332340558E+02  0.18003837200E+03  0.17214161455E+03 0.  0.
         24    2    3    3    0    0  0.17561786635E+01  0.93696261629E+02 -0.29358073573E+02  0.12751779565E+03  0.81343826548E+02 0.  0.
         -6    2    1    2    0  501  0.16850631752E+02 -0.45647914206E+02  0.44256413276E+03  0.47751840405E+03  0.17260689077E+03 0.  0.
        -24    2    5    5    0    0  0.10151544957E+02 -0.73798941781E+02  0.43385300516E+03  0.44693520831E+03  0.77287208943E+02 0.  0.
          5    1    3    3  502    0 -0.18606810415E+02 -0.48048347423E+02  0.90257330142E+01  0.52520576352E+02  0.47000000000E+01 0. -1.
        -11    1    4    4    0    0 -0.16173540715E+02  0.19310159394E+02 -0.42961836259E+02  0.49801456303E+02  0.00000000000E+00 0.  1.
         12    1    4    4    0    0  0.17929719379E+02  0.74386102234E+02  0.13603762687E+02  0.77716339349E+02  0.00000000000E+00 0. -1.
         -5    1    5    5    0  501  0.66990867946E+01  0.28151027575E+02  0.87111275912E+01  0.30583195734E+02  0.47000000000E+01 0.  1.
         13    1    6    6    0    0  0.63357823756E+00  0.15530867461E+02  0.10025797363E+03  0.10145575657E+03  0.00000000000E+00 0. -1.
        -14    1    6    6    0    0  0.95179667197E+01 -0.89329809242E+02  0.33359503153E+03  0.34547945174E+03  0.00000000000E+00 0.  1.
<mgrwt>
<rscale>  2 0.17911034E+03</rscale>
<asrwt>0</asrwt>
<pdfrwt beam="2">  1        1 0.18101922E-01 0.17911034E+03</pdfrwt>
<pdfrwt beam="1">  1       -1 0.83060658E-01 0.17911034E+03</pdfrwt>
<totfact> 0.44041426E+02</totfact>
</mgrwt>
</event>
<event>
12    1  0.4154313E-002  0.1806592E+03  0.7546771E-02  0.1167167E+00
          4   -1    0    0  502    0  0.00000000000E+00  0.00000000000E+00  0.19555584709E+02  0.19555584709E+02  0.00000000000E+00 0.  1.
         -4   -1    0    0    0  501 -0.00000000000E+00 -0.00000000000E+00 -0.18029285001E+04  0.18029285001E+04  0.00000000000E+00 0. -1.
          6    2    1    2  502    0  0.22334759020E+02 -0.42021433257E+02 -0.63659292279E+03  0.66132687059E+03  0.17273690429E+03 0.  0.
         24    2    3    3    0    0  0.21208110944E+02  0.33133474274E+02 -0.25376408984E+03  0.27116083568E+03  0.87088313939E+02 0.  0.
         -6    2    1    2    0  501 -0.22334759020E+02  0.42021433257E+02 -0.11467799926E+04  0.11611572142E+04  0.17583254076E+03 0.  0.
        -24    2    5    5    0    0  0.13012971366E+02  0.84532297229E+02 -0.92325237440E+03  0.93084585606E+03  0.82243627158E+02 0.  0.
          5    1    3    3  502    0  0.11266480761E+01 -0.75154907531E+02 -0.38282883295E+03  0.39016603491E+03  0.47000000000E+01 0. -1.
        -11    1    4    4    0    0 -0.12943801082E+02  0.18218321401E+02 -0.21918878905E+03  0.22032515623E+03  0.00000000000E+00 0.  1.
         12    1    4    4    0    0  0.34151912026E+02  0.14915152873E+02 -0.34575300789E+02  0.50835679447E+02  0.00000000000E+00 0. -1.
         -5    1    5    5    0  501 -0.35347730386E+02 -0.42510863972E+02 -0.22352761816E+03  0.23031135812E+03  0.47000000000E+01 0.  1.
         11    1    6    6    0    0 -0.77483192871E+01  0.42265035435E+02 -0.75230090592E+03  0.75352705507E+03  0.00000000000E+00 0. -1.
        -12    1    6    6    0    0  0.20761290653E+02  0.42267261794E+02 -0.17095146848E+03  0.17731880099E+03  0.00000000000E+00 0.  1.
<mgrwt>
<rscale>  2 0.18065919E+03</rscale>
<asrwt>0</asrwt>
<pdfrwt beam="1">  1        4 0.30085522E-02 0.18065919E+03</pdfrwt>
<pdfrwt beam="2">  1       -4 0.27737355E+00 0.18065919E+03</pdfrwt>
<totfact> 0.47586286E+01</totfact>
</mgrwt>
</event>
<event>
12    1  0.4154313E-002  0.1982664E+03  0.7546771E-02  0.1151210E+00
          1   -1    0    0  502    0  0.00000000000E+00  0.00000000000E+00  0.33505203538E+03  0.33505203538E+03  0.00000000000E+00 0. -1.
         -1   -1    0    0    0  501 -0.00000000000E+00 -0.00000000000E+00 -0.21378569342E+03  0.21378569342E+03  0.00000000000E+00 0.  1.
          6    2    1    2  502    0  0.11626853544E+02  0.93742491713E+02  0.24501503775E+03  0.31537090386E+03  0.17465279787E+03 0.  0.
         24    2    3    3    0    0  0.36299336416E+02  0.22992378024E+02  0.44338813304E+02  0.10111090513E+03  0.80069928811E+02 0.  0.
         -6    2    1    2    0  501 -0.11626853544E+02 -0.93742491713E+02 -0.12374869579E+03  0.23346682494E+03  0.17398327553E+03 0.  0.
        -24    2    5    5    0    0  0.26879709423E+02 -0.10361219671E+02 -0.11293102856E+02  0.88196241892E+02  0.82590370262E+02 0.  0.
          5    1    3    3  502    0 -0.24672482872E+02  0.70750113689E+02  0.20067622444E+03  0.21425999873E+03  0.47000000000E+01 0. -1.
        -11    1    4    4    0    0 -0.23351443171E+02  0.97549797919E+01 -0.51621878077E+00  0.25312368730E+02  0.00000000000E+00 0.  1.
         12    1    4    4    0    0  0.59650779586E+02  0.13237398232E+02  0.44855032085E+02  0.75798536401E+02  0.00000000000E+00 0. -1.
         -5    1    5    5    0  501 -0.38506562967E+02 -0.83381272042E+02 -0.11245559293E+03  0.14527058305E+03  0.47000000000E+01 0.  1.
         13    1    6    6    0    0  0.26791526826E+02 -0.37932917148E+02  0.16272097578E+02  0.49208467489E+02  0.00000000000E+00 0. -1.
        -14    1    6    6    0    0  0.88182597348E-01  0.27571697477E+02 -0.27565200435E+02  0.38987774403E+02  0.00000000000E+00 0.  1.
<mgrwt>
<rscale>  2 0.19826637E+03</rscale>
<asrwt>0</asrwt>
<pdfrwt beam="1">  1        1 0.51546467E-01 0.19826637E+03</pdfrwt>
<pdfrwt beam="2">  1       -1 0.32890107E-01 0.19826637E+03</pdfrwt>
<totfact> 0.66604116E+02</totfact>
</mgrwt>
</event>
<event>
12    1  0.4154313E-002  0.1954088E+03  0.7546771E-02  0.1153671E+00
         -2   -1    0    0    0  501 -0.00000000000E+00  0.00000000000E+00  0.11071866920E+03  0.11071866920E+03  0.00000000000E+00 0. -1.
          2   -1    0    0  502    0  0.00000000000E+00 -0.00000000000E+00 -0.34606263307E+03  0.34606263307E+03  0.00000000000E+00 0.  1.
          6    2    1    2  502    0 -0.80079628783E+02  0.46447676479E+02 -0.10365062980E+03  0.22010084249E+03  0.17067745666E+03 0.  0.
         24    2    3    3    0    0  0.11717338557E+02 -0.11528471825E+02 -0.42844495703E+02  0.95572159334E+02  0.83834271883E+02 0.  0.
         -6    2    1    2    0  501  0.80079628783E+02 -0.46447676479E+02 -0.13169333408E+03  0.23668045978E+03  0.17350611575E+03 0.  0.
        -24    2    5    5    0    0  0.12021377369E+02 -0.74393660241E+00 -0.13207767341E+03  0.15456471743E+03  0.79376779385E+02 0.  0.
          5    1    3    3  502    0 -0.91796967340E+02  0.57976148303E+02 -0.60806134098E+02  0.12452868316E+03  0.47000000000E+01 0. -1.
        -13    1    4    4    0    0  0.23540257794E+02 -0.37127550483E+02  0.38064877243E+00  0.43962980283E+02  0.00000000000E+00 0.  1.
         14    1    4    4    0    0 -0.11822919237E+02  0.25599078658E+02 -0.43225144475E+02  0.51609179051E+02  0.00000000000E+00 0. -1.
         -5    1    5    5    0  501  0.68058251414E+02 -0.45703739876E+02  0.38433933512E+00  0.82115742345E+02  0.47000000000E+01 0.  1.
         11    1    6    6    0    0  0.17744667024E+02 -0.12679715345E+02  0.16093440846E-01  0.21809370647E+02  0.00000000000E+00 0. -1.
        -12    1    6    6    0    0 -0.57232896548E+01  0.11935778743E+02 -0.13209376685E+03  0.13275534678E+03  0.00000000000E+00 0.  1.
<mgrwt>
<rscale>  2 0.19540884E+03</rscale>
<asrwt>0</asrwt>
<pdfrwt beam="2">  1        2 0.53240404E-01 0.19540884E+03</pdfrwt>
<pdfrwt beam="1">  1       -2 0.17033642E-01 0.19540884E+03</pdfrwt>
<totfact> 0.25523784E+03</totfact>
</mgrwt>
</event>
<event>
12    1  0.4154313E-002  0.1898115E+03  0.7546771E-02  0.1158631E+00
         -2   -1    0    0    0  501 -0.00000000000E+00  0.00000000000E+00  0.29792860059E+02  0.29792860059E+02  0.00000000000E+00 0.  1.
          2   -1    0    0  502    0  0.00000000000E+00 -0.00000000000E+00 -0.14268374743E+04  0.14268374743E+04  0.00000000000E+00 0. -1.
          6    2    1    2  502    0 -0.17553151982E+01  0.74860704839E+02 -0.98703831276E+03  0.10053781932E+04  0.17587914686E+03 0.  0.
         24    2    3    3    0    0 -0.47325959387E+02  0.58532262594E+01 -0.32814806028E+03  0.34130201497E+03  0.80820228099E+02 0.  0.
         -6    2    1    2    0  501  0.17553151982E+01 -0.74860704839E+02 -0.41000630144E+03  0.45125214109E+03  0.17296277449E+03 0.  0.
        -24    2    5    5    0    0 -0.48687480913E+02 -0.35012276609E+01 -0.27621628303E+03  0.29138185089E+03  0.78900054653E+02 0.  0.
          5    1    3    3  502    0  0.45570644188E+02  0.69007478579E+02 -0.65889025248E+03  0.66407617826E+03  0.47000000000E+01 0. -1.
        -11    1    4    4    0    0  0.11187953997E+01  0.35533015767E+02 -0.98121251237E+02  0.10436295730E+03  0.00000000000E+00 0.  1.
         12    1    4    4    0    0 -0.48444754786E+02 -0.29679789507E+02 -0.23002680904E+03  0.23693905767E+03  0.00000000000E+00 0. -1.
         -5    1    5    5    0  501  0.50442796112E+02 -0.71359477178E+02 -0.13379001840E+03  0.15987029019E+03  0.47000000000E+01 0.  1.
         13    1    6    6    0    0 -0.30013964864E+02 -0.21764978525E+02 -0.25513780912E+03  0.25781748199E+03  0.00000000000E+00 0. -1.
        -14    1    6    6    0    0 -0.18673516050E+02  0.18263750864E+02 -0.21078473910E+02  0.33564368900E+02  0.00000000000E+00 0.  1.
<mgrwt>
<rscale>  2 0.18981152E+03</rscale>
<asrwt>0</asrwt>
<pdfrwt beam="2">  1        2 0.21951351E+00 0.18981152E+03</pdfrwt>
<pdfrwt beam="1">  1       -2 0.45835159E-02 0.18981152E+03</pdfrwt>
<totfact> 0.33293542E+03</totfact>
</mgrwt>
</event>
<event>
12    1  0.4154313E-002  0.1804488E+03  0.7546771E-02  0.1167369E+00
         -2   -1    0    0    0  501 -0.00000000000E+00  0.00000000000E+00  0.32099846786E+03  0.32099846786E+03  0.00000000000E+00 0. -1.
          2   -1    0    0  502    0  0.00000000000E+00 -0.00000000000E+00 -0.21144178358E+03  0.21144178358E+03  0.00000000000E+00 0.  1.
          6    2    1    2  502    0 -0.53938485200E+02  0.75959822517E+01 -0.13716747801E+03  0.22706694295E+03  0.17256135264E+03 0.  0.
         24    2    3    3    0    0 -0.16145924137E+02  0.64930449545E+02 -0.50011877908E+02  0.11600971698E+03  0.80501008421E+02 0.  0.
         -6    2    1    2    0  501  0.53938485200E+02 -0.75959822517E+01  0.24672416229E+03  0.30537330849E+03  0.17150214618E+03 0.  0.
        -24    2    5    5    0    0  0.41443649762E+02  0.29737698147E+02  0.24802888142E+03  0.26570320770E+03  0.80485786099E+02 0.  0.
          5    1    3    3  502    0 -0.37792561063E+02 -0.57334467294E+02 -0.87155600103E+02  0.11105722597E+03  0.47000000000E+01 0. -1.
        -11    1    4    4    0    0 -0.11382277203E+02  0.15177953201E+02 -0.61810016037E+02  0.64656048287E+02  0.00000000000E+00 0.  1.
         12    1    4    4    0    0 -0.47636469348E+01  0.49752496344E+02  0.11798138128E+02  0.51353668690E+02  0.00000000000E+00 0. -1.
         -5    1    5    5    0  501  0.12494835438E+02 -0.37333680398E+02 -0.13047191291E+01  0.39670100790E+02  0.47000000000E+01 0.  1.
         13    1    6    6    0    0  0.11946707685E+02  0.53855942586E+02  0.17252886002E+03  0.18113363552E+03  0.00000000000E+00 0. -1.
        -14    1    6    6    0    0  0.29496942076E+02 -0.24118244439E+02  0.75500021406E+02  0.84569572181E+02  0.00000000000E+00 0.  1.
<mgrwt>
<rscale>  2 0.18044875E+03</rscale>
<asrwt>0</asrwt>
<pdfrwt beam="2">  1        2 0.32529505E-01 0.18044875E+03</pdfrwt>
<pdfrwt beam="1">  1       -2 0.49384380E-01 0.18044875E+03</pdfrwt>
<totfact> 0.63066097E+02</totfact>
</mgrwt>
</event>
<event>
12    1  0.4154313E-002  0.1977522E+03  0.7546771E-02  0.1151649E+00
         -1   -1    0    0    0  501 -0.00000000000E+00  0.00000000000E+00  0.44077176712E+02  0.44077176712E+02  0.00000000000E+00 0. -1.
          1   -1    0    0  502    0  0.00000000000E+00 -0.00000000000E+00 -0.95626306758E+03  0.95626306758E+03  0.00000000000E+00 0.  1.
          6    2    1    2  502    0 -0.33854572842E+02 -0.90509427526E+02 -0.59090336200E+03  0.62317616145E+03  0.17275316610E+03 0.  0.
         24    2    3    3    0    0 -0.26443256989E+02 -0.98565622879E+02 -0.59590188284E+03  0.61025698591E+03  0.83066882823E+02 0.  0.
         -6    2    1    2    0  501  0.33854572842E+02  0.90509427526E+02 -0.32128252887E+03  0.37716408284E+03  0.17231422883E+03 0.  0.
        -24    2    5    5    0    0 -0.22063135166E+02 -0.74767857376E+01 -0.15022517163E+03  0.17219872596E+03  0.80883340508E+02 0.  0.
          5    1    3    3  502    0 -0.74113158532E+01  0.80561953524E+01  0.49985208346E+01  0.12919175545E+02  0.47000000000E+01 0. -1.
        -13    1    4    4    0    0 -0.12734069711E+02  0.11625910902E+02 -0.13851914592E+03  0.13958822344E+03  0.00000000000E+00 0.  1.
         14    1    4    4    0    0 -0.13709187278E+02 -0.11019153378E+03 -0.45738273692E+03  0.47066876247E+03  0.00000000000E+00 0. -1.
         -5    1    5    5    0  501  0.55917708007E+02  0.97986213264E+02 -0.17105735724E+03  0.20496535688E+03  0.47000000000E+01 0.  1.
         11    1    6    6    0    0 -0.15440889850E+02  0.36508180637E+02 -0.73796427094E+02  0.83768615750E+02  0.00000000000E+00 0. -1.
        -12    1    6    6    0    0 -0.66222453154E+01 -0.43984966375E+02 -0.76428744537E+02  0.88430110209E+02  0.00000000000E+00 0.  1.
<mgrwt>
<rscale>  2 0.19775222E+03</rscale>
<asrwt>0</asrwt>
<pdfrwt beam="2">  1        1 0.14711739E+00 0.19775222E+03</pdfrwt>
<pdfrwt beam="1">  1       -1 0.67811044E-02 0.19775222E+03</pdfrwt>
<totfact> 0.19089826E+03</totfact>
</mgrwt>
</event>
<event>
12    1  0.4154313E-002  0.2290445E+03  0.7546771E-02  0.1127314E+00
          2   -1    0    0  502    0  0.00000000000E+00  0.00000000000E+00  0.35048427040E+04  0.35048427040E+04  0.00000000000E+00 0.  1.
         -2   -1    0    0    0  501 -0.00000000000E+00 -0.00000000000E+00 -0.16517936995E+02  0.16517936995E+02  0.00000000000E+00 0. -1.
          6    2    1    2  502    0 -0.14183844487E+03 -0.15721785620E+00  0.23129935272E+04  0.23247519809E+04  0.18551158099E+03 0.  0.
         24    2    3    3    0    0 -0.48657639849E+02  0.60303761633E+02  0.82711313905E+03  0.83471815231E+03  0.81450226659E+02 0.  0.
         -6    2    1    2    0  501  0.14183844487E+03  0.15721785620E+00  0.11753312398E+04  0.11966086601E+04  0.17421421579E+03 0.  0.
        -24    2    5    5    0    0  0.74157259875E+02  0.24052236477E+02  0.10123401876E+04  0.10184517410E+04  0.79583189572E+02 0.  0.
          5    1    3    3  502    0 -0.93180805025E+02 -0.60460979489E+02  0.14858803881E+04  0.14900338286E+04  0.47000000000E+01 0. -1.
        -11    1    4    4    0    0 -0.25375004764E+02  0.40690631399E+02  0.75395952494E+03  0.75548301344E+03  0.00000000000E+00 0.  1.
         12    1    4    4    0    0 -0.23282635085E+02  0.19613130234E+02  0.73153614110E+02  0.79235138868E+02  0.00000000000E+00 0. -1.
         -5    1    5    5    0  501  0.67681184999E+02 -0.23895018621E+02  0.16299105218E+03  0.17815691906E+03  0.47000000000E+01 0.  1.
         11    1    6    6    0    0  0.84576795780E+02  0.43604220128E+00  0.82901275714E+03  0.83331601210E+03  0.00000000000E+00 0. -1.
        -12    1    6    6    0    0 -0.10419535905E+02  0.23616194276E+02  0.18332743048E+03  0.18513572893E+03  0.00000000000E+00 0.  1.
<mgrwt>
<rscale>  2 0.22904454E+03</rscale>
<asrwt>0</asrwt>
<pdfrwt beam="1">  1        2 0.53920598E+00 0.22904454E+03</pdfrwt>
<pdfrwt beam="2">  1       -2 0.25412239E-02 0.22904454E+03</pdfrwt>
<totfact> 0.55243164E+02</totfact>
</mgrwt>
</event>
<event>
12    1  0.4154313E-002  0.2845206E+03  0.7546771E-02  0.1093245E+00
          1   -1    0    0  502    0  0.00000000000E+00  0.00000000000E+00  0.33000175948E+03  0.33000175948E+03  0.00000000000E+00 0.  1.
         -1   -1    0    0    0  501 -0.00000000000E+00 -0.00000000000E+00 -0.62006803762E+03  0.62006803762E+03  0.00000000000E+00 0. -1.
          6    2    1    2  502    0  0.30598206975E+02  0.22358057487E+03  0.22434843614E+03  0.36202379555E+03  0.17263975213E+03 0.  0.
         24    2    3    3    0    0  0.30258385733E+02  0.24527390522E+03  0.21564990802E+03  0.33818117717E+03  0.82381838258E+02 0.  0.
         -6    2    1    2    0  501 -0.30598206975E+02 -0.22358057487E+03 -0.51441471428E+03  0.58804600154E+03  0.17392837012E+03 0.  0.
        -24    2    5    5    0    0 -0.47858552902E+02 -0.17475547785E+03 -0.25979698770E+03  0.32817278952E+03  0.85866098304E+02 0.  0.
          5    1    3    3  502    0  0.33982124113E+00 -0.21693330345E+02  0.86985281216E+01  0.23842618384E+02  0.47000000000E+01 0. -1.
        -13    1    4    4    0    0  0.45545046626E+01  0.22811414595E+03  0.20060719952E+03  0.30380924212E+03  0.00000000000E+00 0.  1.
         14    1    4    4    0    0  0.25703881071E+02  0.17159759265E+02  0.15042708493E+02  0.34371935048E+02  0.00000000000E+00 0. -1.
         -5    1    5    5    0  501  0.17260345927E+02 -0.48825097029E+02 -0.25461772658E+03  0.25987321203E+03  0.47000000000E+01 0.  1.
         13    1    6    6    0    0 -0.77142703828E+01 -0.15585848329E+03 -0.20625028552E+03  0.25863208822E+03  0.00000000000E+00 0. -1.
        -14    1    6    6    0    0 -0.40144282519E+02 -0.18896994557E+02 -0.53546702176E+02  0.69540701292E+02  0.00000000000E+00 0.  1.
<mgrwt>
<rscale>  2 0.28452064E+03</rscale>
<asrwt>0</asrwt>
<pdfrwt beam="1">  1        1 0.50769501E-01 0.28452064E+03</pdfrwt>
<pdfrwt beam="2">  1       -1 0.95395083E-01 0.28452064E+03</pdfrwt>
<totfact> 0.87580711E+01</totfact>
</mgrwt>
</event>
<event>
12    1  0.4154313E-002  0.1835371E+03  0.7546771E-02  0.1164423E+00
         -4   -1    0    0    0  501 -0.00000000000E+00  0.00000000000E+00  0.21211228805E+03  0.21211228805E+03  0.00000000000E+00 0. -1.
          4   -1    0    0  502    0  0.00000000000E+00 -0.00000000000E+00 -0.16094344800E+03  0.16094344800E+03  0.00000000000E+00 0.  1.
          6    2    1    2  502    0 -0.56812460471E+02  0.20272328901E+02  0.47046463820E+02  0.18942793596E+03  0.17329440320E+03 0.  0.
         24    2    3    3    0    0  0.18602898645E+02 -0.35267011373E+02  0.32330195034E+02  0.94502948333E+02  0.79345672873E+02 0.  0.
         -6    2    1    2    0  501  0.56812460471E+02 -0.20272328901E+02  0.41223762311E+01  0.18362780009E+03  0.17338844251E+03 0.  0.
        -24    2    5    5    0    0 -0.24615320359E+02  0.48112672061E+01  0.40903616869E+02  0.90705144358E+02  0.76975678312E+02 0.  0.
          5    1    3    3  502    0 -0.75415359116E+02  0.55539340274E+02  0.14716268786E+02  0.94924987625E+02  0.47000000000E+01 0. -1.
        -11    1    4    4    0    0  0.16576115096E+02 -0.60882124577E+02  0.22427834993E+02  0.66965726063E+02  0.00000000000E+00 0.  1.
         12    1    4    4    0    0  0.20267835494E+01  0.25615113204E+02  0.99023600403E+01  0.27537222270E+02  0.00000000000E+00 0. -1.
         -5    1    5    5    0  501  0.81427780830E+02 -0.25083596107E+02 -0.36781240638E+02  0.92922655727E+02  0.47000000000E+01 0.  1.
         13    1    6    6    0    0  0.15271781194E+02  0.33943191165E+01  0.47716432634E+02  0.50215601624E+02  0.00000000000E+00 0. -1.
        -14    1    6    6    0    0 -0.39887101553E+02  0.14169480896E+01 -0.68128157654E+01  0.40489542734E+02  0.00000000000E+00 0.  1.
<mgrwt>
<rscale>  2 0.18353711E+03</rscale>
<asrwt>0</asrwt>
<pdfrwt beam="2">  1        4 0.24760530E-01 0.18353711E+03</pdfrwt>
<pdfrwt beam="1">  1       -4 0.32632660E-01 0.18353711E+03</pdfrwt>
<totfact> 0.24220467E+02</totfact>
</mgrwt>
</event>
<event>
12    1  0.4154313E-002  0.1739281E+03  0.7546771E-02  0.1173812E+00
          1   -1    0    0  502    0  0.00000000000E+00  0.00000000000E+00  0.14237955882E+04  0.14237955882E+04  0.00000000000E+00 0.  1.
         -1   -1    0    0    0  501 -0.00000000000E+00 -0.00000000000E+00 -0.25869172708E+02  0.25869172708E+02  0.00000000000E+00 0. -1.
          6    2    1    2  502    0 -0.12611165340E+02 -0.13311244058E+02  0.10043210488E+04  0.10192167780E+04  0.17264368113E+03 0.  0.
         24    2    3    3    0    0  0.20138811569E+02  0.30274717703E+02  0.87115670375E+03  0.87524758038E+03  0.76303304050E+02 0.  0.
         -6    2    1    2    0  501  0.12611165340E+02  0.13311244058E+02  0.39360536664E+03  0.43044798293E+03  0.17327449510E+03 0.  0.
        -24    2    5    5    0    0  0.20897941204E+01  0.60150561844E+01  0.40492462829E+03  0.41272372571E+03  0.79601325526E+02 0.  0.
          5    1    3    3  502    0 -0.32749976909E+02 -0.43585961762E+02  0.13316434508E+03  0.14396919758E+03  0.47000000000E+01 0. -1.
        -13    1    4    4    0    0 -0.49026030142E+01  0.47314844870E+01  0.71554782390E+03  0.71558026157E+03  0.00000000000E+00 0.  1.
         14    1    4    4    0    0  0.25041414583E+02  0.25543233216E+02  0.15560887985E+03  0.15966731880E+03  0.00000000000E+00 0. -1.
         -5    1    5    5    0  501  0.10521371220E+02  0.72961878738E+01 -0.11319261649E+02  0.17724257223E+02  0.47000000000E+01 0.  1.
         13    1    6    6    0    0 -0.12333235706E+02 -0.62271510205E+01  0.93172088158E+01  0.16664227942E+02  0.00000000000E+00 0. -1.
        -14    1    6    6    0    0  0.14423029826E+02  0.12242207205E+02  0.39560741947E+03  0.39605949777E+03  0.00000000000E+00 0.  1.
<mgrwt>
<rscale>  2 0.17392809E+03</rscale>
<asrwt>0</asrwt>
<pdfrwt beam="1">  1        1 0.21904541E+00 0.17392809E+03</pdfrwt>
<pdfrwt beam="2">  1       -1 0.39798738E-02 0.17392809E+03</pdfrwt>
<totfact> 0.19923992E+03</totfact>
</mgrwt>
</event>
<event>
12    1  0.4154313E-002  0.1990745E+03  0.7546771E-02  0.1150522E+00
         -2   -1    0    0    0  501 -0.00000000000E+00  0.00000000000E+00  0.19930217522E+02  0.19930217522E+02  0.00000000000E+00 0. -1.
          2   -1    0    0  502    0  0.00000000000E+00 -0.00000000000E+00 -0.36165366060E+04  0.36165366060E+04  0.00000000000E+00 0.  1.
          6    2    1    2  502    0 -0.58630391902E+02  0.79010742737E+02 -0.30178064633E+04  0.30243596699E+04  0.17296052295E+03 0.  0.
         24    2    3    3    0    0 -0.37172287373E+02  0.10280651065E+03 -0.14940350907E+04  0.15002441970E+04  0.81491353462E+02 0.  0.
         -6    2    1    2    0  501  0.58630391902E+02 -0.79010742737E+02 -0.57879992512E+03  0.61210715359E+03  0.17316348875E+03 0.  0.
        -24    2    5    5    0    0  0.67927896085E+02 -0.85870902984E+02 -0.25808321347E+03  0.29114795913E+03  0.78563210096E+02 0.  0.
          5    1    3    3  502    0 -0.21458104530E+02 -0.23795767909E+02 -0.15237713726E+04  0.15241154729E+04  0.47000000000E+01 0. -1.
        -11    1    4    4    0    0 -0.19093511549E+02  0.19021189465E+02 -0.86227084494E+03  0.86269193683E+03  0.00000000000E+00 0.  1.
         12    1    4    4    0    0 -0.18078775824E+02  0.83785321180E+02 -0.63176424579E+03  0.63755226016E+03  0.00000000000E+00 0. -1.
         -5    1    5    5    0  501 -0.92975041828E+01  0.68601602469E+01 -0.32071671164E+03  0.32095919446E+03  0.47000000000E+01 0.  1.
         11    1    6    6    0    0  0.71481906656E+02 -0.54138267054E+02 -0.23562331520E+03  0.25210902721E+03  0.00000000000E+00 0. -1.
        -12    1    6    6    0    0 -0.35540105710E+01 -0.31732635930E+02 -0.22459898278E+02  0.39038931912E+02  0.00000000000E+00 0.  1.
<mgrwt>
<rscale>  2 0.19907454E+03</rscale>
<asrwt>0</asrwt>
<pdfrwt beam="2">  1        2 0.55639037E+00 0.19907454E+03</pdfrwt>
<pdfrwt beam="1">  1       -2 0.30661866E-02 0.19907454E+03</pdfrwt>
<totfact> 0.35597728E+02</totfact>
</mgrwt>
</event>
<event>
12    1  0.4154313E-002  0.3495007E+03  0.7546771E-02  0.1062820E+00
         -1   -1    0    0    0  501 -0.00000000000E+00  0.00000000000E+00  0.40842085139E+03  0.40842085139E+03  0.00000000000E+00 0. -1.
          1   -1    0    0  502    0  0.00000000000E+00 -0.00000000000E+00 -0.29979434793E+03  0.29979434793E+03  0.00000000000E+00 0.  1.
          6    2    1    2  502    0 -0.26479152843E+03  0.15097069855E+03  0.36837204366E+02  0.34925161062E+03  0.16647222756E+03 0.  0.
         24    2    3    3    0    0 -0.27795818233E+03  0.12615800123E+03  0.44869904275E+02  0.31966031138E+03  0.83623046850E+02 0.  0.
         -6    2    1    2    0  501  0.26479152843E+03 -0.15097069855E+03  0.71789299102E+02  0.35896358870E+03  0.17548347271E+03 0.  0.
        -24    2    5    5    0    0  0.11819447988E+03 -0.58185313090E+02  0.97900002797E+02  0.18345381334E+03  0.81947698854E+02 0.  0.
          5    1    3    3  502    0  0.13166653898E+02  0.24812697314E+02 -0.80326999096E+01  0.29591299240E+02  0.47000000000E+01 0. -1.
        -11    1    4    4    0    0 -0.71497600303E+02  0.34792545835E+02 -0.24952221198E+02  0.83336915215E+02  0.00000000000E+00 0.  1.
         12    1    4    4    0    0 -0.20646058203E+03  0.91365455397E+02  0.69822125473E+02  0.23632339617E+03  0.00000000000E+00 0. -1.
         -5    1    5    5    0  501  0.14659704856E+03 -0.92785385456E+02 -0.26110703695E+02  0.17550977536E+03  0.47000000000E+01 0.  1.
         13    1    6    6    0    0  0.27115231340E+02  0.68617096536E+01  0.58423833427E+02  0.64773938759E+02  0.00000000000E+00 0. -1.
        -14    1    6    6    0    0  0.91079248537E+02 -0.65047022744E+02  0.39476169370E+02  0.11867987458E+03  0.00000000000E+00 0.  1.
<mgrwt>
<rscale>  2 0.34950066E+03</rscale>
<asrwt>0</asrwt>
<pdfrwt beam="2">  1        1 0.46122207E-01 0.34950066E+03</pdfrwt>
<pdfrwt beam="1">  1       -1 0.62833977E-01 0.34950066E+03</pdfrwt>
<totfact> 0.23322620E+02</totfact>
</mgrwt>
</event>
<event>
12    1  0.4154313E-002  0.2284525E+03  0.7546771E-02  0.1127734E+00
          1   -1    0    0  502    0  0.00000000000E+00  0.00000000000E+00  0.26836867038E+03  0.26836867038E+03  0.00000000000E+00 0.  1.
         -1   -1    0    0    0  501 -0.00000000000E+00 -0.00000000000E+00 -0.28109021159E+03  0.28109021159E+03  0.00000000000E+00 0. -1.
          6    2    1    2  502    0  0.14985244415E+03  0.88764214133E+01 -0.15887649837E+03  0.27880976130E+03  0.17308551466E+03 0.  0.
         24    2    3    3    0    0  0.12171973205E+03  0.36891048213E+02 -0.43378775197E+02  0.15658831120E+03  0.80383695232E+02 0.  0.
         -6    2    1    2    0  501 -0.14985244415E+03 -0.88764214133E+01  0.14615495717E+03  0.27064912068E+03  0.17133338596E+03 0.  0.
        -24    2    5    5    0    0 -0.90961944110E+02  0.28606248595E+02  0.19647270775E+02  0.12608312792E+03  0.80115835900E+02 0.  0.
          5    1    3    3  502    0  0.28132712101E+02 -0.28014626800E+02 -0.11549772318E+03  0.12222145010E+03  0.47000000000E+01 0. -1.
        -13    1    4    4    0    0  0.12901598187E+02  0.34989163953E+02  0.47375910998E+01  0.37591722484E+02  0.00000000000E+00 0.  1.
         14    1    4    4    0    0  0.10881813386E+03  0.19018842608E+01 -0.48116366297E+02  0.11899658872E+03  0.00000000000E+00 0. -1.
         -5    1    5    5    0  501 -0.58890500038E+02 -0.37482670008E+02  0.12650768639E+03  0.14456599276E+03  0.47000000000E+01 0.  1.
         13    1    6    6    0    0 -0.68592543772E+02 -0.19535905669E+02  0.14187037611E+02  0.72717678096E+02  0.00000000000E+00 0. -1.
        -14    1    6    6    0    0 -0.22369400338E+02  0.48142154264E+02  0.54602331637E+01  0.53365449823E+02  0.00000000000E+00 0.  1.
<mgrwt>
<rscale>  2 0.22845248E+03</rscale>
<asrwt>0</asrwt>
<pdfrwt beam="1">  1        1 0.41287487E-01 0.22845248E+03</pdfrwt>
<pdfrwt beam="2">  1       -1 0.43244648E-01 0.22845248E+03</pdfrwt>
<totfact> 0.54415008E+02</totfact>
</mgrwt>
</event>
<event>
12    1  0.4154313E-002  0.2354937E+03  0.7546771E-02  0.1122832E+00
         -1   -1    0    0    0  501 -0.00000000000E+00  0.00000000000E+00  0.88486017095E+02  0.88486017095E+02  0.00000000000E+00 0. -1.
          1   -1    0    0  502    0  0.00000000000E+00 -0.00000000000E+00 -0.65353212904E+03  0.65353212904E+03  0.00000000000E+00 0.  1.
          6    2    1    2  502    0 -0.34376470511E+02 -0.15432307091E+03 -0.35953040380E+03  0.43071315324E+03  0.17678901883E+03 0.  0.
         24    2    3    3    0    0  0.17957591602E+02 -0.16581936367E+03 -0.27534206683E+03  0.33080927501E+03  0.76177333915E+02 0.  0.
         -6    2    1    2    0  501  0.34376470511E+02  0.15432307091E+03 -0.20551570815E+03  0.31130499289E+03  0.17226938314E+03 0.  0.
        -24    2    5    5    0    0 -0.35296762030E+02  0.62986951799E+02 -0.14810830329E+03  0.18279683705E+03  0.79154258410E+02 0.  0.
          5    1    3    3  502    0 -0.52334062113E+02  0.11496292759E+02 -0.84188336964E+02  0.99903878229E+02  0.47000000000E+01 0. -1.
        -11    1    4    4    0    0  0.29513004006E+02 -0.67513520945E+02 -0.64647855112E+02  0.98022640683E+02  0.00000000000E+00 0.  1.
         12    1    4    4    0    0 -0.11555412403E+02 -0.98305842720E+02 -0.21069421172E+03  0.23278663433E+03  0.00000000000E+00 0. -1.
         -5    1    5    5    0  501  0.69673232541E+02  0.91336119107E+02 -0.57407404852E+02  0.12850815584E+03  0.47000000000E+01 0.  1.
         11    1    6    6    0    0 -0.58471657626E+01  0.72213826032E+02 -0.79462241256E+02  0.10753266389E+03  0.00000000000E+00 0. -1.
        -12    1    6    6    0    0 -0.29449596267E+02 -0.92268742328E+01 -0.68646062038E+02  0.75264173162E+02  0.00000000000E+00 0.  1.
<mgrwt>
<rscale>  2 0.23549372E+03</rscale>
<asrwt>0</asrwt>
<pdfrwt beam="2">  1        1 0.10054340E+00 0.23549372E+03</pdfrwt>
<pdfrwt beam="1">  1       -1 0.13613234E-01 0.23549372E+03</pdfrwt>
<totfact> 0.11696079E+03</totfact>
</mgrwt>
</event>
<event>
12    1  0.4154313E-002  0.1921101E+03  0.7546771E-02  0.1156572E+00
         -2   -1    0    0    0  501 -0.00000000000E+00  0.00000000000E+00  0.20213413376E+03  0.20213413376E+03  0.00000000000E+00 0. -1.
          2   -1    0    0  502    0  0.00000000000E+00 -0.00000000000E+00 -0.44015944576E+03  0.44015944576E+03  0.00000000000E+00 0.  1.
          6    2    1    2  502    0  0.67302167946E+02  0.50441320477E+02 -0.36485664674E+03  0.41266321044E+03  0.17348384351E+03 0.  0.
         24    2    3    3    0    0  0.86123973956E+02  0.89038716260E+02 -0.27146494440E+03  0.30976462246E+03  0.83160527930E+02 0.  0.
         -6    2    1    2    0  501 -0.67302167946E+02 -0.50441320477E+02  0.12683133474E+03  0.22963036908E+03  0.17195932748E+03 0.  0.
        -24    2    5    5    0    0 -0.20199563275E+02 -0.19331526375E+02 -0.11746446713E+02  0.79922766836E+02  0.73945516293E+02 0.  0.
          5    1    3    3  502    0 -0.18821806010E+02 -0.38597395783E+02 -0.93391702333E+02  0.10289858798E+03  0.47000000000E+01 0. -1.
        -13    1    4    4    0    0  0.76437374828E+02  0.40937824891E+02 -0.22902675454E+03  0.24489146999E+03  0.00000000000E+00 0.  1.
         14    1    4    4    0    0  0.96865991280E+01  0.48100891369E+02 -0.42438189865E+02  0.64873152476E+02  0.00000000000E+00 0. -1.
         -5    1    5    5    0  501 -0.47102604670E+02 -0.31109794102E+02  0.13857778146E+03  0.14970760224E+03  0.47000000000E+01 0.  1.
         13    1    6    6    0    0 -0.16563970583E+02 -0.35141143981E+02  0.20426057024E+02  0.43891786559E+02  0.00000000000E+00 0. -1.
        -14    1    6    6    0    0 -0.36355926919E+01  0.15809617606E+02 -0.32172503737E+02  0.36030980277E+02  0.00000000000E+00 0.  1.
<mgrwt>
<rscale>  2 0.19211012E+03</rscale>
<asrwt>0</asrwt>
<pdfrwt beam="2">  1        2 0.67716837E-01 0.19211012E+03</pdfrwt>
<pdfrwt beam="1">  1       -2 0.31097560E-01 0.19211012E+03</pdfrwt>
<totfact> 0.68965697E+02</totfact>
</mgrwt>
</event>
<event>
12    1  0.4154313E-002  0.1761213E+03  0.7546771E-02  0.1171610E+00
         -2   -1    0    0    0  501 -0.00000000000E+00  0.00000000000E+00  0.50396552050E+02  0.50396552050E+02  0.00000000000E+00 0. -1.
          2   -1    0    0  502    0  0.00000000000E+00 -0.00000000000E+00 -0.63705304670E+03  0.63705304670E+03  0.00000000000E+00 0.  1.
          6    2    1    2  502    0  0.23546231303E+02 -0.25248540219E+02 -0.35689469028E+03  0.39807763333E+03  0.17291636248E+03 0.  0.
         24    2    3    3    0    0 -0.39200996564E+02  0.23533420567E+02 -0.15577355756E+03  0.18177068862E+03  0.81759659922E+02 0.  0.
         -6    2    1    2    0  501 -0.23546231303E+02  0.25248540219E+02 -0.22976180436E+03  0.28937196541E+03  0.17249270660E+03 0.  0.
        -24    2    5    5    0    0  0.15673178933E+02 -0.24984497092E+02 -0.51018939616E+02  0.99549359082E+02  0.80232593510E+02 0.  0.
          5    1    3    3  502    0  0.62747227868E+02 -0.48781960786E+02 -0.20112113272E+03  0.21630694471E+03  0.47000000000E+01 0. -1.
        -13    1    4    4    0    0 -0.29366566749E+02  0.38677530458E+02 -0.15633590485E+03  0.16370480064E+03  0.00000000000E+00 0.  1.
         14    1    4    4    0    0 -0.98344298150E+01 -0.15144109891E+02  0.56234729136E+00  0.18065887984E+02  0.00000000000E+00 0. -1.
         -5    1    5    5    0  501 -0.39219410236E+02  0.50233037310E+02 -0.17874286475E+03  0.18982260633E+03  0.47000000000E+01 0.  1.
         13    1    6    6    0    0 -0.22552466750E+02  0.17321409968E+02 -0.18177101351E+02  0.33749844641E+02  0.00000000000E+00 0. -1.
        -14    1    6    6    0    0  0.38225645683E+02 -0.42305907059E+02 -0.32841838265E+02  0.65799514441E+02  0.00000000000E+00 0.  1.
<mgrwt>
<rscale>  2 0.17612135E+03</rscale>
<asrwt>0</asrwt>
<pdfrwt beam="2">  1        2 0.98008162E-01 0.17612135E+03</pdfrwt>
<pdfrwt beam="1">  1       -2 0.77533156E-02 0.17612135E+03</pdfrwt>
<totfact> 0.45768321E+03</totfact>
</mgrwt>
</event>
<event>
12    1  0.4154313E-002  0.1756299E+03  0.7546771E-02  0.1172101E+00
          2   -1    0    0  502    0  0.00000000000E+00  0.00000000000E+00  0.14206316738E+04  0.14206316738E+04  0.00000000000E+00 0. -1.
         -2   -1    0    0    0  501 -0.00000000000E+00 -0.00000000000E+00 -0.25872752163E+02  0.25872752163E+02  0.00000000000E+00 0.  1.
          6    2    1    2  502    0 -0.27317140783E+02 -0.16315875725E+02  0.98728683904E+03  0.10027812906E+04  0.17269215445E+03 0.  0.
         24    2    3    3    0    0 -0.64552313312E+02  0.37997478848E+02  0.60404354725E+03  0.61389324851E+03  0.79909348905E+02 0.  0.
         -6    2    1    2    0  501  0.27317140783E+02  0.16315875725E+02  0.40747208261E+03  0.44372313540E+03  0.17275499646E+03 0.  0.
        -24    2    5    5    0    0  0.20263094632E+02  0.24110157982E-01  0.41573779026E+03  0.42358379293E+03  0.78579423461E+02 0.  0.
          5    1    3    3  502    0  0.37235172529E+02 -0.54313354573E+02  0.38324329180E+03  0.38888804207E+03  0.47000000000E+01 0. -1.
        -13    1    4    4    0    0 -0.36832669407E+02  0.47528259645E+02  0.20141010772E+03  0.21019422564E+03  0.00000000000E+00 0.  1.
         14    1    4    4    0    0 -0.27719643905E+02 -0.95307807972E+01  0.40263343953E+03  0.40369902287E+03  0.00000000000E+00 0. -1.
         -5    1    5    5    0  501  0.70540461515E+01  0.16291765567E+02 -0.82657076507E+01  0.20139342476E+02  0.47000000000E+01 0.  1.
         13    1    6    6    0    0  0.10504843570E+02 -0.34128874166E+02  0.10681789516E+03  0.11262856883E+03  0.00000000000E+00 0. -1.
        -14    1    6    6    0    0  0.97582510621E+01  0.34152984324E+02  0.30891989510E+03  0.31095522410E+03  0.00000000000E+00 0.  1.
<mgrwt>
<rscale>  2 0.17562991E+03</rscale>
<asrwt>0</asrwt>
<pdfrwt beam="1">  1        2 0.21855866E+00 0.17562991E+03</pdfrwt>
<pdfrwt beam="2">  1       -2 0.39804245E-02 0.17562991E+03</pdfrwt>
<totfact> 0.41415804E+03</totfact>
</mgrwt>
</event>
<event>
11    1  0.4154313E-002  0.2934552E+03  0.7546771E-02  0.1088559E+00
         -1   -1    0    0    0  501 -0.00000000000E+00  0.00000000000E+00  0.27897315794E+03  0.27897315794E+03  0.00000000000E+00 0. -1.
          1   -1    0    0  502    0  0.00000000000E+00 -0.00000000000E+00 -0.56467796779E+03  0.56467796779E+03  0.00000000000E+00 0.  1.
          6    2    1    2  502    0 -0.20903026966E+03 -0.11268974162E+03 -0.42676619879E+03  0.51770726201E+03  0.17175211559E+03 0.  0.
         24    2    3    3    0    0 -0.10493089330E+03 -0.75643674368E+02 -0.36187972232E+03  0.38948309859E+03  0.63306341071E+02 0.  0.
         -6    2    1    2    0  501  0.20903026966E+03  0.11268974162E+03  0.14106138894E+03  0.32594386372E+03  0.17305622019E+03 0.  0.
          5    1    3    3  502    0 -0.10409937635E+03 -0.37046067247E+02 -0.64886476473E+02  0.12822416342E+03  0.47000000000E+01 0. -1.
        -13    1    4    4    0    0 -0.23992803945E+01  0.96503353350E+01 -0.16742717092E+02  0.19473163434E+02  0.00000000000E+00 0.  1.
         14    1    4    4    0    0 -0.10253161291E+03 -0.85294009703E+02 -0.34513700523E+03  0.37000993516E+03  0.00000000000E+00 0. -1.
         -5    1    5    5    0  501  0.63761961528E+02 -0.11881257061E+02  0.63090087174E+02  0.90604641751E+02  0.47000000000E+01 0.  1.
         11    1    5    5    0    0  0.35014046862E+02  0.69695289342E+00  0.58749007176E+02  0.68395285401E+02  0.00000000000E+00 0. -1.
        -12    1    5    5    0    0  0.11025426127E+03  0.12387404578E+03  0.19222294594E+02  0.16694393656E+03  0.00000000000E+00 0.  1.
<mgrwt>
<rscale>  2 0.29345521E+03</rscale>
<asrwt>0</asrwt>
<pdfrwt beam="2">  1        1 0.86873534E-01 0.29345521E+03</pdfrwt>
<pdfrwt beam="1">  1       -1 0.42918947E-01 0.29345521E+03</pdfrwt>
<totfact> 0.20960343E+02</totfact>
</mgrwt>
</event>
<event>
12    1  0.4154313E-002  0.2134351E+03  0.7546771E-02  0.1138874E+00
          2   -1    0    0  502    0  0.00000000000E+00  0.00000000000E+00  0.22650923379E+03  0.22650923379E+03  0.00000000000E+00 0. -1.
         -2   -1    0    0    0  501 -0.00000000000E+00 -0.00000000000E+00 -0.20765770838E+03  0.20765770838E+03  0.00000000000E+00 0.  1.
          6    2    1    2  502    0 -0.68100343093E+01  0.12497316434E+03  0.47950351859E+02  0.21861836083E+03  0.17271387632E+03 0.  0.
         24    2    3    3    0    0  0.59394716791E+02  0.56742839012E+02 -0.28588218864E+01  0.11071975797E+03  0.74183622044E+02 0.  0.
         -6    2    1    2    0  501  0.68100343093E+01 -0.12497316434E+03 -0.29098826446E+02  0.21554858134E+03  0.17306004983E+03 0.  0.
        -24    2    5    5    0    0 -0.21803251753E+02 -0.12279832719E+03  0.28551789979E+02  0.15097975272E+03  0.80155287232E+02 0.  0.
          5    1    3    3  502    0 -0.66204751100E+02  0.68230325328E+02  0.50809173746E+02  0.10789860286E+03  0.47000000000E+01 0. -1.
        -11    1    4    4    0    0 -0.87136729487E+01  0.28156896034E+02 -0.19059422178E+02  0.35099864163E+02  0.00000000000E+00 0.  1.
         12    1    4    4    0    0  0.68108389740E+02  0.28585942978E+02  0.16200600292E+02  0.75619893803E+02  0.00000000000E+00 0. -1.
         -5    1    5    5    0  501  0.28613286062E+02 -0.21748371486E+01 -0.57650616425E+02  0.64568828626E+02  0.47000000000E+01 0.  1.
         13    1    6    6    0    0 -0.40626822674E+02 -0.22976137601E+02  0.88725205778E+01  0.47509612091E+02  0.00000000000E+00 0. -1.
        -14    1    6    6    0    0  0.18823570921E+02 -0.99822189591E+02  0.19679269402E+02  0.10347014063E+03  0.00000000000E+00 0.  1.
<mgrwt>
<rscale>  2 0.21343514E+03</rscale>
<asrwt>0</asrwt>
<pdfrwt beam="1">  1        2 0.34847574E-01 0.21343514E+03</pdfrwt>
<pdfrwt beam="2">  1       -2 0.31947340E-01 0.21343514E+03</pdfrwt>
<totfact> 0.13458559E+03</totfact>
</mgrwt>
</event>
<event>
12    1  0.4154313E-002  0.1787424E+03  0.7546771E-02  0.1169026E+00
          1   -1    0    0  502    0  0.00000000000E+00  0.00000000000E+00  0.18249946183E+04  0.18249946183E+04  0.00000000000E+00 0. -1.
         -1   -1    0    0    0  501 -0.00000000000E+00 -0.00000000000E+00 -0.24070249320E+02  0.24070249320E+02  0.00000000000E+00 0.  1.
          6    2    1    2  502    0 -0.28665356987E+02 -0.34911915994E+02  0.42068920695E+03  0.45740907459E+03  0.17379041431E+03 0.  0.
         24    2    3    3    0    0 -0.60108337000E+02 -0.76778310902E+02  0.32170499147E+03  0.34533132957E+03  0.79067720629E+02 0.  0.
         -6    2    1    2    0  501  0.28665356987E+02  0.34911915994E+02  0.13802351620E+04  0.13916557930E+04  0.17209357684E+03 0.  0.
        -24    2    5    5    0    0 -0.72387303691E+01 -0.12360068239E+01  0.30623935003E+03  0.31644192128E+03  0.79366385222E+02 0.  0.
          5    1    3    3  502    0  0.31442980013E+02  0.41866394908E+02  0.98984215484E+02  0.11207774502E+03  0.47000000000E+01 0. -1.
        -13    1    4    4    0    0  0.52841908027E+01  0.13226028397E+02  0.33728296279E+02  0.36612135549E+02  0.00000000000E+00 0.  1.
         14    1    4    4    0    0 -0.65392527803E+02 -0.90004339299E+02  0.28797669519E+03  0.30871919402E+03  0.00000000000E+00 0. -1.
         -5    1    5    5    0  501  0.35904087357E+02  0.36147922818E+02  0.10739958120E+04  0.10752138717E+04  0.47000000000E+01 0.  1.
         13    1    6    6    0    0 -0.74591632977E+01 -0.68547760497E+01  0.30968266649E+03  0.30984831934E+03  0.00000000000E+00 0. -1.
        -14    1    6    6    0    0  0.22043292861E+00  0.56187692258E+01 -0.34433164590E+01  0.65936019387E+01  0.00000000000E+00 0.  1.
<mgrwt>
<rscale>  2 0.17874241E+03</rscale>
<asrwt>0</asrwt>
<pdfrwt beam="1">  1        1 0.28076829E+00 0.17874241E+03</pdfrwt>
<pdfrwt beam="2">  1       -1 0.37031167E-02 0.17874241E+03</pdfrwt>
<totfact> 0.12172792E+03</totfact>
</mgrwt>
</event>
<event>
12    1  0.4154313E-002  0.2646350E+03  0.7546771E-02  0.1104390E+00
         -2   -1    0    0    0  501 -0.00000000000E+00  0.00000000000E+00  0.12938011337E+03  0.12938011337E+03  0.00000000000E+00 0. -1.
          2   -1    0    0  502    0  0.00000000000E+00 -0.00000000000E+00 -0.54568377238E+03  0.54568377238E+03  0.00000000000E+00 0.  1.
          6    2    1    2  502    0  0.19239046369E+03  0.11392221296E+02 -0.18398578599E+03  0.32766178914E+03  0.19070292444E+03 0.  0.
         24    2    3    3    0    0  0.54977379248E+02  0.70148661094E+02 -0.10601591999E+03  0.15903182443E+03  0.78156247402E+02 0.  0.
         -6    2    1    2    0  501 -0.19239046369E+03 -0.11392221296E+02 -0.23231787302E+03  0.34740209660E+03  0.17196729159E+03 0.  0.
        -24    2    5    5    0    0 -0.21609103745E+03 -0.35382384055E+01 -0.22078475847E+03  0.31950039460E+03  0.81404772443E+02 0.  0.
          5    1    3    3  502    0  0.13741308444E+03 -0.58756439799E+02 -0.77969866007E+02  0.16862996471E+03  0.47000000000E+01 0. -1.
        -13    1    4    4    0    0  0.61573548779E+02  0.15517884862E+02 -0.57998814324E+02  0.85999820481E+02  0.00000000000E+00 0.  1.
         14    1    4    4    0    0 -0.65961695307E+01  0.54630776232E+02 -0.48017105662E+02  0.73032003946E+02  0.00000000000E+00 0. -1.
         -5    1    5    5    0  501  0.23700573760E+02 -0.78539828901E+01 -0.11533114545E+02  0.27901702007E+02  0.47000000000E+01 0.  1.
         11    1    6    6    0    0 -0.63949235583E+02  0.12623506027E+02 -0.22300456564E+02  0.68892437894E+02  0.00000000000E+00 0. -1.
        -12    1    6    6    0    0 -0.15214180187E+03 -0.16161744433E+02 -0.19848430191E+03  0.25060795670E+03  0.00000000000E+00 0.  1.
<mgrwt>
<rscale>  2 0.26463501E+03</rscale>
<asrwt>0</asrwt>
<pdfrwt beam="2">  1        2 0.83951350E-01 0.26463501E+03</pdfrwt>
<pdfrwt beam="1">  1       -2 0.19904633E-01 0.26463501E+03</pdfrwt>
<totfact> 0.11949016E+03</totfact>
</mgrwt>
</event>
<event>
12    1  0.4154313E-002  0.2355978E+03  0.7546771E-02  0.1122761E+00
         -2   -1    0    0    0  501 -0.00000000000E+00  0.00000000000E+00  0.85389783831E+02  0.85389783831E+02  0.00000000000E+00 0.  1.
          2   -1    0    0  502    0  0.00000000000E+00 -0.00000000000E+00 -0.86245669283E+03  0.86245669283E+03  0.00000000000E+00 0. -1.
          6    2    1    2  502    0 -0.87083980129E+02  0.12495492606E+03 -0.61672786822E+03  0.65829586025E+03  0.17263494156E+03 0.  0.
         24    2    3    3    0    0 -0.84333684395E+02  0.15427905344E+03 -0.57742777259E+03  0.60895970627E+03  0.80590909221E+02 0.  0.
         -6    2    1    2    0  501  0.87083980129E+02 -0.12495492606E+03 -0.16033904078E+03  0.28955061641E+03  0.18690531914E+03 0.  0.
        -24    2    5    5    0    0  0.73378099698E+02 -0.65391163990E+02 -0.18451863860E+03  0.22365345517E+03  0.79456844733E+02 0.  0.
          5    1    3    3  502    0 -0.27502957334E+01 -0.29324127383E+02 -0.39300095633E+02  0.49336153987E+02  0.47000000000E+01 0. -1.
        -11    1    4    4    0    0 -0.76365316119E+02  0.12475357115E+03 -0.34782510294E+03  0.37732932202E+03  0.00000000000E+00 0.  1.
         12    1    4    4    0    0 -0.79683682763E+01  0.29525482285E+02 -0.22960266965E+03  0.23163038425E+03  0.00000000000E+00 0. -1.
         -5    1    5    5    0  501  0.13705880431E+02 -0.59563762065E+02  0.24179597814E+02  0.65897161245E+02  0.47000000000E+01 0.  1.
         11    1    6    6    0    0  0.65737162968E+01  0.17095313069E+02 -0.15137598525E+02  0.23761531179E+02  0.00000000000E+00 0. -1.
        -12    1    6    6    0    0  0.66804383401E+02 -0.82486477059E+02 -0.16938104007E+03  0.19989192399E+03  0.00000000000E+00 0.  1.
<mgrwt>
<rscale>  2 0.23559778E+03</rscale>
<asrwt>0</asrwt>
<pdfrwt beam="2">  1        2 0.13268564E+00 0.23559778E+03</pdfrwt>
<pdfrwt beam="1">  1       -2 0.13136890E-01 0.23559778E+03</pdfrwt>
<totfact> 0.13716123E+03</totfact>
</mgrwt>
</event>
<event>
12    1  0.4154313E-002  0.2390141E+03  0.7546771E-02  0.1120451E+00
          2   -1    0    0  502    0  0.00000000000E+00  0.00000000000E+00  0.16607112889E+03  0.16607112889E+03  0.00000000000E+00 0.  1.
         -2   -1    0    0    0  501 -0.00000000000E+00 -0.00000000000E+00 -0.37866182887E+03  0.37866182887E+03  0.00000000000E+00 0. -1.
          6    2    1    2  502    0  0.12354163946E+03 -0.11035331306E+03 -0.23887839154E+02  0.24021116633E+03  0.17230898173E+03 0.  0.
         24    2    3    3    0    0 -0.52109982933E+01 -0.27373144194E+02  0.25666065457E+02  0.79150216324E+02  0.69495081134E+02 0.  0.
         -6    2    1    2    0  501 -0.12354163946E+03  0.11035331306E+03 -0.18870286083E+03  0.30452179143E+03  0.17229150120E+03 0.  0.
        -24    2    5    5    0    0 -0.14538743744E+03  0.56810806921E+02 -0.17925465592E+03  0.24573916279E+03  0.62374110919E+02 0.  0.
          5    1    3    3  502    0  0.12875263776E+03 -0.82980168865E+02 -0.49553904612E+02  0.16106095001E+03  0.47000000000E+01 0. -1.
        -13    1    4    4    0    0  0.23238279893E+02 -0.30220171531E+01  0.33508785876E+02  0.40889961738E+02  0.00000000000E+00 0.  1.
         14    1    4    4    0    0 -0.28449278186E+02 -0.24351127041E+02 -0.78427204185E+01  0.38260254586E+02  0.00000000000E+00 0. -1.
         -5    1    5    5    0  501  0.21845797980E+02  0.53542506138E+02 -0.94482049088E+01  0.58782628633E+02  0.47000000000E+01 0.  1.
         11    1    6    6    0    0 -0.80412878740E+02  0.16888647756E+02 -0.51554089880E+02  0.97001451915E+02  0.00000000000E+00 0. -1.
        -12    1    6    6    0    0 -0.64974558705E+02  0.39922159165E+02 -0.12770056604E+03  0.14873771088E+03  0.00000000000E+00 0.  1.
<mgrwt>
<rscale>  2 0.23901415E+03</rscale>
<asrwt>0</asrwt>
<pdfrwt beam="1">  1        2 0.25549405E-01 0.23901415E+03</pdfrwt>
<pdfrwt beam="2">  1       -2 0.58255665E-01 0.23901415E+03</pdfrwt>
<totfact> 0.59091653E+02</totfact>
</mgrwt>
</event>
<event>
12    1  0.4154313E-002  0.7106263E+03  0.7546771E-02  0.9699230E-01
          2   -1    0    0  502    0  0.00000000000E+00  0.00000000000E+00  0.40246702770E+03  0.40246702770E+03  0.00000000000E+00 0. -1.
         -2   -1    0    0    0  501 -0.00000000000E+00 -0.00000000000E+00 -0.13007832202E+04  0.13007832202E+04  0.00000000000E+00 0.  1.
          6    2    1    2  502    0 -0.68524049050E+03  0.71714429421E+02 -0.60930021749E+03  0.93596352705E+03  0.17344589859E+03 0.  0.
         24    2    3    3    0    0 -0.48297082169E+03  0.41154250529E+02 -0.51114197319E+03  0.70901843595E+03  0.80539051495E+02 0.  0.
         -6    2    1    2    0  501  0.68524049050E+03 -0.71714429421E+02 -0.28901597505E+03  0.76728672088E+03  0.17464589605E+03 0.  0.
        -24    2    5    5    0    0  0.25766074841E+03  0.20377054830E+02 -0.14224728056E+03  0.30591006673E+03  0.80885069491E+02 0.  0.
          5    1    3    3  502    0 -0.20226966880E+03  0.30560178892E+02 -0.98158244301E+02  0.22694509110E+03  0.47000000000E+01 0. -1.
        -13    1    4    4    0    0 -0.39025797573E+01  0.38100296463E+01  0.21879252184E+01  0.58765186488E+01  0.00000000000E+00 0.  1.
         14    1    4    4    0    0 -0.47906824193E+03  0.37344220883E+02 -0.51332989841E+03  0.70314191730E+03  0.00000000000E+00 0. -1.
         -5    1    5    5    0  501  0.42757974209E+03 -0.92091484250E+02 -0.14676869450E+03  0.46137665416E+03  0.47000000000E+01 0.  1.
         11    1    6    6    0    0  0.16321802472E+03  0.34342577193E+02 -0.52447893796E+02  0.17484369524E+03  0.00000000000E+00 0. -1.
        -12    1    6    6    0    0  0.94442723687E+02 -0.13965522363E+02 -0.89799386760E+02  0.13106637149E+03  0.00000000000E+00 0.  1.
<mgrwt>
<rscale>  2 0.71062633E+03</rscale>
<asrwt>0</asrwt>
<pdfrwt beam="1">  1        2 0.61918005E-01 0.71062633E+03</pdfrwt>
<pdfrwt beam="2">  1       -2 0.20012049E+00 0.71062633E+03</pdfrwt>
<totfact> 0.10722645E+01</totfact>
</mgrwt>
</event>
<event>
12    1  0.4154313E-002  0.1982249E+03  0.7546771E-02  0.1151245E+00
         -3   -1    0    0    0  501 -0.00000000000E+00  0.00000000000E+00  0.24121372875E+02  0.24121372875E+02  0.00000000000E+00 0.  1.
          3   -1    0    0  502    0  0.00000000000E+00 -0.00000000000E+00 -0.16676874174E+04  0.16676874174E+04  0.00000000000E+00 0. -1.
          6    2    1    2  502    0  0.86162667648E+02  0.46679225945E+02 -0.69416313381E+03  0.72199632491E+03  0.17266522934E+03 0.  0.
         24    2    3    3    0    0  0.17134072499E+02  0.71322740307E+02 -0.25958683136E+03  0.28125728376E+03  0.79623030134E+02 0.  0.
         -6    2    1    2    0  501 -0.86162667648E+02 -0.46679225945E+02 -0.94940291068E+03  0.96981246532E+03  0.17195166663E+03 0.  0.
        -24    2    5    5    0    0 -0.62203609548E+02  0.28757874168E+02 -0.70762524013E+03  0.71536536961E+03  0.79484760830E+02 0.  0.
          5    1    3    3  502    0  0.69028595149E+02 -0.24643514362E+02 -0.43457630244E+03  0.44073904115E+03  0.47000000000E+01 0. -1.
        -11    1    4    4    0    0  0.22321514678E+02  0.66363598569E+02 -0.10322484330E+03  0.12473069192E+03  0.00000000000E+00 0.  1.
         12    1    4    4    0    0 -0.51874421793E+01  0.49591417371E+01 -0.15636198806E+03  0.15652659184E+03  0.00000000000E+00 0. -1.
         -5    1    5    5    0  501 -0.23959058100E+02 -0.75437100113E+02 -0.24177767055E+03  0.25444709571E+03  0.47000000000E+01 0.  1.
         13    1    6    6    0    0 -0.67567948119E+02 -0.63464622109E+01 -0.40259849542E+03  0.40827840221E+03  0.00000000000E+00 0. -1.
        -14    1    6    6    0    0  0.53643385707E+01  0.35104336379E+02 -0.30502674470E+03  0.30708696740E+03  0.00000000000E+00 0.  1.
<mgrwt>
<rscale>  2 0.19822485E+03</rscale>
<asrwt>0</asrwt>
<pdfrwt beam="2">  1        3 0.25656732E+00 0.19822485E+03</pdfrwt>
<pdfrwt beam="1">  1       -3 0.37109800E-02 0.19822485E+03</pdfrwt>
<totfact> 0.68619052E+01</totfact>
</mgrwt>
</event>
<event>
12    1  0.4154313E-002  0.2468981E+03  0.7546771E-02  0.1115281E+00
         -2   -1    0    0    0  501 -0.00000000000E+00  0.00000000000E+00  0.47855452110E+02  0.47855452110E+02  0.00000000000E+00 0.  1.
          2   -1    0    0  502    0  0.00000000000E+00 -0.00000000000E+00 -0.14284676518E+04  0.14284676518E+04  0.00000000000E+00 0. -1.
          6    2    1    2  502    0 -0.58572603373E+02  0.16244094997E+03 -0.45390216287E+03  0.51793770809E+03  0.18004022859E+03 0.  0.
         24    2    3    3    0    0 -0.10472986105E+03  0.12142569955E+03 -0.38140765588E+03  0.42259471282E+03  0.86034568821E+02 0.  0.
         -6    2    1    2    0  501  0.58572603373E+02 -0.16244094997E+03 -0.92671003687E+03  0.95838539587E+03  0.17289668153E+03 0.  0.
        -24    2    5    5    0    0  0.71986461736E+02 -0.11343612744E+03 -0.86060483532E+03  0.87487855842E+03  0.81987826774E+02 0.  0.
          5    1    3    3  502    0  0.46157257680E+02  0.41015250421E+02 -0.72494506988E+02  0.95342995270E+02  0.47000000000E+01 0. -1.
        -13    1    4    4    0    0  0.16536546147E+01  0.57072603345E+02 -0.13562287195E+03  0.14715155461E+03  0.00000000000E+00 0.  1.
         14    1    4    4    0    0 -0.10638351567E+03  0.64353096203E+02 -0.24578478393E+03  0.27544315821E+03  0.00000000000E+00 0. -1.
         -5    1    5    5    0  501 -0.13413858363E+02 -0.49004822531E+02 -0.66105201553E+02  0.83506837444E+02  0.47000000000E+01 0.  1.
         11    1    6    6    0    0  0.86720295115E+02 -0.92165318489E+02 -0.61306716383E+03  0.62599217477E+03  0.00000000000E+00 0. -1.
        -12    1    6    6    0    0 -0.14733833380E+02 -0.21270808949E+02 -0.24753767149E+03  0.24888638365E+03  0.00000000000E+00 0.  1.
<mgrwt>
<rscale>  2 0.24689806E+03</rscale>
<asrwt>0</asrwt>
<pdfrwt beam="2">  1        2 0.21976426E+00 0.24689806E+03</pdfrwt>
<pdfrwt beam="1">  1       -2 0.73623771E-02 0.24689806E+03</pdfrwt>
<totfact> 0.16085744E+03</totfact>
</mgrwt>
</event>
<event>
12    1  0.4154313E-002  0.1833823E+03  0.7546771E-02  0.1164569E+00
          1   -1    0    0  502    0  0.00000000000E+00  0.00000000000E+00  0.50152277872E+03  0.50152277872E+03  0.00000000000E+00 0. -1.
         -1   -1    0    0    0  501 -0.00000000000E+00 -0.00000000000E+00 -0.67345475679E+02  0.67345475679E+02  0.00000000000E+00 0.  1.
          6    2    1    2  502    0 -0.27289221766E+02  0.53653813270E+02  0.19897280042E+03  0.27092704647E+03  0.17374652773E+03 0.  0.
         24    2    3    3    0    0 -0.63943404921E+02  0.35993621876E+02  0.56328233811E+02  0.12251891365E+03  0.80335013723E+02 0.  0.
         -6    2    1    2    0  501  0.27289221766E+02 -0.53653813270E+02  0.23520450261E+03  0.29794120792E+03  0.17269734227E+03 0.  0.
        -24    2    5    5    0    0  0.31645655497E+02 -0.95981765958E+02  0.21650581646E+03  0.25122541875E+03  0.77624065602E+02 0.  0.
          5    1    3    3  502    0  0.36654183155E+02  0.17660191393E+02  0.14264456661E+03  0.14840813282E+03  0.47000000000E+01 0. -1.
        -13    1    4    4    0    0 -0.17385228639E+02  0.52690382909E+02  0.13527151309E+02  0.57109600318E+02  0.00000000000E+00 0.  1.
         14    1    4    4    0    0 -0.46558176282E+02 -0.16696761033E+02  0.42801082501E+02  0.65409313335E+02  0.00000000000E+00 0. -1.
         -5    1    5    5    0  501 -0.43564337305E+01  0.42327952688E+02  0.18698686158E+02  0.46715789169E+02  0.47000000000E+01 0.  1.
         13    1    6    6    0    0  0.20944224339E+02 -0.32053324886E+02  0.16222047491E+03  0.16667800890E+03  0.00000000000E+00 0. -1.
        -14    1    6    6    0    0  0.10701431158E+02 -0.63928441072E+02  0.54285341543E+02  0.84547409855E+02  0.00000000000E+00 0.  1.
<mgrwt>
<rscale>  2 0.18338227E+03</rscale>
<asrwt>0</asrwt>
<pdfrwt beam="1">  1        1 0.77157348E-01 0.18338227E+03</pdfrwt>
<pdfrwt beam="2">  1       -1 0.10360843E-01 0.18338227E+03</pdfrwt>
<totfact> 0.25597504E+03</totfact>
</mgrwt>
</event>
<event>
12    1  0.4154313E-002  0.1939240E+03  0.7546771E-02  0.1154969E+00
          1   -1    0    0  502    0  0.00000000000E+00  0.00000000000E+00  0.79429917195E+03  0.79429917195E+03  0.00000000000E+00 0. -1.
         -1   -1    0    0    0  501 -0.00000000000E+00 -0.00000000000E+00 -0.53805153449E+02  0.53805153449E+02  0.00000000000E+00 0.  1.
          6    2    1    2  502    0  0.84088657682E+02  0.25026237560E+02  0.51820650636E+03  0.55351988469E+03  0.17363485998E+03 0.  0.
         24    2    3    3    0    0  0.25774185420E+01 -0.27197323256E+02  0.14534866411E+03  0.16827133773E+03  0.80266253583E+02 0.  0.
         -6    2    1    2    0  501 -0.84088657682E+02 -0.25026237560E+02  0.22228751215E+03  0.29458444071E+03  0.17225283665E+03 0.  0.
        -24    2    5    5    0    0 -0.31700232341E+01 -0.40996371071E+02  0.18132986500E+03  0.20237549632E+03  0.79903504822E+02 0.  0.
          5    1    3    3  502    0  0.81511239140E+02  0.52223560816E+02  0.37285784225E+03  0.38524854696E+03  0.47000000000E+01 0. -1.
        -13    1    4    4    0    0  0.27823642178E+01 -0.40775679148E+02  0.14875771627E+03  0.15427007393E+03  0.00000000000E+00 0.  1.
         14    1    4    4    0    0 -0.20494567579E+00  0.13578355892E+02 -0.34090521568E+01  0.14001263803E+02  0.00000000000E+00 0. -1.
         -5    1    5    5    0  501 -0.80918634448E+02  0.15970133510E+02  0.40957647148E+02  0.92208944388E+02  0.47000000000E+01 0.  1.
         13    1    6    6    0    0 -0.36904364531E+02 -0.10100565906E+02  0.11941482611E+03  0.12539479355E+03  0.00000000000E+00 0. -1.
        -14    1    6    6    0    0  0.33734341297E+02 -0.30895805164E+02  0.61915038886E+02  0.76980702775E+02  0.00000000000E+00 0.  1.
<mgrwt>
<rscale>  2 0.19392397E+03</rscale>
<asrwt>0</asrwt>
<pdfrwt beam="1">  1        1 0.12219986E+00 0.19392397E+03</pdfrwt>
<pdfrwt beam="2">  1       -1 0.82777165E-02 0.19392397E+03</pdfrwt>
<totfact> 0.18944078E+03</totfact>
</mgrwt>
</event>
<event>
12    1  0.4154313E-002  0.2038707E+03  0.7546771E-02  0.1146514E+00
         -1   -1    0    0    0  501 -0.00000000000E+00  0.00000000000E+00  0.52831370018E+03  0.52831370018E+03  0.00000000000E+00 0. -1.
          1   -1    0    0  502    0  0.00000000000E+00 -0.00000000000E+00 -0.80282587309E+02  0.80282587309E+02  0.00000000000E+00 0.  1.
          6    2    1    2  502    0  0.99497535590E+00  0.10875033860E+03  0.26745806395E+03  0.33649026536E+03  0.17281277901E+03 0.  0.
         24    2    3    3    0    0 -0.48417157422E+02  0.11003976727E+03  0.14972467952E+03  0.20871522359E+03  0.81802160025E+02 0.  0.
         -6    2    1    2    0  501 -0.99497535590E+00 -0.10875033860E+03  0.18057304893E+03  0.27210602214E+03  0.17206811199E+03 0.  0.
        -24    2    5    5    0    0 -0.28158865513E+02 -0.80955230288E+00  0.11127106034E+03  0.14090409419E+03  0.81725992250E+02 0.  0.
          5    1    3    3  502    0  0.49412132778E+02 -0.12894286695E+01  0.11773338442E+03  0.12777504177E+03  0.47000000000E+01 0. -1.
        -11    1    4    4    0    0 -0.25255715503E+02  0.12376241315E+02 -0.39908712913E+00  0.28127953803E+02  0.00000000000E+00 0.  1.
         12    1    4    4    0    0 -0.23161441919E+02  0.97663525951E+02  0.15012376665E+03  0.18058726978E+03  0.00000000000E+00 0. -1.
         -5    1    5    5    0  501  0.27163890157E+02 -0.10794078629E+03  0.69301988591E+02  0.13120192795E+03  0.47000000000E+01 0.  1.
         11    1    6    6    0    0  0.22320968942E+02  0.21593612562E+02  0.44227329592E+02  0.54042265320E+02  0.00000000000E+00 0. -1.
        -12    1    6    6    0    0 -0.50479834455E+02 -0.22403164865E+02  0.67043730743E+02  0.86861828870E+02  0.00000000000E+00 0.  1.
<mgrwt>
<rscale>  2 0.20387073E+03</rscale>
<asrwt>0</asrwt>
<pdfrwt beam="2">  1        1 0.12351168E-01 0.20387073E+03</pdfrwt>
<pdfrwt beam="1">  1       -1 0.81279028E-01 0.20387073E+03</pdfrwt>
<totfact> 0.75985965E+02</totfact>
</mgrwt>
</event>
<event>
12    1  0.4154313E-002  0.2187676E+03  0.7546771E-02  0.1134805E+00
         -2   -1    0    0    0  501 -0.00000000000E+00  0.00000000000E+00  0.21233613244E+02  0.21233613244E+02  0.00000000000E+00 0.  1.
          2   -1    0    0  502    0  0.00000000000E+00 -0.00000000000E+00 -0.23087987989E+04  0.23087987989E+04  0.00000000000E+00 0. -1.
          6    2    1    2  502    0 -0.10904430621E+03 -0.81183908209E+02 -0.96205467770E+03  0.98652103098E+03  0.17085974953E+03 0.  0.
         24    2    3    3    0    0 -0.64552572193E+02 -0.12099151977E+03 -0.67618859524E+03  0.69444969135E+03  0.78888370764E+02 0.  0.
         -6    2    1    2    0  501  0.10904430621E+03  0.81183908209E+02 -0.13255105079E+04  0.13435113811E+04  0.17193963171E+03 0.  0.
        -24    2    5    5    0    0  0.13918533257E+03  0.38025184755E+02 -0.95493524973E+03  0.96918629666E+03  0.81254384382E+02 0.  0.
          5    1    3    3  502    0 -0.44491734016E+02  0.39807611565E+02 -0.28586608246E+03  0.29207133963E+03  0.47000000000E+01 0. -1.
        -13    1    4    4    0    0 -0.66343998756E+02 -0.10942928823E+03 -0.44685708491E+03  0.46481991096E+03  0.00000000000E+00 0.  1.
         14    1    4    4    0    0  0.17914265628E+01 -0.11562231540E+02 -0.22933151033E+03  0.22962978038E+03  0.00000000000E+00 0. -1.
         -5    1    5    5    0  501 -0.30141026361E+02  0.43158723454E+02 -0.37057525818E+03  0.37432508446E+03  0.47000000000E+01 0.  1.
         13    1    6    6    0    0  0.10374408262E+03  0.15246770227E+02 -0.84454754730E+03  0.85103223108E+03  0.00000000000E+00 0. -1.
        -14    1    6    6    0    0  0.35441249950E+02  0.22778414528E+02 -0.11038770243E+03  0.11815406558E+03  0.00000000000E+00 0.  1.
<mgrwt>
<rscale>  2 0.21876763E+03</rscale>
<asrwt>0</asrwt>
<pdfrwt beam="2">  1        2 0.35519986E+00 0.21876763E+03</pdfrwt>
<pdfrwt beam="1">  1       -2 0.32667093E-02 0.21876763E+03</pdfrwt>
<totfact> 0.19070536E+03</totfact>
</mgrwt>
</event>
<event>
12    1  0.4154313E-002  0.2044553E+03  0.7546771E-02  0.1146034E+00
         -1   -1    0    0    0  501 -0.00000000000E+00  0.00000000000E+00  0.18265870174E+02  0.18265870174E+02  0.00000000000E+00 0. -1.
          1   -1    0    0  502    0  0.00000000000E+00 -0.00000000000E+00 -0.24278826124E+04  0.24278826124E+04  0.00000000000E+00 0.  1.
          6    2    1    2  502    0 -0.21080089809E+02  0.10812745987E+03 -0.15010342678E+04  0.15149732922E+04  0.17292855547E+03 0.  0.
         24    2    3    3    0    0  0.27232098719E+02  0.91518254528E+02 -0.13425721335E+04  0.13484131792E+04  0.81246476481E+02 0.  0.
         -6    2    1    2    0  501  0.21080089809E+02 -0.10812745987E+03 -0.90858247440E+03  0.93117519032E+03  0.17154942294E+03 0.  0.
        -24    2    5    5    0    0 -0.42262145499E+02 -0.10526775846E+03 -0.66073850539E+03  0.67530581028E+03  0.81210682673E+02 0.  0.
          5    1    3    3  502    0 -0.48312188528E+02  0.16609205346E+02 -0.15846213428E+03  0.16656011306E+03  0.47000000000E+01 0. -1.
        -13    1    4    4    0    0 -0.98447735216E+01 -0.76811355620E+01 -0.34694912933E+03  0.34717375730E+03  0.00000000000E+00 0.  1.
         14    1    4    4    0    0  0.37076872240E+02  0.99199390090E+02 -0.99562300417E+03  0.10012394219E+04  0.00000000000E+00 0. -1.
         -5    1    5    5    0  501  0.63342235308E+02 -0.28597014137E+01 -0.24784396901E+03  0.25586938004E+03  0.47000000000E+01 0.  1.
         11    1    6    6    0    0  0.99870516926E+00  0.11551886126E+02 -0.26143261723E+02  0.28599189125E+02  0.00000000000E+00 0. -1.
        -12    1    6    6    0    0 -0.43260850668E+02 -0.11681964459E+03 -0.63459524366E+03  0.64670662115E+03  0.00000000000E+00 0.  1.
<mgrwt>
<rscale>  2 0.20445534E+03</rscale>
<asrwt>0</asrwt>
<pdfrwt beam="2">  1        1 0.37352055E+00 0.20445534E+03</pdfrwt>
<pdfrwt beam="1">  1       -1 0.28101327E-02 0.20445534E+03</pdfrwt>
<totfact> 0.74252559E+02</totfact>
</mgrwt>
</event>
<event>
12    1  0.4154313E-002  0.1863042E+03  0.7546771E-02  0.1161838E+00
         -2   -1    0    0    0  501 -0.00000000000E+00  0.00000000000E+00  0.64816546339E+02  0.64816546339E+02  0.00000000000E+00 0.  1.
          2   -1    0    0  502    0  0.00000000000E+00 -0.00000000000E+00 -0.85939302564E+03  0.85939302564E+03  0.00000000000E+00 0. -1.
          6    2    1    2  502    0  0.62139602716E+02 -0.24305045148E+02 -0.68035543738E+03  0.70527933011E+03  0.17344551555E+03 0.  0.
         24    2    3    3    0    0 -0.13961352155E+02  0.30594129575E+02 -0.24174518631E+03  0.25671905873E+03  0.79580273263E+02 0.  0.
         -6    2    1    2    0  501 -0.62139602716E+02  0.24305045148E+02 -0.11422104192E+03  0.21893024187E+03  0.17444752489E+03 0.  0.
        -24    2    5    5    0    0 -0.93630965948E+02 -0.20182745942E+02 -0.91168530324E+02  0.15956377149E+03  0.89301709011E+02 0.  0.
          5    1    3    3  502    0  0.76100954870E+02 -0.54899174723E+02 -0.43861025107E+03  0.44856027138E+03  0.47000000000E+01 0. -1.
        -13    1    4    4    0    0  0.11610663428E+01  0.38037262678E+02 -0.43655478084E+02  0.57913575212E+02  0.00000000000E+00 0.  1.
         14    1    4    4    0    0 -0.15122418497E+02 -0.74431331034E+01 -0.19808970823E+03  0.19880548352E+03  0.00000000000E+00 0. -1.
         -5    1    5    5    0  501  0.31491363232E+02  0.44487791090E+02 -0.23052511597E+02  0.59366470379E+02  0.47000000000E+01 0.  1.
         11    1    6    6    0    0 -0.75328346788E+02 -0.53704886731E+02 -0.59990757016E+02  0.11026089795E+03  0.00000000000E+00 0. -1.
        -12    1    6    6    0    0 -0.18302619160E+02  0.33522140788E+02 -0.31177773308E+02  0.49302873543E+02  0.00000000000E+00 0.  1.
<mgrwt>
<rscale>  2 0.18630424E+03</rscale>
<asrwt>0</asrwt>
<pdfrwt beam="2">  1        2 0.13221431E+00 0.18630424E+03</pdfrwt>
<pdfrwt beam="1">  1       -2 0.99717764E-02 0.18630424E+03</pdfrwt>
<totfact> 0.21411584E+03</totfact>
</mgrwt>
</event>
<event>
12    1  0.4154313E-002  0.2239203E+03  0.7546771E-02  0.1130994E+00
          1   -1    0    0  502    0  0.00000000000E+00  0.00000000000E+00  0.24122722898E+04  0.24122722898E+04  0.00000000000E+00 0. -1.
         -1   -1    0    0    0  501 -0.00000000000E+00 -0.00000000000E+00 -0.21614159977E+02  0.21614159977E+02  0.00000000000E+00 0.  1.
          6    2    1    2  502    0 -0.10968069348E+03 -0.87238112804E+02  0.14413520640E+04  0.14588794022E+04  0.17661538713E+03 0.  0.
         24    2    3    3    0    0 -0.93868985019E+02 -0.12396093075E+03  0.95327554129E+03  0.96914543616E+03  0.79567079388E+02 0.  0.
         -6    2    1    2    0  501  0.10968069348E+03  0.87238112804E+02  0.94930606579E+03  0.97500704753E+03  0.17267424050E+03 0.  0.
        -24    2    5    5    0    0  0.11844562770E+03  0.88913012021E+02  0.94998935447E+03  0.96489832641E+03  0.81327217243E+02 0.  0.
          5    1    3    3  502    0 -0.15811708461E+02  0.36722817945E+02  0.48807652273E+03  0.48973396607E+03  0.47000000000E+01 0. -1.
        -11    1    4    4    0    0 -0.95695102000E+02 -0.65821492499E+02  0.66355770050E+03  0.67364593320E+03  0.00000000000E+00 0.  1.
         12    1    4    4    0    0  0.18261169808E+01 -0.58139438250E+02  0.28971784079E+03  0.29549950297E+03  0.00000000000E+00 0. -1.
         -5    1    5    5    0  501 -0.87649342200E+01 -0.16748992165E+01 -0.68328868087E+00  0.10108721120E+02  0.47000000000E+01 0.  1.
         13    1    6    6    0    0  0.78970895025E+02  0.93461839792E+02  0.57903404858E+03  0.59182087422E+03  0.00000000000E+00 0. -1.
        -14    1    6    6    0    0  0.39474732675E+02 -0.45488277714E+01  0.37095530590E+03  0.37307745218E+03  0.00000000000E+00 0.  1.
<mgrwt>
<rscale>  2 0.22392033E+03</rscale>
<asrwt>0</asrwt>
<pdfrwt beam="1">  1        1 0.37111860E+00 0.22392033E+03</pdfrwt>
<pdfrwt beam="2">  1       -1 0.33252573E-02 0.22392033E+03</pdfrwt>
<totfact> 0.59129372E+02</totfact>
</mgrwt>
</event>
<event>
12    1  0.4154313E-002  0.2273831E+03  0.7546771E-02  0.1128495E+00
         -1   -1    0    0    0  501 -0.00000000000E+00  0.00000000000E+00  0.17798715271E+03  0.17798715271E+03  0.00000000000E+00 0.  1.
          1   -1    0    0  502    0  0.00000000000E+00 -0.00000000000E+00 -0.55687809044E+03  0.55687809044E+03  0.00000000000E+00 0. -1.
          6    2    1    2  502    0  0.10683465662E+03 -0.10286397929E+03 -0.44373954250E+03  0.49877824420E+03  0.17285922950E+03 0.  0.
         24    2    3    3    0    0  0.18685157001E+02 -0.92642038903E+02 -0.33839828751E+03  0.36096063883E+03  0.82749618322E+02 0.  0.
         -6    2    1    2    0  501 -0.10683465662E+03  0.10286397929E+03  0.64848604766E+02  0.23608699895E+03  0.17186357218E+03 0.  0.
        -24    2    5    5    0    0 -0.12303780499E+02  0.12211412831E+02 -0.13451432476E+02  0.83420826610E+02  0.80483486870E+02 0.  0.
          5    1    3    3  502    0  0.88149499616E+02 -0.10221940391E+02 -0.10534125499E+03  0.13781760537E+03  0.47000000000E+01 0. -1.
        -11    1    4    4    0    0  0.33154878544E+02 -0.50164625528E+01 -0.13341938409E+03  0.13756868437E+03  0.00000000000E+00 0.  1.
         12    1    4    4    0    0 -0.14469721543E+02 -0.87625576350E+02 -0.20497890342E+03  0.22339195446E+03  0.00000000000E+00 0. -1.
         -5    1    5    5    0  501 -0.94530876117E+02  0.90652566462E+02  0.78300037242E+02  0.15266617234E+03  0.47000000000E+01 0.  1.
         11    1    6    6    0    0 -0.33323736189E+02  0.35193470456E+02 -0.18483532745E+02  0.51871887753E+02  0.00000000000E+00 0. -1.
        -12    1    6    6    0    0  0.21019955689E+02 -0.22982057625E+02  0.50321002693E+01  0.31548938857E+02  0.00000000000E+00 0.  1.
<mgrwt>
<rscale>  2 0.22738306E+03</rscale>
<asrwt>0</asrwt>
<pdfrwt beam="2">  1        1 0.85673551E-01 0.22738306E+03</pdfrwt>
<pdfrwt beam="1">  1       -1 0.27382639E-01 0.22738306E+03</pdfrwt>
<totfact> 0.46981808E+02</totfact>
</mgrwt>
</event>
<event>
12    1  0.4154313E-002  0.1940878E+03  0.7546771E-02  0.1154825E+00
          2   -1    0    0  502    0  0.00000000000E+00  0.00000000000E+00  0.45312615889E+03  0.45312615889E+03  0.00000000000E+00 0. -1.
         -2   -1    0    0    0  501 -0.00000000000E+00 -0.00000000000E+00 -0.13028167412E+03  0.13028167412E+03  0.00000000000E+00 0.  1.
          6    2    1    2  502    0  0.86909589267E+02 -0.98916092044E+01 -0.13994734481E+02  0.19471332264E+03  0.17339638053E+03 0.  0.
         24    2    3    3    0    0  0.40854345712E+02 -0.73011548930E+02 -0.26902793505E+01  0.11562417701E+03  0.79761825867E+02 0.  0.
         -6    2    1    2    0  501 -0.86909589267E+02  0.98916092044E+01  0.33683921926E+03  0.38869451038E+03  0.17312319928E+03 0.  0.
        -24    2    5    5    0    0 -0.15730985929E+02 -0.47336708778E+02  0.23082978926E+03  0.24868892763E+03  0.77945899190E+02 0.  0.
          5    1    3    3  502    0  0.46055243555E+02  0.63119939726E+02 -0.11304455130E+02  0.79089145625E+02  0.47000000000E+01 0. -1.
        -13    1    4    4    0    0  0.26307870864E+02 -0.34206602796E+02 -0.40753250237E+02  0.59355060013E+02  0.00000000000E+00 0.  1.
         14    1    4    4    0    0  0.14546474848E+02 -0.38804946135E+02  0.38062970887E+02  0.56269116998E+02  0.00000000000E+00 0. -1.
         -5    1    5    5    0  501 -0.71178603338E+02  0.57228317982E+02  0.10600943000E+03  0.14000558275E+03  0.47000000000E+01 0.  1.
         11    1    6    6    0    0  0.22099555431E+02  0.38995040575E+01  0.10824265793E+03  0.11054442310E+03  0.00000000000E+00 0. -1.
        -12    1    6    6    0    0 -0.37830541360E+02 -0.51236212835E+02  0.12258713132E+03  0.13814450453E+03  0.00000000000E+00 0.  1.
<mgrwt>
<rscale>  2 0.19408777E+03</rscale>
<asrwt>0</asrwt>
<pdfrwt beam="1">  1        2 0.69711716E-01 0.19408777E+03</pdfrwt>
<pdfrwt beam="2">  1       -2 0.20043335E-01 0.19408777E+03</pdfrwt>
<totfact> 0.14480571E+03</totfact>
</mgrwt>
</event>
<event>
12    1  0.4154313E-002  0.1942098E+03  0.7546771E-02  0.1154718E+00
          2   -1    0    0  502    0  0.00000000000E+00  0.00000000000E+00  0.28124545010E+04  0.28124545010E+04  0.00000000000E+00 0. -1.
         -2   -1    0    0    0  501 -0.00000000000E+00 -0.00000000000E+00 -0.13855437958E+02  0.13855437958E+02  0.00000000000E+00 0.  1.
          6    2    1    2  502    0  0.82686125599E+02  0.37406729433E+02  0.16399832762E+04  0.16512397982E+04  0.16973940638E+03 0.  0.
         24    2    3    3    0    0 -0.15342997661E+01 -0.12073845277E+02  0.44639697802E+03  0.45365399810E+03  0.79897160113E+02 0.  0.
         -6    2    1    2    0  501 -0.82686125599E+02 -0.37406729433E+02  0.11586157868E+04  0.11750701407E+04  0.17367508594E+03 0.  0.
        -24    2    5    5    0    0 -0.12090678767E+03 -0.11679657139E+02  0.76861316652E+03  0.78232743224E+03  0.80716453041E+02 0.  0.
          5    1    3    3  502    0  0.84220425365E+02  0.49480574710E+02  0.11935862982E+04  0.11975858001E+04  0.47000000000E+01 0. -1.
        -11    1    4    4    0    0  0.12163214287E+02 -0.39891475383E+02  0.15163176629E+03  0.15726241172E+03  0.00000000000E+00 0.  1.
         12    1    4    4    0    0 -0.13697514053E+02  0.27817630106E+02  0.29476521172E+03  0.29639158638E+03  0.00000000000E+00 0. -1.
         -5    1    5    5    0  501  0.38220662074E+02 -0.25727072295E+02  0.39000262028E+03  0.39274270850E+03  0.47000000000E+01 0.  1.
         11    1    6    6    0    0 -0.10425966610E+03  0.54265268769E+01  0.41575092447E+03  0.42865878781E+03  0.00000000000E+00 0. -1.
        -12    1    6    6    0    0 -0.16647121572E+02 -0.17106184015E+02  0.35286224206E+03  0.35366864443E+03  0.00000000000E+00 0.  1.
<mgrwt>
<rscale>  2 0.19420982E+03</rscale>
<asrwt>0</asrwt>
<pdfrwt beam="1">  1        2 0.43268485E+00 0.19420982E+03</pdfrwt>
<pdfrwt beam="2">  1       -2 0.21316081E-02 0.19420982E+03</pdfrwt>
<totfact> 0.19051474E+03</totfact>
</mgrwt>
</event>
<event>
12    1  0.4154313E-002  0.2194205E+03  0.7546771E-02  0.1134316E+00
          1   -1    0    0  502    0  0.00000000000E+00  0.00000000000E+00  0.24476262742E+04  0.24476262742E+04  0.00000000000E+00 0. -1.
         -1   -1    0    0    0  501 -0.00000000000E+00 -0.00000000000E+00 -0.23764294128E+02  0.23764294128E+02  0.00000000000E+00 0.  1.
          6    2    1    2  502    0 -0.13172864113E+03  0.28586396865E+02  0.70034989076E+03  0.73400350321E+03  0.17349800073E+03 0.  0.
         24    2    3    3    0    0 -0.10932359522E+03  0.25678838014E+00  0.67733583661E+03  0.69091882511E+03  0.81444907261E+02 0.  0.
         -6    2    1    2    0  501  0.13172864113E+03 -0.28586396865E+02  0.17235120893E+04  0.17373870651E+04  0.17277232144E+03 0.  0.
        -24    2    5    5    0    0  0.43771108630E+02 -0.56383673295E+02  0.61452501813E+03  0.62456020071E+03  0.85670402342E+02 0.  0.
          5    1    3    3  502    0 -0.22405045906E+02  0.28329608485E+02  0.23014054153E+02  0.43084678106E+02  0.47000000000E+01 0. -1.
        -13    1    4    4    0    0 -0.26830582766E+02  0.19674319159E+02  0.67840912627E+02  0.75560230492E+02  0.00000000000E+00 0.  1.
         14    1    4    4    0    0 -0.82493012458E+02 -0.19417530779E+02  0.60949492398E+03  0.61535859462E+03  0.00000000000E+00 0. -1.
         -5    1    5    5    0  501  0.87957532501E+02  0.27797276430E+02  0.11089870712E+04  0.11128268644E+04  0.47000000000E+01 0.  1.
         13    1    6    6    0    0  0.51894136109E+02 -0.64850471654E+01  0.19106863199E+03  0.19809664139E+03  0.00000000000E+00 0. -1.
        -14    1    6    6    0    0 -0.81230274794E+01 -0.49898626130E+02  0.42345638614E+03  0.42646355932E+03  0.00000000000E+00 0.  1.
<mgrwt>
<rscale>  2 0.21942053E+03</rscale>
<asrwt>0</asrwt>
<pdfrwt beam="1">  1        1 0.37655769E+00 0.21942053E+03</pdfrwt>
<pdfrwt beam="2">  1       -1 0.36560472E-02 0.21942053E+03</pdfrwt>
<totfact> 0.48747444E+02</totfact>
</mgrwt>
</event>
<event>
12    1  0.4154313E-002  0.1955317E+03  0.7546771E-02  0.1153565E+00
         -2   -1    0    0    0  501 -0.00000000000E+00  0.00000000000E+00  0.10833605804E+03  0.10833605804E+03  0.00000000000E+00 0. -1.
          2   -1    0    0  502    0  0.00000000000E+00 -0.00000000000E+00 -0.51503105643E+03  0.51503105643E+03  0.00000000000E+00 0.  1.
          6    2    1    2  502    0  0.41020234569E+02 -0.71676974223E+02 -0.37581564094E+03  0.42215031114E+03  0.17364688579E+03 0.  0.
         24    2    3    3    0    0 -0.17270300605E+01 -0.71787576219E+02 -0.36094419696E+03  0.37664656721E+03  0.80159120104E+02 0.  0.
         -6    2    1    2    0  501 -0.41020234569E+02  0.71676974223E+02 -0.30879357441E+02  0.20121680333E+03  0.18087127729E+03 0.  0.
        -24    2    5    5    0    0  0.18193472360E+01  0.91040185670E+02  0.28179600856E+02  0.12558470510E+03  0.81766758648E+02 0.  0.
          5    1    3    3  502    0  0.42747264630E+02  0.11060199672E+00 -0.14871443978E+02  0.45503743935E+02  0.47000000000E+01 0. -1.
        -11    1    4    4    0    0 -0.20416194426E+02 -0.61290257263E+02 -0.13470985398E+03  0.14939900063E+03  0.00000000000E+00 0.  1.
         12    1    4    4    0    0  0.18689164366E+02 -0.10497318956E+02 -0.22623434299E+03  0.22724756658E+03  0.00000000000E+00 0. -1.
         -5    1    5    5    0  501 -0.42839581805E+02 -0.19363211448E+02 -0.59058958297E+02  0.75632098225E+02  0.47000000000E+01 0.  1.
         11    1    6    6    0    0  0.48833411190E+01  0.10617478451E+03  0.28835657990E+02  0.11012913810E+03  0.00000000000E+00 0. -1.
        -12    1    6    6    0    0 -0.30639938829E+01 -0.15134598838E+02 -0.65605713322E+00  0.15455567006E+02  0.00000000000E+00 0.  1.
<mgrwt>
<rscale>  2 0.19553168E+03</rscale>
<asrwt>0</asrwt>
<pdfrwt beam="2">  1        2 0.79235549E-01 0.19553168E+03</pdfrwt>
<pdfrwt beam="1">  1       -2 0.16667086E-01 0.19553168E+03</pdfrwt>
<totfact> 0.17153465E+03</totfact>
</mgrwt>
</event>
<event>
12    1  0.4154313E-002  0.2471100E+03  0.7546771E-02  0.1115145E+00
          2   -1    0    0  502    0  0.00000000000E+00  0.00000000000E+00  0.35609153772E+03  0.35609153772E+03  0.00000000000E+00 0.  1.
         -2   -1    0    0    0  501 -0.00000000000E+00 -0.00000000000E+00 -0.21603475016E+03  0.21603475016E+03  0.00000000000E+00 0. -1.
          6    2    1    2  502    0  0.81902896640E+02  0.15615261393E+03  0.20007903362E+03  0.31845457444E+03  0.17404014759E+03 0.  0.
         24    2    3    3    0    0  0.14013717636E+02  0.35404854645E+02  0.14512904384E+03  0.16935543502E+03  0.78542574390E+02 0.  0.
         -6    2    1    2    0  501 -0.81902896640E+02 -0.15615261393E+03 -0.60022246068E+02  0.25367171344E+03  0.17220611156E+03 0.  0.
        -24    2    5    5    0    0 -0.73687744943E+02 -0.17154364827E+03 -0.13027673099E+02  0.20332340121E+03  0.79458027892E+02 0.  0.
          5    1    3    3  502    0  0.67889179005E+02  0.12074775929E+03  0.54949989781E+02  0.14909913942E+03  0.47000000000E+01 0. -1.
        -13    1    4    4    0    0 -0.25437895918E+02  0.33126524886E+02  0.10515299776E+03  0.11314418296E+03  0.00000000000E+00 0.  1.
         14    1    4    4    0    0  0.39451613554E+02  0.22783297587E+01  0.39976046084E+02  0.56211252067E+02  0.00000000000E+00 0. -1.
         -5    1    5    5    0  501 -0.82151516978E+01  0.15391034339E+02 -0.46994572969E+02  0.50348312226E+02  0.47000000000E+01 0.  1.
         11    1    6    6    0    0 -0.13476294096E+02  0.64958545796E+01 -0.97875983735E+00  0.14992151283E+02  0.00000000000E+00 0. -1.
        -12    1    6    6    0    0 -0.60211450847E+02 -0.17803950285E+03 -0.12048913261E+02  0.18833124993E+03  0.00000000000E+00 0.  1.
<mgrwt>
<rscale>  2 0.24711001E+03</rscale>
<asrwt>0</asrwt>
<pdfrwt beam="1">  1        2 0.54783313E-01 0.24711001E+03</pdfrwt>
<pdfrwt beam="2">  1       -2 0.33236115E-01 0.24711001E+03</pdfrwt>
<totfact> 0.76918902E+02</totfact>
</mgrwt>
</event>
<event>
12    1  0.4154313E-002  0.1860530E+03  0.7546771E-02  0.1162070E+00
         -2   -1    0    0    0  501 -0.00000000000E+00  0.00000000000E+00  0.13933257514E+04  0.13933257514E+04  0.00000000000E+00 0. -1.
          2   -1    0    0  502    0  0.00000000000E+00 -0.00000000000E+00 -0.27570570855E+02  0.27570570855E+02  0.00000000000E+00 0.  1.
          6    2    1    2  502    0 -0.14047133853E+02 -0.58969813175E+02  0.48031924914E+03  0.51731145505E+03  0.18229042651E+03 0.  0.
         24    2    3    3    0    0  0.57572811301E+02 -0.54812709180E+02  0.35618034044E+03  0.37385673498E+03  0.81150241430E+02 0.  0.
         -6    2    1    2    0  501  0.14047133853E+02  0.58969813175E+02  0.88543593142E+03  0.90358486722E+03  0.16968813389E+03 0.  0.
        -24    2    5    5    0    0  0.26019362418E+02  0.99293750837E+02  0.53609810706E+03  0.55169232718E+03  0.80168493196E+02 0.  0.
          5    1    3    3  502    0 -0.71619945154E+02 -0.41571039943E+01  0.12413890869E+03  0.14345472007E+03  0.47000000000E+01 0. -1.
        -11    1    4    4    0    0 -0.10870088197E+02 -0.36534994438E+02  0.78253884174E+02  0.87043868390E+02  0.00000000000E+00 0.  1.
         12    1    4    4    0    0  0.68442899499E+02 -0.18277714742E+02  0.27792645627E+03  0.28681286659E+03  0.00000000000E+00 0. -1.
         -5    1    5    5    0  501 -0.11972228565E+02 -0.40323937663E+02  0.34933782436E+03  0.35189254003E+03  0.47000000000E+01 0.  1.
         11    1    6    6    0    0  0.48568608899E+02  0.61987853530E+02  0.42712755515E+03  0.43432631986E+03  0.00000000000E+00 0. -1.
        -12    1    6    6    0    0 -0.22549246481E+02  0.37305897307E+02  0.10897055191E+03  0.11736600732E+03  0.00000000000E+00 0.  1.
<mgrwt>
<rscale>  2 0.18605299E+03</rscale>
<asrwt>0</asrwt>
<pdfrwt beam="2">  1        2 0.42416274E-02 0.18605299E+03</pdfrwt>
<pdfrwt beam="1">  1       -2 0.21435775E+00 0.18605299E+03</pdfrwt>
<totfact> 0.22897249E+02</totfact>
</mgrwt>
</event>
<event>
12    1  0.4154313E-002  0.1855054E+03  0.7546771E-02  0.1162579E+00
          2   -1    0    0  502    0  0.00000000000E+00  0.00000000000E+00  0.23699877752E+03  0.23699877752E+03  0.00000000000E+00 0. -1.
         -2   -1    0    0    0  501 -0.00000000000E+00 -0.00000000000E+00 -0.16726268510E+03  0.16726268510E+03  0.00000000000E+00 0.  1.
          6    2    1    2  502    0  0.41712446613E+02  0.59777576438E+02  0.10781986641E+03  0.21241369326E+03  0.16787247137E+03 0.  0.
         24    2    3    3    0    0  0.14730526189E+02  0.99419081276E+02  0.10149635345E+03  0.16381791410E+03  0.80210080996E+02 0.  0.
         -6    2    1    2    0  501 -0.41712446613E+02 -0.59777576438E+02 -0.38083773987E+02  0.19184776936E+03  0.17332601051E+03 0.  0.
        -24    2    5    5    0    0 -0.33177794481E+02 -0.88707735196E+02  0.20824705029E+02  0.12549949679E+03  0.79665720514E+02 0.  0.
          5    1    3    3  502    0  0.26981920424E+02 -0.39641504838E+02  0.63235129569E+01  0.48595779156E+02  0.47000000000E+01 0. -1.
        -11    1    4    4    0    0  0.42480648639E+02  0.25300165116E+02  0.39207687310E+02  0.63102667202E+02  0.00000000000E+00 0.  1.
         12    1    4    4    0    0 -0.27750122451E+02  0.74118916159E+02  0.62288666140E+02  0.10071524690E+03  0.00000000000E+00 0. -1.
         -5    1    5    5    0  501 -0.85346521320E+01  0.28930158759E+02 -0.58908479016E+02  0.66348272568E+02  0.47000000000E+01 0.  1.
         13    1    6    6    0    0 -0.54570294451E+02 -0.80503237963E+02  0.28484297013E+02  0.10134122328E+03  0.00000000000E+00 0. -1.
        -14    1    6    6    0    0  0.21392499970E+02 -0.82044972332E+01 -0.76595919841E+01  0.24158273514E+02  0.00000000000E+00 0.  1.
<mgrwt>
<rscale>  2 0.18550539E+03</rscale>
<asrwt>0</asrwt>
<pdfrwt beam="1">  1        2 0.36461350E-01 0.18550539E+03</pdfrwt>
<pdfrwt beam="2">  1       -2 0.25732721E-01 0.18550539E+03</pdfrwt>
<totfact> 0.18840848E+03</totfact>
</mgrwt>
</event>
<event>
12    1  0.4154313E-002  0.2092644E+03  0.7546771E-02  0.1142150E+00
         -4   -1    0    0    0  501 -0.00000000000E+00  0.00000000000E+00  0.36145138424E+03  0.36145138424E+03  0.00000000000E+00 0. -1.
          4   -1    0    0  502    0  0.00000000000E+00 -0.00000000000E+00 -0.13633035586E+03  0.13633035586E+03  0.00000000000E+00 0.  1.
          6    2    1    2  502    0  0.11107915980E+03  0.38666869087E+02  0.29271594313E+02  0.21078066157E+03  0.17244696156E+03 0.  0.
         24    2    3    3    0    0  0.92374721173E+02 -0.37541427476E+02  0.34475048391E+02  0.13199788158E+03  0.79325052096E+02 0.  0.
         -6    2    1    2    0  501 -0.11107915980E+03 -0.38666869087E+02  0.19584943407E+03  0.28700107853E+03  0.17372078674E+03 0.  0.
        -24    2    5    5    0    0  0.23463073679E+00 -0.99724608746E+01  0.29602517219E+02  0.84827251368E+02  0.78866016265E+02 0.  0.
          5    1    3    3  502    0  0.18704438623E+02  0.76208296564E+02 -0.52034540782E+01  0.78782779995E+02  0.47000000000E+01 0. -1.
        -13    1    4    4    0    0  0.37692985175E+02 -0.30949930108E+02 -0.21651246084E+02  0.53361369567E+02  0.00000000000E+00 0.  1.
         14    1    4    4    0    0  0.54681735999E+02 -0.65914973680E+01  0.56126294475E+02  0.78636512008E+02  0.00000000000E+00 0. -1.
         -5    1    5    5    0  501 -0.11131379053E+03 -0.28694408213E+02  0.16624691685E+03  0.20217382716E+03  0.47000000000E+01 0.  1.
         13    1    6    6    0    0  0.26126520391E+02 -0.21613408526E+02  0.41890202370E+02  0.53893631818E+02  0.00000000000E+00 0. -1.
        -14    1    6    6    0    0 -0.25891889655E+02  0.11640947652E+02 -0.12287685152E+02  0.30933619551E+02  0.00000000000E+00 0.  1.
<mgrwt>
<rscale>  2 0.20926439E+03</rscale>
<asrwt>0</asrwt>
<pdfrwt beam="2">  1        4 0.20973901E-01 0.20926439E+03</pdfrwt>
<pdfrwt beam="1">  1       -4 0.55607905E-01 0.20926439E+03</pdfrwt>
<totfact> 0.11518280E+02</totfact>
</mgrwt>
</event>
<event>
12    1  0.4154313E-002  0.1763735E+03  0.7546771E-02  0.1171360E+00
         -2   -1    0    0    0  501 -0.00000000000E+00  0.00000000000E+00  0.19663210138E+02  0.19663210138E+02  0.00000000000E+00 0.  1.
          2   -1    0    0  502    0  0.00000000000E+00 -0.00000000000E+00 -0.17503970645E+04  0.17503970645E+04  0.00000000000E+00 0. -1.
          6    2    1    2  502    0 -0.29895599958E+02 -0.15548988518E+02 -0.11408194374E+04  0.11544060494E+04  0.17334595522E+03 0.  0.
         24    2    3    3    0    0  0.87087080296E+01 -0.66903066385E+02 -0.53011417202E+03  0.54031277873E+03  0.79780960136E+02 0.  0.
         -6    2    1    2    0  501  0.29895599958E+02  0.15548988518E+02 -0.58991441703E+03  0.61565422531E+03  0.17290340593E+03 0.  0.
        -24    2    5    5    0    0  0.33663042771E+02  0.51643248780E+02 -0.20209133583E+03  0.22610856488E+03  0.80522974986E+02 0.  0.
          5    1    3    3  502    0 -0.38604307987E+02  0.51354077866E+02 -0.61070526536E+03  0.61409327064E+03  0.47000000000E+01 0. -1.
        -11    1    4    4    0    0  0.10405817745E+02  0.16744787432E+02 -0.13551604972E+03  0.13694257439E+03  0.00000000000E+00 0.  1.
         12    1    4    4    0    0 -0.16971097154E+01 -0.83647853817E+02 -0.39459812230E+03  0.40337020434E+03  0.00000000000E+00 0. -1.
         -5    1    5    5    0  501 -0.37674428130E+01 -0.36094260262E+02 -0.38782308120E+03  0.38954566043E+03  0.47000000000E+01 0.  1.
         11    1    6    6    0    0 -0.18049320556E+02  0.45970802739E+02 -0.97868645310E+02  0.10962374018E+03  0.00000000000E+00 0. -1.
        -12    1    6    6    0    0  0.51712363327E+02  0.56724460408E+01 -0.10422269052E+03  0.11648482469E+03  0.00000000000E+00 0.  1.
<mgrwt>
<rscale>  2 0.17637355E+03</rscale>
<asrwt>0</asrwt>
<pdfrwt beam="2">  1        2 0.26929200E+00 0.17637355E+03</pdfrwt>
<pdfrwt beam="1">  1       -2 0.30251077E-02 0.17637355E+03</pdfrwt>
<totfact> 0.41876250E+03</totfact>
</mgrwt>
</event>
<event>
12    1  0.4154313E-002  0.1790552E+03  0.7546771E-02  0.1168721E+00
         -3   -1    0    0    0  501 -0.00000000000E+00  0.00000000000E+00  0.16880402874E+02  0.16880402874E+02  0.00000000000E+00 0. -1.
          3   -1    0    0  502    0  0.00000000000E+00 -0.00000000000E+00 -0.20200521010E+04  0.20200521010E+04  0.00000000000E+00 0.  1.
          6    2    1    2  502    0  0.43966984497E+02 -0.16274324528E+02 -0.12484844165E+04  0.12612021408E+04  0.17239359752E+03 0.  0.
         24    2    3    3    0    0  0.61741093644E+02 -0.69116900213E+02 -0.91893140525E+03  0.92693348544E+03  0.78623471940E+02 0.  0.
         -6    2    1    2    0  501 -0.43966984497E+02  0.16274324528E+02 -0.75468728166E+03  0.77573036307E+03  0.17322457595E+03 0.  0.
        -24    2    5    5    0    0 -0.74929237802E+02  0.59910563050E+02 -0.51832635816E+03  0.53334356763E+03  0.81175620280E+02 0.  0.
          5    1    3    3  502    0 -0.17774109147E+02  0.52842575685E+02 -0.32955301124E+03  0.33426865539E+03  0.47000000000E+01 0. -1.
        -11    1    4    4    0    0  0.63219170867E+02 -0.71004770500E+02 -0.91955468227E+03  0.92445613994E+03  0.00000000000E+00 0.  1.
         12    1    4    4    0    0 -0.14780772235E+01  0.18878702865E+01  0.62327701475E+00  0.24773455016E+01  0.00000000000E+00 0. -1.
         -5    1    5    5    0  501  0.30962253305E+02 -0.43636238522E+02 -0.23636092350E+03  0.24238679543E+03  0.47000000000E+01 0.  1.
         11    1    6    6    0    0  0.55825445960E+01  0.42715470986E+02 -0.16196371475E+03  0.16759481246E+03  0.00000000000E+00 0. -1.
        -12    1    6    6    0    0 -0.80511782398E+02  0.17195092064E+02 -0.35636264340E+03  0.36574875517E+03  0.00000000000E+00 0.  1.
<mgrwt>
<rscale>  2 0.17905525E+03</rscale>
<asrwt>0</asrwt>
<pdfrwt beam="2">  1        3 0.31077715E+00 0.17905525E+03</pdfrwt>
<pdfrwt beam="1">  1       -3 0.25969859E-02 0.17905525E+03</pdfrwt>
<totfact> 0.61500193E+01</totfact>
</mgrwt>
</event>
<event>
12    1  0.4154313E-002  0.2419251E+03  0.7546771E-02  0.1118517E+00
          2   -1    0    0  502    0  0.00000000000E+00  0.00000000000E+00  0.14198516397E+04  0.14198516397E+04  0.00000000000E+00 0. -1.
         -2   -1    0    0    0  501 -0.00000000000E+00 -0.00000000000E+00 -0.48082288115E+02  0.48082288115E+02  0.00000000000E+00 0.  1.
          6    2    1    2  502    0 -0.10995855532E+03  0.12828923506E+03  0.40824295849E+03  0.47446163283E+03  0.17292344013E+03 0.  0.
         24    2    3    3    0    0 -0.15744267521E+02  0.11958076750E+03  0.21965357396E+03  0.26341610364E+03  0.81196731386E+02 0.  0.
         -6    2    1    2    0  501  0.10995855532E+03 -0.12828923506E+03  0.96352639308E+03  0.99347229497E+03  0.17336400719E+03 0.  0.
        -24    2    5    5    0    0  0.59797690249E+02 -0.15376293058E+03  0.79120111107E+03  0.81213527622E+03  0.79659940677E+02 0.  0.
          5    1    3    3  502    0 -0.94214287803E+02  0.87084675670E+01  0.18858938453E+03  0.21104552919E+03  0.47000000000E+01 0. -1.
        -13    1    4    4    0    0 -0.48728108614E+02  0.62666339281E+02  0.12751843183E+03  0.15020801944E+03  0.00000000000E+00 0.  1.
         14    1    4    4    0    0  0.32983841093E+02  0.56914428217E+02  0.92135142127E+02  0.11320808420E+03  0.00000000000E+00 0. -1.
         -5    1    5    5    0  501  0.50160865075E+02  0.25473695515E+02  0.17232528201E+03  0.18133701874E+03  0.47000000000E+01 0.  1.
         13    1    6    6    0    0  0.20109967544E+02 -0.34350471150E+02  0.38083488084E+03  0.38290935236E+03  0.00000000000E+00 0. -1.
        -14    1    6    6    0    0  0.39687722705E+02 -0.11941245943E+03  0.41036623023E+03  0.42922592386E+03  0.00000000000E+00 0.  1.
<mgrwt>
<rscale>  2 0.24192511E+03</rscale>
<asrwt>0</asrwt>
<pdfrwt beam="1">  1        2 0.21843868E+00 0.24192511E+03</pdfrwt>
<pdfrwt beam="2">  1       -2 0.73972762E-02 0.24192511E+03</pdfrwt>
<totfact> 0.16142590E+03</totfact>
</mgrwt>
</event>
<event>
12    1  0.4154313E-002  0.1768696E+03  0.7546771E-02  0.1170868E+00
         -2   -1    0    0    0  501 -0.00000000000E+00  0.00000000000E+00  0.37061357571E+02  0.37061357571E+02  0.00000000000E+00 0. -1.
          2   -1    0    0  502    0  0.00000000000E+00 -0.00000000000E+00 -0.92101605814E+03  0.92101605814E+03  0.00000000000E+00 0.  1.
          6    2    1    2  502    0 -0.22395582898E+02 -0.28675635163E+02 -0.57968915713E+03  0.60597763397E+03  0.17275855928E+03 0.  0.
         24    2    3    3    0    0 -0.51238711677E+01  0.46331537791E+02 -0.11305507995E+03  0.13301480245E+03  0.52331836569E+02 0.  0.
         -6    2    1    2    0  501  0.22395582898E+02  0.28675635163E+02 -0.30426554345E+03  0.35209978174E+03  0.17341534300E+03 0.  0.
        -24    2    5    5    0    0 -0.44772147448E+02 -0.16930330799E+02 -0.19655165136E+03  0.21713393169E+03  0.78888600894E+02 0.  0.
          5    1    3    3  502    0 -0.17271711731E+02 -0.75007172954E+02 -0.46663407718E+03  0.47296283153E+03  0.47000000000E+01 0. -1.
        -13    1    4    4    0    0 -0.17651430251E+02  0.16372767748E+00 -0.55146508962E+02  0.57902825901E+02  0.00000000000E+00 0.  1.
         14    1    4    4    0    0  0.12527559083E+02  0.46167810114E+02 -0.57908570983E+02  0.75111976546E+02  0.00000000000E+00 0. -1.
         -5    1    5    5    0  501  0.67167730346E+02  0.45605965962E+02 -0.10771389209E+03  0.13496585005E+03  0.47000000000E+01 0.  1.
         11    1    6    6    0    0 -0.21870075189E+02 -0.39031740820E+01 -0.37374384976E+01  0.22527836186E+02  0.00000000000E+00 0. -1.
        -12    1    6    6    0    0 -0.22902072258E+02 -0.13027156717E+02 -0.19281421286E+03  0.19460609550E+03  0.00000000000E+00 0.  1.
<mgrwt>
<rscale>  2 0.17686958E+03</rscale>
<asrwt>0</asrwt>
<pdfrwt beam="2">  1        2 0.14169478E+00 0.17686958E+03</pdfrwt>
<pdfrwt beam="1">  1       -2 0.57017474E-02 0.17686958E+03</pdfrwt>
<totfact> 0.46429817E+03</totfact>
</mgrwt>
</event>
<event>
12    1  0.4154313E-002  0.1763923E+03  0.7546771E-02  0.1171341E+00
          2   -1    0    0  502    0  0.00000000000E+00  0.00000000000E+00  0.12558521879E+03  0.12558521879E+03  0.00000000000E+00 0. -1.
         -2   -1    0    0    0  501 -0.00000000000E+00 -0.00000000000E+00 -0.31986132504E+03  0.31986132504E+03  0.00000000000E+00 0.  1.
          6    2    1    2  502    0  0.11191660705E+02  0.33278247802E+02  0.85631908861E+01  0.17671077653E+03  0.17297593837E+03 0.  0.
         24    2    3    3    0    0 -0.40977847192E+02  0.29493612604E+02  0.53206264058E+02  0.10778273434E+03  0.78975655372E+02 0.  0.
         -6    2    1    2    0  501 -0.11191660705E+02 -0.33278247802E+02 -0.20283929714E+03  0.26873576730E+03  0.17274963710E+03 0.  0.
        -24    2    5    5    0    0 -0.21394917790E+02  0.46787298103E+02 -0.11955813245E+03  0.15266492476E+03  0.79784951250E+02 0.  0.
          5    1    3    3  502    0  0.52169507896E+02  0.37846351982E+01 -0.44643073172E+02  0.68928042188E+02  0.47000000000E+01 0. -1.
        -13    1    4    4    0    0 -0.42987054841E+02  0.23306860378E+02 -0.50550310630E+01  0.49159434126E+02  0.00000000000E+00 0.  1.
         14    1    4    4    0    0  0.20092076492E+01  0.61867522255E+01  0.58261295121E+02  0.58623300211E+02  0.00000000000E+00 0. -1.
         -5    1    5    5    0  501  0.10203257085E+02 -0.80065545904E+02 -0.83281164688E+02  0.11607084254E+03  0.47000000000E+01 0.  1.
         13    1    6    6    0    0  0.14736548617E+02  0.27696771002E+02 -0.59522023680E+01  0.31932831100E+02  0.00000000000E+00 0. -1.
        -14    1    6    6    0    0 -0.36131466407E+02  0.19090527101E+02 -0.11360593008E+03  0.12073209366E+03  0.00000000000E+00 0.  1.
<mgrwt>
<rscale>  2 0.17639225E+03</rscale>
<asrwt>0</asrwt>
<pdfrwt beam="1">  1        2 0.19320803E-01 0.17639225E+03</pdfrwt>
<pdfrwt beam="2">  1       -2 0.49209434E-01 0.17639225E+03</pdfrwt>
<totfact> 0.11332252E+03</totfact>
</mgrwt>
</event>
<event>
12    1  0.4154313E-002  0.1797118E+03  0.7546771E-02  0.1168082E+00
         -2   -1    0    0    0  501 -0.00000000000E+00  0.00000000000E+00  0.23455610122E+03  0.23455610122E+03  0.00000000000E+00 0. -1.
          2   -1    0    0  502    0  0.00000000000E+00 -0.00000000000E+00 -0.24112792080E+03  0.24112792080E+03  0.00000000000E+00 0.  1.
          6    2    1    2  502    0  0.84783505097E+01 -0.43251761342E+02 -0.15906840177E+03  0.24090382983E+03  0.17546880491E+03 0.  0.
         24    2    3    3    0    0 -0.15862535060E+02 -0.39744560221E+02 -0.18419814954E+03  0.20543027076E+03  0.80258256681E+02 0.  0.
         -6    2    1    2    0  501 -0.84783505097E+01  0.43251761342E+02  0.15249658219E+03  0.23478019220E+03  0.17298535713E+03 0.  0.
        -24    2    5    5    0    0 -0.12661173115E+02 -0.12823115311E+02  0.12884164256E+02  0.84195979749E+02  0.81229451102E+02 0.  0.
          5    1    3    3  502    0  0.24340885570E+02 -0.35072011207E+01  0.25129747767E+02  0.35473559066E+02  0.47000000000E+01 0. -1.
        -11    1    4    4    0    0  0.28256341591E+02 -0.19390048002E+02 -0.12072771411E+03  0.12549731374E+03  0.00000000000E+00 0.  1.
         12    1    4    4    0    0 -0.44118876651E+02 -0.20354512219E+02 -0.63470435430E+02  0.79932957022E+02  0.00000000000E+00 0. -1.
         -5    1    5    5    0  501  0.41828226052E+01  0.56074876653E+02  0.13961241794E+03  0.15058421245E+03  0.47000000000E+01 0.  1.
         11    1    6    6    0    0 -0.41887021618E+02 -0.89826020880E-01  0.26462049682E+02  0.49545642816E+02  0.00000000000E+00 0. -1.
        -12    1    6    6    0    0  0.29225848503E+02 -0.12733289290E+02 -0.13577885425E+02  0.34650336932E+02  0.00000000000E+00 0.  1.
<mgrwt>
<rscale>  2 0.17971176E+03</rscale>
<asrwt>0</asrwt>
<pdfrwt beam="2">  1        2 0.37096603E-01 0.17971176E+03</pdfrwt>
<pdfrwt beam="1">  1       -2 0.36085554E-01 0.17971176E+03</pdfrwt>
<totfact> 0.10003728E+03</totfact>
</mgrwt>
</event>
<event>
12    1  0.4154313E-002  0.1820390E+03  0.7546771E-02  0.1165844E+00
          2   -1    0    0  502    0  0.00000000000E+00  0.00000000000E+00  0.10692105271E+03  0.10692105271E+03  0.00000000000E+00 0.  1.
         -2   -1    0    0    0  501 -0.00000000000E+00 -0.00000000000E+00 -0.32195680337E+03  0.32195680337E+03  0.00000000000E+00 0. -1.
          6    2    1    2  502    0  0.45559632352E+02  0.29641381365E+02 -0.66336135150E+02  0.19417631805E+03  0.17421156125E+03 0.  0.
         24    2    3    3    0    0  0.26166778435E+02  0.58628238104E+02 -0.10074930479E+03  0.14495562229E+03  0.82095915978E+02 0.  0.
         -6    2    1    2    0  501 -0.45559632352E+02 -0.29641381365E+02 -0.14869961551E+03  0.23470153803E+03  0.17325976080E+03 0.  0.
        -24    2    5    5    0    0  0.24553445975E+02  0.82850879836E+01 -0.12797633600E+03  0.15220423417E+03  0.78209155046E+02 0.  0.
          5    1    3    3  502    0  0.19392853917E+02 -0.28986856738E+02  0.34413169638E+02  0.49220695761E+02  0.47000000000E+01 0. -1.
        -13    1    4    4    0    0  0.24614477146E+01 -0.19683936462E+02 -0.83136149203E+01  0.21508888222E+02  0.00000000000E+00 0.  1.
         14    1    4    4    0    0  0.23705330721E+02  0.78312174566E+02 -0.92435689868E+02  0.12344673406E+03  0.00000000000E+00 0. -1.
         -5    1    5    5    0  501 -0.70113078327E+02 -0.37926469349E+02 -0.20723279515E+02  0.82497303857E+02  0.47000000000E+01 0.  1.
         11    1    6    6    0    0  0.15620901984E+02  0.43227116449E+02 -0.64569063689E+02  0.79257555860E+02  0.00000000000E+00 0. -1.
        -12    1    6    6    0    0  0.89325439909E+01 -0.34942028465E+02 -0.63407272307E+02  0.72946678312E+02  0.00000000000E+00 0.  1.
<mgrwt>
<rscale>  2 0.18203897E+03</rscale>
<asrwt>0</asrwt>
<pdfrwt beam="1">  1        2 0.16449393E-01 0.18203897E+03</pdfrwt>
<pdfrwt beam="2">  1       -2 0.49531816E-01 0.18203897E+03</pdfrwt>
<totfact> 0.13485803E+03</totfact>
</mgrwt>
</event>
<event>
12    1  0.4154313E-002  0.2082644E+03  0.7546771E-02  0.1142948E+00
          2   -1    0    0  502    0  0.00000000000E+00  0.00000000000E+00  0.21321362567E+04  0.21321362567E+04  0.00000000000E+00 0. -1.
         -2   -1    0    0    0  501 -0.00000000000E+00 -0.00000000000E+00 -0.20343519409E+02  0.20343519409E+02  0.00000000000E+00 0.  1.
          6    2    1    2  502    0  0.27677988725E+02 -0.11358775803E+03  0.10540994545E+04  0.10743021553E+04  0.17126357184E+03 0.  0.
         24    2    3    3    0    0  0.27888875674E+02  0.70383857170E+00  0.54833998035E+03  0.55576830951E+03  0.86159126187E+02 0.  0.
         -6    2    1    2    0  501 -0.27677988725E+02  0.11358775803E+03  0.10576932827E+04  0.10781776207E+04  0.17344639445E+03 0.  0.
        -24    2    5    5    0    0 -0.13227576648E+02 -0.15323478372E+02  0.44703270231E+03  0.45387372380E+03  0.75850790704E+02 0.  0.
          5    1    3    3  502    0 -0.21088694932E+00 -0.11429159660E+03  0.50575947419E+03  0.51853384582E+03  0.47000000000E+01 0. -1.
        -13    1    4    4    0    0  0.13222160784E+01  0.13573193241E+02  0.10740809155E+02  0.17359286029E+02  0.00000000000E+00 0.  1.
         14    1    4    4    0    0  0.26566659595E+02 -0.12869354670E+02  0.53759917120E+03  0.53840902348E+03  0.00000000000E+00 0. -1.
         -5    1    5    5    0  501 -0.14450412077E+02  0.12891123640E+03  0.61066058039E+03  0.62430389693E+03  0.47000000000E+01 0.  1.
         13    1    6    6    0    0  0.26976840650E+02 -0.20172473070E+02  0.27919575936E+03  0.28122046627E+03  0.00000000000E+00 0. -1.
        -14    1    6    6    0    0 -0.40204417297E+02  0.48489946977E+01  0.16783694294E+03  0.17265325753E+03  0.00000000000E+00 0.  1.
<mgrwt>
<rscale>  2 0.20826437E+03</rscale>
<asrwt>0</asrwt>
<pdfrwt beam="1">  1        2 0.32802079E+00 0.20826437E+03</pdfrwt>
<pdfrwt beam="2">  1       -2 0.31297739E-02 0.20826437E+03</pdfrwt>
<totfact> 0.25220934E+03</totfact>
</mgrwt>
</event>
<event>
12    1  0.4154313E-002  0.2172391E+03  0.7546771E-02  0.1135958E+00
          1   -1    0    0  502    0  0.00000000000E+00  0.00000000000E+00  0.18432523752E+04  0.18432523752E+04  0.00000000000E+00 0.  1.
         -1   -1    0    0    0  501 -0.00000000000E+00 -0.00000000000E+00 -0.25785941543E+02  0.25785941543E+02  0.00000000000E+00 0. -1.
          6    2    1    2  502    0  0.11555310489E+03 -0.61571854918E+02  0.98946460348E+03  0.10131377539E+04  0.17396635707E+03 0.  0.
         24    2    3    3    0    0  0.34419572209E+01 -0.12926743589E+02  0.22817981369E+03  0.24209179061E+03  0.79771297681E+02 0.  0.
         -6    2    1    2    0  501 -0.11555310489E+03  0.61571854918E+02  0.82800183014E+03  0.85590056284E+03  0.17272848461E+03 0.  0.
        -24    2    5    5    0    0 -0.61235364120E+02  0.22612624134E+02  0.73007246344E+03  0.73723932449E+03  0.79088046585E+02 0.  0.
          5    1    3    3  502    0  0.11211114767E+03 -0.48645111329E+02  0.76128478979E+03  0.77104596325E+03  0.47000000000E+01 0. -1.
        -13    1    4    4    0    0 -0.38094689819E+02 -0.68541485527E+01  0.11799827989E+03  0.12418445475E+03  0.00000000000E+00 0.  1.
         14    1    4    4    0    0  0.41536647040E+02 -0.60725950362E+01  0.11018153380E+03  0.11790733586E+03  0.00000000000E+00 0. -1.
         -5    1    5    5    0  501 -0.54317740768E+02  0.38959230784E+02  0.97929366694E+02  0.11866123835E+03  0.47000000000E+01 0.  1.
         13    1    6    6    0    0  0.19829466977E+01 -0.11150123237E+02  0.16130678130E+02  0.19709289758E+02  0.00000000000E+00 0. -1.
        -14    1    6    6    0    0 -0.63218310817E+02  0.33762747371E+02  0.71394178531E+03  0.71753003474E+03  0.00000000000E+00 0.  1.
<mgrwt>
<rscale>  2 0.21723912E+03</rscale>
<asrwt>0</asrwt>
<pdfrwt beam="1">  1        1 0.28357719E+00 0.21723912E+03</pdfrwt>
<pdfrwt beam="2">  1       -1 0.39670694E-02 0.21723912E+03</pdfrwt>
<totfact> 0.10664161E+03</totfact>
</mgrwt>
</event>
<event>
12    1  0.4154313E-002  0.1996730E+03  0.7546771E-02  0.1150015E+00
         -1   -1    0    0    0  501 -0.00000000000E+00  0.00000000000E+00  0.11293845187E+03  0.11293845187E+03  0.00000000000E+00 0. -1.
          1   -1    0    0  502    0  0.00000000000E+00 -0.00000000000E+00 -0.38156056496E+03  0.38156056496E+03  0.00000000000E+00 0.  1.
          6    2    1    2  502    0  0.99681892026E+02  0.38542223303E+01 -0.66626200319E+02  0.21040268730E+03  0.17285515794E+03 0.  0.
         24    2    3    3    0    0  0.31827795599E+02  0.21367317306E+02  0.42702313146E+02  0.80457696036E+02  0.56394879926E+02 0.  0.
         -6    2    1    2    0  501 -0.99681892026E+02 -0.38542223303E+01 -0.20199591277E+03  0.28409632953E+03  0.17308102453E+03 0.  0.
        -24    2    5    5    0    0 -0.50455194654E+02  0.47120154598E+02 -0.55230537643E+02  0.12105087522E+03  0.82685346140E+02 0.  0.
          5    1    3    3  502    0  0.67854096428E+02 -0.17513094976E+02 -0.10932851347E+03  0.12994499126E+03  0.47000000000E+01 0. -1.
        -13    1    4    4    0    0  0.32233037857E+02  0.22548249907E+02  0.16344396521E+01  0.39370848305E+02  0.00000000000E+00 0.  1.
         14    1    4    4    0    0 -0.40524225777E+00 -0.11809326005E+01  0.41067873494E+02  0.41086847731E+02  0.00000000000E+00 0. -1.
         -5    1    5    5    0  501 -0.49226697373E+02 -0.50974376929E+02 -0.14676537512E+03  0.16304545431E+03  0.47000000000E+01 0.  1.
         11    1    6    6    0    0  0.21396529016E+02  0.10282653316E+02 -0.95161457173E+00  0.23758156146E+02  0.00000000000E+00 0. -1.
        -12    1    6    6    0    0 -0.71851723670E+02  0.36837501282E+02 -0.54278923071E+02  0.97292719074E+02  0.00000000000E+00 0.  1.
<mgrwt>
<rscale>  2 0.19967295E+03</rscale>
<asrwt>0</asrwt>
<pdfrwt beam="2">  1        1 0.58701625E-01 0.19967295E+03</pdfrwt>
<pdfrwt beam="1">  1       -1 0.17375147E-01 0.19967295E+03</pdfrwt>
<totfact> 0.16227024E+03</totfact>
</mgrwt>
</event>
<event>
12    1  0.4154313E-002  0.2267651E+03  0.7546771E-02  0.1128938E+00
          1   -1    0    0  502    0  0.00000000000E+00  0.00000000000E+00  0.89674921969E+03  0.89674921969E+03  0.00000000000E+00 0.  1.
         -1   -1    0    0    0  501 -0.00000000000E+00 -0.00000000000E+00 -0.57498246446E+02  0.57498246446E+02  0.00000000000E+00 0. -1.
          6    2    1    2  502    0 -0.14657599077E+03 -0.46684529198E+01  0.39483152614E+03  0.45531401424E+03  0.17295260046E+03 0.  0.
         24    2    3    3    0    0 -0.32446001051E+01  0.30883549069E+01  0.10409551895E+03  0.13104009994E+03  0.79470531403E+02 0.  0.
         -6    2    1    2    0  501  0.14657599077E+03  0.46684529198E+01  0.44441944711E+03  0.49893345190E+03  0.17297291388E+03 0.  0.
        -24    2    5    5    0    0  0.47042896728E+02 -0.43423572883E+02  0.13188660776E+03  0.16739379300E+03  0.80795815569E+02 0.  0.
          5    1    3    3  502    0 -0.14333139066E+03 -0.77568078267E+01  0.29073600719E+03  0.32427391430E+03  0.47000000000E+01 0. -1.
        -11    1    4    4    0    0 -0.11376252131E+02 -0.23928150133E+02  0.98854777535E+02  0.10234374687E+03  0.00000000000E+00 0.  1.
         12    1    4    4    0    0  0.81316520256E+01  0.27016505040E+02  0.52407414159E+01  0.28696353076E+02  0.00000000000E+00 0. -1.
         -5    1    5    5    0  501  0.99533094038E+02  0.48092025803E+02  0.31253283935E+03  0.33153965890E+03  0.47000000000E+01 0.  1.
         13    1    6    6    0    0  0.64150150717E+02 -0.34040806376E+02  0.12848419714E+03  0.14758796445E+03  0.00000000000E+00 0. -1.
        -14    1    6    6    0    0 -0.17107253989E+02 -0.93827665067E+01  0.34024106159E+01  0.19805828545E+02  0.00000000000E+00 0.  1.
<mgrwt>
<rscale>  2 0.22676514E+03</rscale>
<asrwt>0</asrwt>
<pdfrwt beam="1">  1        1 0.13796141E+00 0.22676514E+03</pdfrwt>
<pdfrwt beam="2">  1       -1 0.88458847E-02 0.22676514E+03</pdfrwt>
<totfact> 0.14165654E+03</totfact>
</mgrwt>
</event>
<event>
12    1  0.4154313E-002  0.2028023E+03  0.7546771E-02  0.1147396E+00
          1   -1    0    0  502    0  0.00000000000E+00  0.00000000000E+00  0.26226274643E+03  0.26226274643E+03  0.00000000000E+00 0. -1.
         -1   -1    0    0    0  501 -0.00000000000E+00 -0.00000000000E+00 -0.26165302659E+03  0.26165302659E+03  0.00000000000E+00 0.  1.
          6    2    1    2  502    0 -0.58154098096E+02  0.90993907190E+02  0.16611258091E+03  0.26286666726E+03  0.17275330662E+03 0.  0.
         24    2    3    3    0    0 -0.71496641954E+02  0.82192605814E+02  0.62263418768E+02  0.15768955539E+03  0.95508472410E+02 0.  0.
         -6    2    1    2    0  501  0.58154098096E+02 -0.90993907190E+02 -0.16550286107E+03  0.26104910576E+03  0.17056860298E+03 0.  0.
        -24    2    5    5    0    0  0.53330944446E+02 -0.10592189070E+03 -0.63272060935E+02  0.15751488919E+03  0.82121556592E+02 0.  0.
          5    1    3    3  502    0  0.13342543858E+02  0.88013013768E+01  0.10384916214E+03  0.10517711187E+03  0.47000000000E+01 0. -1.
        -11    1    4    4    0    0 -0.83377442490E+02  0.30558291789E+02  0.22964027783E+02  0.91722154823E+02  0.00000000000E+00 0.  1.
         12    1    4    4    0    0  0.11880800536E+02  0.51634314025E+02  0.39299390984E+02  0.65967400570E+02  0.00000000000E+00 0. -1.
         -5    1    5    5    0  501  0.48231536506E+01  0.14927983508E+02 -0.10223080014E+03  0.10353421657E+03  0.47000000000E+01 0.  1.
         11    1    6    6    0    0  0.10963346031E+02 -0.42460682324E+02  0.16750932593E+02  0.46943564440E+02  0.00000000000E+00 0. -1.
        -12    1    6    6    0    0  0.42367598415E+02 -0.63461208375E+02 -0.80022993529E+02  0.11057132475E+03  0.00000000000E+00 0.  1.
<mgrwt>
<rscale>  2 0.20280226E+03</rscale>
<asrwt>0</asrwt>
<pdfrwt beam="1">  1        1 0.40348115E-01 0.20280226E+03</pdfrwt>
<pdfrwt beam="2">  1       -1 0.40254312E-01 0.20280226E+03</pdfrwt>
<totfact> 0.63660441E+02</totfact>
</mgrwt>
</event>
<event>
12    1  0.4154313E-002  0.2165541E+03  0.7546771E-02  0.1136478E+00
          1   -1    0    0  502    0  0.00000000000E+00  0.00000000000E+00  0.24031935773E+03  0.24031935773E+03  0.00000000000E+00 0. -1.
         -1   -1    0    0    0  501 -0.00000000000E+00 -0.00000000000E+00 -0.19681208955E+03  0.19681208955E+03  0.00000000000E+00 0.  1.
          6    2    1    2  502    0  0.73542302024E+02  0.10624823245E+03  0.15166195937E+01  0.21529758488E+03  0.17220218592E+03 0.  0.
         24    2    3    3    0    0  0.56647002586E+02  0.29430366896E+02 -0.57563166780E+02  0.11681435398E+03  0.79101490047E+02 0.  0.
         -6    2    1    2    0  501 -0.73542302024E+02 -0.10624823245E+03  0.41990648584E+02  0.22183386240E+03  0.17535646796E+03 0.  0.
        -24    2    5    5    0    0 -0.60028272316E+02 -0.12055380168E+02  0.69372992985E+02  0.12270361876E+03  0.80590571620E+02 0.  0.
          5    1    3    3  502    0  0.16895299438E+02  0.76817865549E+02  0.59079786374E+02  0.98483230901E+02  0.47000000000E+01 0. -1.
        -13    1    4    4    0    0 -0.36701358545E+01  0.57486429972E+00 -0.49302190145E+02  0.49441948983E+02  0.00000000000E+00 0.  1.
         14    1    4    4    0    0  0.60317138440E+02  0.28855502596E+02 -0.82609766354E+01  0.67372404994E+02  0.00000000000E+00 0. -1.
         -5    1    5    5    0  501 -0.13514029708E+02 -0.94192852277E+02 -0.27382344401E+02  0.99130243639E+02  0.47000000000E+01 0.  1.
         13    1    6    6    0    0 -0.35933611119E+02  0.33778096793E+02  0.36733309381E+02  0.61494066779E+02  0.00000000000E+00 0. -1.
        -14    1    6    6    0    0 -0.24094661197E+02 -0.45833476961E+02  0.32639683604E+02  0.61209551986E+02  0.00000000000E+00 0.  1.
<mgrwt>
<rscale>  2 0.21655414E+03</rscale>
<asrwt>0</asrwt>
<pdfrwt beam="1">  1        1 0.36972209E-01 0.21655414E+03</pdfrwt>
<pdfrwt beam="2">  1       -1 0.30278783E-01 0.21655414E+03</pdfrwt>
<totfact> 0.11645052E+03</totfact>
</mgrwt>
</event>
<event>
12    1  0.4154313E-002  0.2799008E+03  0.7546771E-02  0.1095743E+00
         -1   -1    0    0    0  501 -0.00000000000E+00  0.00000000000E+00  0.18951932856E+03  0.18951932856E+03  0.00000000000E+00 0.  1.
          1   -1    0    0  502    0  0.00000000000E+00 -0.00000000000E+00 -0.44099425888E+03  0.44099425888E+03  0.00000000000E+00 0. -1.
          6    2    1    2  502    0 -0.18537596771E+03  0.11782528742E+03 -0.20458926155E+03  0.34664351775E+03  0.17337218546E+03 0.  0.
         24    2    3    3    0    0 -0.15882395552E+03  0.19058178543E+02 -0.15005167220E+03  0.23064183758E+03  0.71357479622E+02 0.  0.
         -6    2    1    2    0  501  0.18537596771E+03 -0.11782528742E+03 -0.46885668770E+02  0.28387006970E+03  0.17359983518E+03 0.  0.
        -24    2    5    5    0    0  0.15450429692E+03 -0.18021986805E+02 -0.17931550341E+02  0.17536113068E+03  0.78953251245E+02 0.  0.
          5    1    3    3  502    0 -0.26552012187E+02  0.98767108881E+02 -0.54537589356E+02  0.11600168016E+03  0.47000000000E+01 0. -1.
        -13    1    4    4    0    0 -0.73397699905E+02 -0.88709853644E+01 -0.27971883185E+02  0.79046460905E+02  0.00000000000E+00 0.  1.
         14    1    4    4    0    0 -0.85426255618E+02  0.27929163908E+02 -0.12207978901E+03  0.15159537668E+03  0.00000000000E+00 0. -1.
         -5    1    5    5    0  501  0.30871670790E+02 -0.99803300619E+02 -0.28954118429E+02  0.10850893901E+03  0.47000000000E+01 0.  1.
         11    1    6    6    0    0  0.74743961496E+01 -0.25601588662E+02 -0.78011390197E+01  0.27787869833E+02  0.00000000000E+00 0. -1.
        -12    1    6    6    0    0  0.14702990077E+03  0.75796018575E+01 -0.10130411322E+02  0.14757326085E+03  0.00000000000E+00 0.  1.
<mgrwt>
<rscale>  2 0.27990078E+03</rscale>
<asrwt>0</asrwt>
<pdfrwt beam="2">  1        1 0.67845270E-01 0.27990078E+03</pdfrwt>
<pdfrwt beam="1">  1       -1 0.29156820E-01 0.27990078E+03</pdfrwt>
<totfact> 0.57487883E+02</totfact>
</mgrwt>
</event>
<event>
12    1  0.4154313E-002  0.1864806E+03  0.7546771E-02  0.1161674E+00
          2   -1    0    0  502    0  0.00000000000E+00  0.00000000000E+00  0.69506931325E+03  0.69506931325E+03  0.00000000000E+00 0.  1.
         -2   -1    0    0    0  501 -0.00000000000E+00 -0.00000000000E+00 -0.51163576463E+02  0.51163576463E+02  0.00000000000E+00 0. -1.
          6    2    1    2  502    0 -0.59076671531E+02 -0.45125812261E+02  0.37474119250E+03  0.41788541952E+03  0.16932474845E+03 0.  0.
         24    2    3    3    0    0 -0.82566453095E+02 -0.80424638833E+02  0.26182073257E+03  0.29717544782E+03  0.80484837566E+02 0.  0.
         -6    2    1    2    0  501  0.59076671531E+02  0.45125812261E+02  0.26916454429E+03  0.32834747020E+03  0.17273134409E+03 0.  0.
        -24    2    5    5    0    0  0.10082501179E+03  0.41314707022E+02  0.13758308899E+03  0.19016925984E+03  0.73230137196E+02 0.  0.
          5    1    3    3  502    0  0.23489781564E+02  0.35298826572E+02  0.11292045993E+03  0.12070997169E+03  0.47000000000E+01 0. -1.
        -13    1    4    4    0    0 -0.39850623065E+02  0.89323512631E+01  0.63500370078E+02  0.75499377864E+02  0.00000000000E+00 0.  1.
         14    1    4    4    0    0 -0.42715830029E+02 -0.89356990096E+02  0.19832036249E+03  0.22167606996E+03  0.00000000000E+00 0. -1.
         -5    1    5    5    0  501 -0.41748340263E+02  0.38111052388E+01  0.13158145530E+03  0.13817821035E+03  0.47000000000E+01 0.  1.
         13    1    6    6    0    0  0.86316909340E+01  0.37619134729E+02  0.33830842334E+02  0.51324762826E+02  0.00000000000E+00 0. -1.
        -14    1    6    6    0    0  0.92193320860E+02  0.36955722932E+01  0.10375224665E+03  0.13884449702E+03  0.00000000000E+00 0.  1.
<mgrwt>
<rscale>  2 0.18648058E+03</rscale>
<asrwt>0</asrwt>
<pdfrwt beam="1">  1        2 0.10693373E+00 0.18648058E+03</pdfrwt>
<pdfrwt beam="2">  1       -2 0.78713199E-02 0.18648058E+03</pdfrwt>
<totfact> 0.40413937E+03</totfact>
</mgrwt>
</event>
<event>
12    1  0.4154313E-002  0.2702922E+03  0.7546771E-02  0.1101112E+00
          1   -1    0    0  502    0  0.00000000000E+00  0.00000000000E+00  0.48309631942E+03  0.48309631942E+03  0.00000000000E+00 0.  1.
         -1   -1    0    0    0  501 -0.00000000000E+00 -0.00000000000E+00 -0.15784850293E+03  0.15784850293E+03  0.00000000000E+00 0. -1.
          6    2    1    2  502    0  0.20689772102E+03  0.13231911722E+02  0.22811958896E+03  0.35351254249E+03  0.17306305318E+03 0.  0.
         24    2    3    3    0    0  0.21355876087E+03  0.45410437425E+02  0.21775984567E+03  0.31873839621E+03  0.80655828454E+02 0.  0.
         -6    2    1    2    0  501 -0.20689772102E+03 -0.13231911722E+02  0.97128227528E+02  0.28743227987E+03  0.17378628391E+03 0.  0.
        -24    2    5    5    0    0 -0.22705083552E+03 -0.10880008332E+02  0.67517016910E+02  0.25123016297E+03  0.82991509956E+02 0.  0.
          5    1    3    3  502    0 -0.66610398462E+01 -0.32178525703E+02  0.10359743296E+02  0.34774146279E+02  0.47000000000E+01 0. -1.
        -11    1    4    4    0    0  0.33661711205E+02 -0.21376416693E+02  0.49158789588E+02  0.63298093065E+02  0.00000000000E+00 0.  1.
         12    1    4    4    0    0  0.17989704966E+03  0.66786854119E+02  0.16860105608E+03  0.25544030315E+03  0.00000000000E+00 0. -1.
         -5    1    5    5    0  501  0.20153114494E+02 -0.23519033903E+01  0.29611210618E+02  0.36202116894E+02  0.47000000000E+01 0.  1.
         13    1    6    6    0    0 -0.94316478610E+01 -0.17701531614E+02 -0.67864337364E+01  0.21174415829E+02  0.00000000000E+00 0. -1.
        -14    1    6    6    0    0 -0.21761918765E+03  0.68215232821E+01  0.74303450646E+02  0.23005574714E+03  0.00000000000E+00 0.  1.
<mgrwt>
<rscale>  2 0.27029223E+03</rscale>
<asrwt>0</asrwt>
<pdfrwt beam="1">  1        1 0.74322510E-01 0.27029223E+03</pdfrwt>
<pdfrwt beam="2">  1       -1 0.24284385E-01 0.27029223E+03</pdfrwt>
<totfact> 0.69376564E+02</totfact>
</mgrwt>
</event>
<event>
12    1  0.4154313E-002  0.2968080E+03  0.7546771E-02  0.1086847E+00
          1   -1    0    0  502    0  0.00000000000E+00  0.00000000000E+00  0.22373475686E+03  0.22373475686E+03  0.00000000000E+00 0.  1.
         -1   -1    0    0    0  501 -0.00000000000E+00 -0.00000000000E+00 -0.39541635660E+03  0.39541635660E+03  0.00000000000E+00 0. -1.
          6    2    1    2  502    0  0.22197778983E+03  0.91611292940E+02 -0.66035014202E+02  0.30501575965E+03  0.17608867755E+03 0.  0.
         24    2    3    3    0    0  0.64271500507E+02  0.74255465537E+02 -0.72034921155E+02  0.14617436920E+03  0.80828314384E+02 0.  0.
         -6    2    1    2    0  501 -0.22197778983E+03 -0.91611292940E+02 -0.10564658554E+03  0.31413535382E+03  0.17278035568E+03 0.  0.
        -24    2    5    5    0    0 -0.20591931468E+03 -0.30909818949E+02 -0.11424635217E+03  0.25058545567E+03  0.79891554884E+02 0.  0.
          5    1    3    3  502    0  0.15770628932E+03  0.17355827403E+02  0.59999069528E+01  0.15884139045E+03  0.47000000000E+01 0. -1.
        -13    1    4    4    0    0  0.47922239801E+02  0.67206130858E+02 -0.11822117582E+02  0.83384456325E+02  0.00000000000E+00 0.  1.
         14    1    4    4    0    0  0.16349260706E+02  0.70493346788E+01 -0.60212803572E+02  0.62789912877E+02  0.00000000000E+00 0. -1.
         -5    1    5    5    0  501 -0.16058475148E+02 -0.60701473991E+02  0.85997666308E+01  0.63549898150E+02  0.47000000000E+01 0.  1.
         11    1    6    6    0    0 -0.14127404261E+03 -0.42412402081E+02 -0.11143506068E+03  0.18486465242E+03  0.00000000000E+00 0. -1.
        -12    1    6    6    0    0 -0.64645272066E+02  0.11502583132E+02 -0.28112914918E+01  0.65720803245E+02  0.00000000000E+00 0.  1.
<mgrwt>
<rscale>  2 0.29680804E+03</rscale>
<asrwt>0</asrwt>
<pdfrwt beam="1">  1        1 0.34420732E-01 0.29680804E+03</pdfrwt>
<pdfrwt beam="2">  1       -1 0.60833286E-01 0.29680804E+03</pdfrwt>
<totfact> 0.36124693E+02</totfact>
</mgrwt>
</event>
<event>
12    1  0.4154313E-002  0.1878882E+03  0.7546771E-02  0.1160380E+00
         -2   -1    0    0    0  501 -0.00000000000E+00  0.00000000000E+00  0.41392541335E+03  0.41392541335E+03  0.00000000000E+00 0.  1.
          2   -1    0    0  502    0  0.00000000000E+00 -0.00000000000E+00 -0.95630220122E+02  0.95630220122E+02  0.00000000000E+00 0. -1.
          6    2    1    2  502    0  0.70790667811E+02  0.24345934709E+02  0.24262227103E+03  0.30660981882E+03  0.17187196226E+03 0.  0.
         24    2    3    3    0    0 -0.22531596895E+01  0.22595573136E+02  0.21120478582E+03  0.22693791111E+03  0.79860611622E+02 0.  0.
         -6    2    1    2    0  501 -0.70790667811E+02 -0.24345934709E+02  0.75672922197E+02  0.20294581465E+03  0.17279053604E+03 0.  0.
        -24    2    5    5    0    0 -0.79131679169E+02  0.26197439559E+02  0.65698587594E+01  0.11679752083E+03  0.81549796685E+02 0.  0.
          5    1    3    3  502    0  0.73043827501E+02  0.17503615724E+01  0.31417485204E+02  0.79671907710E+02  0.47000000000E+01 0. -1.
        -11    1    4    4    0    0 -0.36652445025E+02  0.22113141441E+02  0.74031903128E+02  0.85516755267E+02  0.00000000000E+00 0.  1.
         12    1    4    4    0    0  0.34399285335E+02  0.48243169513E+00  0.13717288269E+03  0.14142115584E+03  0.00000000000E+00 0. -1.
         -5    1    5    5    0  501  0.83410113578E+01 -0.50543374267E+02  0.69103063438E+02  0.86148293827E+02  0.47000000000E+01 0.  1.
         13    1    6    6    0    0 -0.31100113011E+02 -0.18763825845E+02 -0.24728242768E+02  0.43940689344E+02  0.00000000000E+00 0. -1.
        -14    1    6    6    0    0 -0.48031566158E+02  0.44961265404E+02  0.31298101528E+02  0.72856831482E+02  0.00000000000E+00 0.  1.
<mgrwt>
<rscale>  2 0.18788815E+03</rscale>
<asrwt>0</asrwt>
<pdfrwt beam="2">  1        2 0.14712342E-01 0.18788815E+03</pdfrwt>
<pdfrwt beam="1">  1       -2 0.63680832E-01 0.18788815E+03</pdfrwt>
<totfact> 0.92245076E+02</totfact>
</mgrwt>
</event>
<event>
12    1  0.4154313E-002  0.2215168E+03  0.7546771E-02  0.1132757E+00
         -4   -1    0    0    0  501 -0.00000000000E+00  0.00000000000E+00  0.45646230328E+03  0.45646230328E+03  0.00000000000E+00 0. -1.
          4   -1    0    0  502    0  0.00000000000E+00 -0.00000000000E+00 -0.11967501460E+03  0.11967501460E+03  0.00000000000E+00 0.  1.
          6    2    1    2  502    0 -0.73068420247E+02 -0.11132617913E+03  0.26101310974E+03  0.34305361785E+03  0.17839683033E+03 0.  0.
         24    2    3    3    0    0 -0.73494374185E+02 -0.48671397124E+02  0.62217933722E+02  0.13456521253E+03  0.80413911812E+02 0.  0.
         -6    2    1    2    0  501  0.73068420247E+02  0.11132617913E+03  0.75774178945E+02  0.23308370002E+03  0.17565242049E+03 0.  0.
        -24    2    5    5    0    0  0.88577247297E+02  0.13462509709E+03  0.36909325685E+02  0.18495958846E+03  0.82933138934E+02 0.  0.
          5    1    3    3  502    0  0.42595393838E+00 -0.62654782003E+02  0.19879517602E+03  0.20848840532E+03  0.47000000000E+01 0. -1.
        -13    1    4    4    0    0 -0.41149815922E+02  0.13732769738E+02  0.44355294343E+02  0.62042634142E+02  0.00000000000E+00 0.  1.
         14    1    4    4    0    0 -0.32344558263E+02 -0.62404166863E+02  0.17862639379E+02  0.72522578392E+02  0.00000000000E+00 0. -1.
         -5    1    5    5    0  501 -0.15508827050E+02 -0.23298917967E+02  0.38864853261E+02  0.48124111565E+02  0.47000000000E+01 0.  1.
         13    1    6    6    0    0 -0.10377258881E+02  0.59851714866E+01  0.17920439257E+02  0.21555786295E+02  0.00000000000E+00 0. -1.
        -14    1    6    6    0    0  0.98954506178E+02  0.12863992561E+03  0.18988886427E+02  0.16340380216E+03  0.00000000000E+00 0.  1.
<mgrwt>
<rscale>  2 0.22151683E+03</rscale>
<asrwt>0</asrwt>
<pdfrwt beam="2">  1        4 0.18411541E-01 0.22151683E+03</pdfrwt>
<pdfrwt beam="1">  1       -4 0.70224969E-01 0.22151683E+03</pdfrwt>
<totfact> 0.89281271E+01</totfact>
</mgrwt>
</event>
<event>
12    1  0.4154313E-002  0.1815729E+03  0.7546771E-02  0.1166289E+00
          1   -1    0    0  502    0  0.00000000000E+00  0.00000000000E+00  0.39166343739E+03  0.39166343739E+03  0.00000000000E+00 0.  1.
         -1   -1    0    0    0  501 -0.00000000000E+00 -0.00000000000E+00 -0.84264594757E+02  0.84264594757E+02  0.00000000000E+00 0. -1.
          6    2    1    2  502    0 -0.18839704538E+02 -0.53434987822E+02  0.14559509488E+03  0.23234776933E+03  0.17198058573E+03 0.  0.
         24    2    3    3    0    0  0.49350517630E+02 -0.32302514007E+02  0.11990407119E+03  0.15633062293E+03  0.81137854152E+02 0.  0.
         -6    2    1    2    0  501  0.18839704538E+02  0.53434987822E+02  0.16180374776E+03  0.24358026282E+03  0.17303369399E+03 0.  0.
        -24    2    5    5    0    0 -0.28070680943E+01  0.90502840258E+02  0.15965337165E+03  0.20034459968E+03  0.80312613052E+02 0.  0.
          5    1    3    3  502    0 -0.68190222167E+02 -0.21132473814E+02  0.25691023692E+02  0.76017146402E+02  0.47000000000E+01 0. -1.
        -13    1    4    4    0    0  0.26048466912E+01 -0.47675088047E+02  0.39059304484E+02  0.61687344840E+02  0.00000000000E+00 0.  1.
         14    1    4    4    0    0  0.46745670938E+02  0.15372574040E+02  0.80844766702E+02  0.94643278088E+02  0.00000000000E+00 0. -1.
         -5    1    5    5    0  501  0.21646772632E+02 -0.37067852437E+02  0.21503761063E+01  0.43235663139E+02  0.47000000000E+01 0.  1.
         11    1    6    6    0    0 -0.30760878203E+02  0.82476039504E+02  0.95347558596E+02  0.12976781438E+03  0.00000000000E+00 0. -1.
        -12    1    6    6    0    0  0.27953810108E+02  0.80268007544E+01  0.64305813053E+02  0.70576785293E+02  0.00000000000E+00 0.  1.
<mgrwt>
<rscale>  2 0.18157291E+03</rscale>
<asrwt>0</asrwt>
<pdfrwt beam="1">  1        1 0.60255912E-01 0.18157291E+03</pdfrwt>
<pdfrwt beam="2">  1       -1 0.12963784E-01 0.18157291E+03</pdfrwt>
<totfact> 0.24876699E+03</totfact>
</mgrwt>
</event>
<event>
12    1  0.4154313E-002  0.2373301E+03  0.7546771E-02  0.1121584E+00
         -1   -1    0    0    0  501 -0.00000000000E+00  0.00000000000E+00  0.27296009524E+02  0.27296009524E+02  0.00000000000E+00 0. -1.
          1   -1    0    0  502    0  0.00000000000E+00 -0.00000000000E+00 -0.20858204267E+04  0.20858204267E+04  0.00000000000E+00 0.  1.
          6    2    1    2  502    0 -0.86964742159E+00 -0.16198372689E+03 -0.11389915708E+04  0.11634765965E+04  0.17359869838E+03 0.  0.
         24    2    3    3    0    0  0.60665322322E+01 -0.11301904308E+03 -0.40395386930E+03  0.42676215824E+03  0.78339672386E+02 0.  0.
         -6    2    1    2    0  501  0.86964742159E+00  0.16198372689E+03 -0.91953284634E+03  0.94963983973E+03  0.17330806574E+03 0.  0.
        -24    2    5    5    0    0  0.33607380944E+02  0.42610420352E+02 -0.25730365008E+03  0.27592525336E+03  0.83573160304E+02 0.  0.
          5    1    3    3  502    0 -0.69361796538E+01 -0.48964683811E+02 -0.73503770152E+03  0.73671443824E+03  0.47000000000E+01 0. -1.
        -13    1    4    4    0    0 -0.31790235902E+02 -0.58227572779E+02 -0.25695780360E+03  0.26538346249E+03  0.00000000000E+00 0.  1.
         14    1    4    4    0    0  0.37856768134E+02 -0.54791470298E+02 -0.14699606570E+03  0.16137869575E+03  0.00000000000E+00 0. -1.
         -5    1    5    5    0  501 -0.32737733522E+02  0.11937330654E+03 -0.66222919626E+03  0.67371458637E+03  0.47000000000E+01 0.  1.
         11    1    6    6    0    0  0.18314962343E+02  0.49085686763E+02 -0.67742836894E+02  0.85638393499E+02  0.00000000000E+00 0. -1.
        -12    1    6    6    0    0  0.15292418601E+02 -0.64752664112E+01 -0.18956081319E+03  0.19028685986E+03  0.00000000000E+00 0.  1.
<mgrwt>
<rscale>  2 0.23733006E+03</rscale>
<asrwt>0</asrwt>
<pdfrwt beam="2">  1        1 0.32089554E+00 0.23733006E+03</pdfrwt>
<pdfrwt beam="1">  1       -1 0.41993850E-02 0.23733006E+03</pdfrwt>
<totfact> 0.68125729E+02</totfact>
</mgrwt>
</event>
<event>
12    1  0.4154313E-002  0.2092847E+03  0.7546771E-02  0.1142134E+00
          2   -1    0    0  502    0  0.00000000000E+00  0.00000000000E+00  0.20697888032E+04  0.20697888032E+04  0.00000000000E+00 0. -1.
         -2   -1    0    0    0  501 -0.00000000000E+00 -0.00000000000E+00 -0.25229080256E+02  0.25229080256E+02  0.00000000000E+00 0.  1.
          6    2    1    2  502    0 -0.27444714016E+02  0.11434116043E+03  0.14444685188E+04  0.14596069512E+04  0.17359734043E+03 0.  0.
         24    2    3    3    0    0 -0.36640526266E+02 -0.45885678323E+01  0.72481497007E+03  0.73011934776E+03  0.79711592746E+02 0.  0.
         -6    2    1    2    0  501  0.27444714016E+02 -0.11434116043E+03  0.60009120413E+03  0.63541093234E+03  0.17265713529E+03 0.  0.
        -24    2    5    5    0    0  0.67524383814E+02 -0.21435271760E+02  0.34197709395E+03  0.35813333145E+03  0.79322991777E+02 0.  0.
          5    1    3    3  502    0  0.91958122494E+01  0.11892972826E+03  0.71965354878E+03  0.72948760339E+03  0.47000000000E+01 0. -1.
        -13    1    4    4    0    0  0.11951109353E+02 -0.17265414732E+02  0.63111579883E+02  0.66513119577E+02  0.00000000000E+00 0.  1.
         14    1    4    4    0    0 -0.48591635618E+02  0.12676846899E+02  0.66170339019E+03  0.66360622819E+03  0.00000000000E+00 0. -1.
         -5    1    5    5    0  501 -0.40079669798E+02 -0.92905888672E+02  0.25811411018E+03  0.27727760089E+03  0.47000000000E+01 0.  1.
         13    1    6    6    0    0  0.38746629730E+02  0.12408517087E+02  0.27349064609E+03  0.27650028230E+03  0.00000000000E+00 0. -1.
        -14    1    6    6    0    0  0.28777754084E+02 -0.33843788847E+02  0.68486447864E+02  0.81633049157E+02  0.00000000000E+00 0.  1.
<mgrwt>
<rscale>  2 0.20928467E+03</rscale>
<asrwt>0</asrwt>
<pdfrwt beam="1">  1        2 0.31842891E+00 0.20928467E+03</pdfrwt>
<pdfrwt beam="2">  1       -2 0.38813986E-02 0.20928467E+03</pdfrwt>
<totfact> 0.19713751E+03</totfact>
</mgrwt>
</event>
<event>
12    1  0.4154313E-002  0.1818648E+03  0.7546771E-02  0.1166010E+00
         -4   -1    0    0    0  501 -0.00000000000E+00  0.00000000000E+00  0.63221309464E+02  0.63221309464E+02  0.00000000000E+00 0. -1.
          4   -1    0    0  502    0  0.00000000000E+00 -0.00000000000E+00 -0.52466274992E+03  0.52466274992E+03  0.00000000000E+00 0.  1.
          6    2    1    2  502    0 -0.45959965422E+02 -0.35180031304E+02 -0.21569161906E+03  0.28247919513E+03  0.17297880830E+03 0.  0.
         24    2    3    3    0    0 -0.26354210860E+02 -0.63925798281E+02 -0.22229868266E+03  0.24675178240E+03  0.81784385353E+02 0.  0.
         -6    2    1    2    0  501  0.45959965422E+02  0.35180031304E+02 -0.24574982139E+03  0.30540486426E+03  0.17184063365E+03 0.  0.
        -24    2    5    5    0    0 -0.35081054130E+02 -0.15190068907E+02 -0.13100871683E+03  0.15609845139E+03  0.75776144599E+02 0.  0.
          5    1    3    3  502    0 -0.19605754562E+02  0.28745766977E+02  0.66070635974E+01  0.35727412730E+02  0.47000000000E+01 0. -1.
        -11    1    4    4    0    0 -0.12409773958E+02 -0.42787682422E+02 -0.21614901211E+03  0.22069250937E+03  0.00000000000E+00 0.  1.
         12    1    4    4    0    0 -0.13944436901E+02 -0.21138115859E+02 -0.61496705463E+01  0.26059273021E+02  0.00000000000E+00 0. -1.
         -5    1    5    5    0  501  0.81041019552E+02  0.50370100211E+02 -0.11474110456E+03  0.14930641286E+03  0.47000000000E+01 0.  1.
         11    1    6    6    0    0 -0.12733967578E+02  0.29132858889E+01 -0.12627842139E+03  0.12695227794E+03  0.00000000000E+00 0. -1.
        -12    1    6    6    0    0 -0.22347086552E+02 -0.18103354796E+02 -0.47302954401E+01  0.29146173457E+02  0.00000000000E+00 0.  1.
<mgrwt>
<rscale>  2 0.18186480E+03</rscale>
<asrwt>0</asrwt>
<pdfrwt beam="2">  1        4 0.80717344E-01 0.18186480E+03</pdfrwt>
<pdfrwt beam="1">  1       -4 0.97263556E-02 0.18186480E+03</pdfrwt>
<totfact> 0.19425580E+02</totfact>
</mgrwt>
</event>
<event>
12    1  0.4154313E-002  0.1915153E+03  0.7546771E-02  0.1157102E+00
         -2   -1    0    0    0  501 -0.00000000000E+00  0.00000000000E+00  0.48802061282E+02  0.48802061282E+02  0.00000000000E+00 0.  1.
          2   -1    0    0  502    0  0.00000000000E+00 -0.00000000000E+00 -0.81753019576E+03  0.81753019576E+03  0.00000000000E+00 0. -1.
          6    2    1    2  502    0  0.38221643507E+02  0.71124008642E+02 -0.26303597506E+03  0.32591338571E+03  0.17467710833E+03 0.  0.
         24    2    3    3    0    0  0.68195690533E+02  0.44503752563E+02 -0.89931805795E+02  0.14816574172E+03  0.85053636763E+02 0.  0.
         -6    2    1    2    0  501 -0.38221643507E+02 -0.71124008642E+02 -0.50569215942E+03  0.54041887133E+03  0.17265131842E+03 0.  0.
        -24    2    5    5    0    0  0.36758787737E+02  0.20962741678E+01 -0.21306711975E+03  0.22955752165E+03  0.77093808993E+02 0.  0.
          5    1    3    3  502    0 -0.29974047026E+02  0.26620256080E+02 -0.17310416926E+03  0.17774764399E+03  0.47000000000E+01 0. -1.
        -11    1    4    4    0    0  0.10383763267E+02  0.11099778051E+02  0.16557124826E+02  0.22475898088E+02  0.00000000000E+00 0.  1.
         12    1    4    4    0    0  0.57811927266E+02  0.33403974512E+02 -0.10648893062E+03  0.12568984363E+03  0.00000000000E+00 0. -1.
         -5    1    5    5    0  501 -0.74980431243E+02 -0.73220282810E+02 -0.29262503967E+03  0.31086134968E+03  0.47000000000E+01 0.  1.
         11    1    6    6    0    0  0.32009999251E+02  0.37421118683E+02 -0.11057352517E+03  0.12104331722E+03  0.00000000000E+00 0. -1.
        -12    1    6    6    0    0  0.47487884863E+01 -0.35324844516E+02 -0.10249359458E+03  0.10851420443E+03  0.00000000000E+00 0.  1.
<mgrwt>
<rscale>  2 0.19151532E+03</rscale>
<asrwt>0</asrwt>
<pdfrwt beam="2">  1        2 0.12577387E+00 0.19151532E+03</pdfrwt>
<pdfrwt beam="1">  1       -2 0.75080098E-02 0.19151532E+03</pdfrwt>
<totfact> 0.35626515E+03</totfact>
</mgrwt>
</event>
<event>
12    1  0.4154313E-002  0.1787009E+03  0.7546771E-02  0.1169066E+00
          1   -1    0    0  502    0  0.00000000000E+00  0.00000000000E+00  0.39164701941E+03  0.39164701941E+03  0.00000000000E+00 0. -1.
         -1   -1    0    0    0  501 -0.00000000000E+00 -0.00000000000E+00 -0.23425140394E+03  0.23425140394E+03  0.00000000000E+00 0.  1.
          6    2    1    2  502    0  0.11148297490E+02 -0.43202530502E+02  0.33136267716E+03  0.37642927937E+03  0.17293650677E+03 0.  0.
         24    2    3    3    0    0 -0.49462283668E+02 -0.60189590619E+01  0.11500922813E+03  0.14864173484E+03  0.79903050063E+02 0.  0.
         -6    2    1    2    0  501 -0.11148297490E+02  0.43202530502E+02 -0.17396706170E+03  0.24946914398E+03  0.17314610034E+03 0.  0.
        -24    2    5    5    0    0  0.53572100920E+02  0.55037622551E+02 -0.12301869715E+03  0.16612272699E+03  0.81018829190E+02 0.  0.
          5    1    3    3  502    0  0.60610581159E+02 -0.37183571440E+02  0.21635344904E+03  0.22778754453E+03  0.47000000000E+01 0. -1.
        -13    1    4    4    0    0 -0.70670999072E-01 -0.35185184141E+02  0.57538579805E+02  0.67443979297E+02  0.00000000000E+00 0.  1.
         14    1    4    4    0    0 -0.49391612669E+02  0.29166225079E+02  0.57470648320E+02  0.81197755546E+02  0.00000000000E+00 0. -1.
         -5    1    5    5    0  501 -0.64720398410E+02 -0.11835092049E+02 -0.50948364550E+02  0.83346416986E+02  0.47000000000E+01 0.  1.
         11    1    6    6    0    0  0.36142397375E+02  0.45384434819E+02 -0.20264427289E+02  0.61454591571E+02  0.00000000000E+00 0. -1.
        -12    1    6    6    0    0  0.17429703545E+02  0.96531877322E+01 -0.10275426986E+03  0.10466813542E+03  0.00000000000E+00 0.  1.
<mgrwt>
<rscale>  2 0.17870094E+03</rscale>
<asrwt>0</asrwt>
<pdfrwt beam="1">  1        1 0.60253387E-01 0.17870094E+03</pdfrwt>
<pdfrwt beam="2">  1       -1 0.36038678E-01 0.17870094E+03</pdfrwt>
<totfact> 0.46718479E+02</totfact>
</mgrwt>
</event>
<event>
12    1  0.4154313E-002  0.2225222E+03  0.7546771E-02  0.1132017E+00
          1   -1    0    0  502    0  0.00000000000E+00  0.00000000000E+00  0.49795771386E+03  0.49795771386E+03  0.00000000000E+00 0.  1.
         -1   -1    0    0    0  501 -0.00000000000E+00 -0.00000000000E+00 -0.11954688153E+03  0.11954688153E+03  0.00000000000E+00 0. -1.
          6    2    1    2  502    0 -0.13512685156E+03 -0.30485944588E+02  0.31628053119E+03  0.38708322982E+03  0.17496112016E+03 0.  0.
         24    2    3    3    0    0 -0.54200084077E+01  0.10543700265E+02  0.16033740723E+03  0.18008650321E+03  0.81132720731E+02 0.  0.
         -6    2    1    2    0  501  0.13512685156E+03  0.30485944588E+02  0.62130301133E+02  0.23042136557E+03  0.17333543366E+03 0.  0.
        -24    2    5    5    0    0  0.14019761385E+03  0.36692211226E+02  0.99456555389E+02  0.19195619129E+03  0.77161413088E+02 0.  0.
          5    1    3    3  502    0 -0.12970684315E+03 -0.41029644853E+02  0.15594312396E+03  0.20699672661E+03  0.47000000000E+01 0. -1.
        -11    1    4    4    0    0 -0.36007794500E+02  0.21629413896E+02  0.51323053516E+02  0.66320800903E+02  0.00000000000E+00 0.  1.
         12    1    4    4    0    0  0.30587786092E+02 -0.11085713631E+02  0.10901435372E+03  0.11376570231E+03  0.00000000000E+00 0. -1.
         -5    1    5    5    0  501 -0.50707622923E+01 -0.62062666386E+01 -0.37326254256E+02  0.38465174283E+02  0.47000000000E+01 0.  1.
         13    1    6    6    0    0  0.12856839929E+03  0.15419450583E+02  0.53718744054E+02  0.14019021441E+03  0.00000000000E+00 0. -1.
        -14    1    6    6    0    0  0.11629214559E+02  0.21272760643E+02  0.45737811335E+02  0.51765976881E+02  0.00000000000E+00 0.  1.
<mgrwt>
<rscale>  2 0.22252221E+03</rscale>
<asrwt>0</asrwt>
<pdfrwt beam="1">  1        1 0.76608878E-01 0.22252221E+03</pdfrwt>
<pdfrwt beam="2">  1       -1 0.18391828E-01 0.22252221E+03</pdfrwt>
<totfact> 0.10506295E+03</totfact>
</mgrwt>
</event>
<event>
12    1  0.4154313E-002  0.2215739E+03  0.7546771E-02  0.1132715E+00
         -4   -1    0    0    0  501 -0.00000000000E+00  0.00000000000E+00  0.10625129317E+03  0.10625129317E+03  0.00000000000E+00 0. -1.
          4   -1    0    0  502    0  0.00000000000E+00 -0.00000000000E+00 -0.46267156691E+03  0.46267156691E+03  0.00000000000E+00 0.  1.
          6    2    1    2  502    0 -0.63223158936E+02 -0.12402542230E+03 -0.18849042719E+03  0.29088262044E+03  0.17235017995E+03 0.  0.
         24    2    3    3    0    0  0.17011317697E+01 -0.97074397162E+02 -0.18060142044E+03  0.21998940704E+03  0.79700274203E+02 0.  0.
         -6    2    1    2    0  501  0.63223158936E+02  0.12402542230E+03 -0.16792984655E+03  0.27804023963E+03  0.17241365459E+03 0.  0.
        -24    2    5    5    0    0  0.10263888188E+03  0.11894093696E+03 -0.11554268744E+03  0.21211637714E+03  0.83435953097E+02 0.  0.
          5    1    3    3  502    0 -0.64924290706E+02 -0.26951025137E+02 -0.78890067486E+01  0.70893213407E+02  0.47000000000E+01 0. -1.
        -13    1    4    4    0    0 -0.41656452609E+01 -0.44379353338E+02 -0.15467440163E+03  0.16096909680E+03  0.00000000000E+00 0.  1.
         14    1    4    4    0    0  0.58667770306E+01 -0.52695043824E+02 -0.25927018812E+02  0.59020310240E+02  0.00000000000E+00 0. -1.
         -5    1    5    5    0  501 -0.39415722945E+02  0.50844853364E+01 -0.52387159115E+02  0.65923862497E+02  0.47000000000E+01 0.  1.
         13    1    6    6    0    0 -0.77609313600E+01  0.53061808003E+01  0.70834797962E+01  0.11771291190E+02  0.00000000000E+00 0. -1.
        -14    1    6    6    0    0  0.11039981324E+03  0.11363475616E+03 -0.12262616723E+03  0.20034508595E+03  0.00000000000E+00 0.  1.
<mgrwt>
<rscale>  2 0.22157391E+03</rscale>
<asrwt>0</asrwt>
<pdfrwt beam="2">  1        4 0.71180240E-01 0.22157391E+03</pdfrwt>
<pdfrwt beam="1">  1       -4 0.16346353E-01 0.22157391E+03</pdfrwt>
<totfact> 0.10724961E+02</totfact>
</mgrwt>
</event>
<event>
12    1  0.4154313E-002  0.2019915E+03  0.7546771E-02  0.1148070E+00
          2   -1    0    0  502    0  0.00000000000E+00  0.00000000000E+00  0.66980838578E+03  0.66980838578E+03  0.00000000000E+00 0. -1.
         -2   -1    0    0    0  501 -0.00000000000E+00 -0.00000000000E+00 -0.13845296719E+03  0.13845296719E+03  0.00000000000E+00 0.  1.
          6    2    1    2  502    0 -0.65419132873E+02 -0.77891380502E+02  0.56829045741E+03  0.60322432259E+03  0.17486797670E+03 0.  0.
         24    2    3    3    0    0  0.64618592587E+01  0.10423484563E+02  0.17723456115E+03  0.19589988627E+03  0.82548598530E+02 0.  0.
         -6    2    1    2    0  501  0.65419132873E+02  0.77891380502E+02 -0.36935038820E+02  0.20503703038E+03  0.17415296906E+03 0.  0.
        -24    2    5    5    0    0 -0.33139514602E+02  0.35660164154E+02 -0.36532806197E+01  0.92666891753E+02  0.78765040674E+02 0.  0.
          5    1    3    3  502    0 -0.71880992132E+02 -0.88314865065E+02  0.39105589626E+03  0.40732443632E+03  0.47000000000E+01 0. -1.
        -13    1    4    4    0    0 -0.14735513491E+01  0.35129066006E+02  0.16208041360E+03  0.16585018271E+03  0.00000000000E+00 0.  1.
         14    1    4    4    0    0  0.79354106077E+01 -0.24705581443E+02  0.15154147543E+02  0.30049703555E+02  0.00000000000E+00 0. -1.
         -5    1    5    5    0  501  0.98558647475E+02  0.42231216347E+02 -0.33281758200E+02  0.11237013863E+03  0.47000000000E+01 0.  1.
         13    1    6    6    0    0  0.92134561654E+01  0.12502555657E+02  0.30028365512E+02  0.33806869240E+02  0.00000000000E+00 0. -1.
        -14    1    6    6    0    0 -0.42352970768E+02  0.23157608497E+02 -0.33681646132E+02  0.58860022514E+02  0.00000000000E+00 0.  1.
<mgrwt>
<rscale>  2 0.20199152E+03</rscale>
<asrwt>0</asrwt>
<pdfrwt beam="1">  1        2 0.10304744E+00 0.20199152E+03</pdfrwt>
<pdfrwt beam="2">  1       -2 0.21300457E-01 0.20199152E+03</pdfrwt>
<totfact> 0.83702517E+02</totfact>
</mgrwt>
</event>
<event>
12    1  0.4154313E-002  0.2098498E+03  0.7546771E-02  0.1141685E+00
         -2   -1    0    0    0  501 -0.00000000000E+00  0.00000000000E+00  0.67724015363E+02  0.67724015363E+02  0.00000000000E+00 0.  1.
          2   -1    0    0  502    0  0.00000000000E+00 -0.00000000000E+00 -0.74565481375E+03  0.74565481375E+03  0.00000000000E+00 0. -1.
          6    2    1    2  502    0  0.10904897475E+03 -0.40555635190E+02 -0.48195473180E+03  0.52496963100E+03  0.17255813955E+03 0.  0.
         24    2    3    3    0    0  0.16856046270E+02  0.10584146109E+02 -0.10137055507E+03  0.13002505404E+03  0.78958057202E+02 0.  0.
         -6    2    1    2    0  501 -0.10904897475E+03  0.40555635190E+02 -0.19597606658E+03  0.28840919811E+03  0.17673938000E+03 0.  0.
        -24    2    5    5    0    0 -0.96306549251E+02  0.52591977725E+02 -0.57518876068E+02  0.14876777677E+03  0.82356315793E+02 0.  0.
          5    1    3    3  502    0  0.92192928484E+02 -0.51139781299E+02 -0.38058417673E+03  0.39494457696E+03  0.47000000000E+01 0. -1.
        -13    1    4    4    0    0 -0.30830708869E+02  0.17011054177E+01 -0.25857430591E+02  0.40274471887E+02  0.00000000000E+00 0.  1.
         14    1    4    4    0    0  0.47686755139E+02  0.88830406913E+01 -0.75513124481E+02  0.89750582151E+02  0.00000000000E+00 0. -1.
         -5    1    5    5    0  501 -0.12742425503E+02 -0.12036342535E+02 -0.13845719052E+03  0.13964142134E+03  0.47000000000E+01 0.  1.
         11    1    6    6    0    0 -0.81966821304E+01  0.31796612591E+02 -0.47415236694E+02  0.57675079896E+02  0.00000000000E+00 0. -1.
        -12    1    6    6    0    0 -0.88109867121E+02  0.20795365134E+02 -0.10103639374E+02  0.91092696874E+02  0.00000000000E+00 0.  1.
<mgrwt>
<rscale>  2 0.20984981E+03</rscale>
<asrwt>0</asrwt>
<pdfrwt beam="2">  1        2 0.11471613E+00 0.20984981E+03</pdfrwt>
<pdfrwt beam="1">  1       -2 0.10419079E-01 0.20984981E+03</pdfrwt>
<totfact> 0.23945670E+03</totfact>
</mgrwt>
</event>
<event>
12    1  0.4154313E-002  0.2426359E+03  0.7546771E-02  0.1118049E+00
          1   -1    0    0  502    0  0.00000000000E+00  0.00000000000E+00  0.76592599890E+03  0.76592599890E+03  0.00000000000E+00 0. -1.
         -1   -1    0    0    0  501 -0.00000000000E+00 -0.00000000000E+00 -0.88639811335E+02  0.88639811335E+02  0.00000000000E+00 0.  1.
          6    2    1    2  502    0 -0.14581464100E+03 -0.87879178570E+02  0.18278179816E+03  0.30369737129E+03  0.17273751196E+03 0.  0.
         24    2    3    3    0    0 -0.39819065296E+02  0.92162131050E+01  0.36933216051E+02  0.98864571053E+02  0.82095337362E+02 0.  0.
         -6    2    1    2    0  501  0.14581464100E+03  0.87879178570E+02  0.49450438941E+03  0.55086843894E+03  0.17302250236E+03 0.  0.
        -24    2    5    5    0    0  0.17002841322E+03  0.97260813629E+02  0.46762211337E+03  0.51319791191E+03  0.79575930489E+02 0.  0.
          5    1    3    3  502    0 -0.10599557570E+03 -0.97095391675E+02  0.14584858211E+03  0.20483280024E+03  0.47000000000E+01 0. -1.
        -13    1    4    4    0    0 -0.31008682918E+02  0.32103966213E+02  0.53193566437E+02  0.69438883726E+02  0.00000000000E+00 0.  1.
         14    1    4    4    0    0 -0.88103823779E+01 -0.22887753108E+02 -0.16260350386E+02  0.29425687327E+02  0.00000000000E+00 0. -1.
         -5    1    5    5    0  501 -0.24213772220E+02 -0.93816350591E+01  0.26882276042E+02  0.37670527030E+02  0.47000000000E+01 0.  1.
         13    1    6    6    0    0  0.19251118860E+02  0.46455746551E+02  0.84182657673E+02  0.98058461226E+02  0.00000000000E+00 0. -1.
        -14    1    6    6    0    0  0.15077729436E+03  0.50805067077E+02  0.38343945569E+03  0.41513945069E+03  0.00000000000E+00 0.  1.
<mgrwt>
<rscale>  2 0.24263585E+03</rscale>
<asrwt>0</asrwt>
<pdfrwt beam="1">  1        1 0.11783476E+00 0.24263585E+03</pdfrwt>
<pdfrwt beam="2">  1       -1 0.13636895E-01 0.24263585E+03</pdfrwt>
<totfact> 0.92434283E+02</totfact>
</mgrwt>
</event>
<event>
12    1  0.4154313E-002  0.1785527E+03  0.7546771E-02  0.1169211E+00
          2   -1    0    0  502    0  0.00000000000E+00  0.00000000000E+00  0.20304162097E+03  0.20304162097E+03  0.00000000000E+00 0.  1.
         -2   -1    0    0    0  501 -0.00000000000E+00 -0.00000000000E+00 -0.16843641965E+03  0.16843641965E+03  0.00000000000E+00 0. -1.
          6    2    1    2  502    0 -0.31606370293E+02  0.32998032790E+02 -0.31078105827E+02  0.18102017865E+03  0.17237930155E+03 0.  0.
         24    2    3    3    0    0  0.42225026397E+02  0.17488322740E+02  0.13342904620E+02  0.93344968853E+02  0.80289823887E+02 0.  0.
         -6    2    1    2    0  501  0.31606370293E+02 -0.32998032790E+02  0.65683307144E+02  0.19045786197E+03  0.17283537699E+03 0.  0.
        -24    2    5    5    0    0 -0.50058343854E+02 -0.32451846841E+02  0.34084470131E+02  0.10276521486E+03  0.76419749602E+02 0.  0.
          5    1    3    3  502    0 -0.73831396691E+02  0.15509710051E+02 -0.44421010447E+02  0.87675209793E+02  0.47000000000E+01 0. -1.
        -13    1    4    4    0    0  0.18305660311E+02  0.49284643526E+02  0.65576849906E+01  0.52981850849E+02  0.00000000000E+00 0.  1.
         14    1    4    4    0    0  0.23919366086E+02 -0.31796320787E+02  0.67852196296E+01  0.40363118004E+02  0.00000000000E+00 0. -1.
         -5    1    5    5    0  501  0.81664714147E+02 -0.54618594927E+00  0.31598837013E+02  0.87692647106E+02  0.47000000000E+01 0.  1.
         13    1    6    6    0    0 -0.35264207225E+02 -0.37057766943E+02 -0.13346542257E+02  0.52867500340E+02  0.00000000000E+00 0. -1.
        -14    1    6    6    0    0 -0.14794136629E+02  0.46059201026E+01  0.47431012387E+02  0.49897714523E+02  0.00000000000E+00 0.  1.
<mgrwt>
<rscale>  2 0.17855274E+03</rscale>
<asrwt>0</asrwt>
<pdfrwt beam="1">  1        2 0.31237172E-01 0.17855274E+03</pdfrwt>
<pdfrwt beam="2">  1       -2 0.25913295E-01 0.17855274E+03</pdfrwt>
<totfact> 0.21974255E+03</totfact>
</mgrwt>
</event>
<event>
12    1  0.4154313E-002  0.2139471E+03  0.7546771E-02  0.1138478E+00
         -1   -1    0    0    0  501 -0.00000000000E+00  0.00000000000E+00  0.77522148692E+02  0.77522148692E+02  0.00000000000E+00 0. -1.
          1   -1    0    0  502    0  0.00000000000E+00 -0.00000000000E+00 -0.59050785803E+03  0.59050785803E+03  0.00000000000E+00 0.  1.
          6    2    1    2  502    0 -0.12160630626E+03 -0.40844444408E+02 -0.25502467739E+03  0.33355201249E+03  0.17251955424E+03 0.  0.
         24    2    3    3    0    0 -0.53592424994E+02  0.44058237828E+02 -0.13987627345E+03  0.17507299676E+03  0.79195365922E+02 0.  0.
         -6    2    1    2    0  501  0.12160630626E+03  0.40844444408E+02 -0.25796103195E+03  0.33447799423E+03  0.16992725579E+03 0.  0.
        -24    2    5    5    0    0  0.19976943201E+02 -0.30875307766E+02 -0.94862804008E+02  0.12930642640E+03  0.79804996310E+02 0.  0.
          5    1    3    3  502    0 -0.68013881266E+02 -0.84902682236E+02 -0.11514840394E+03  0.15847901573E+03  0.47000000000E+01 0. -1.
        -13    1    4    4    0    0 -0.22341756814E+01  0.51352674547E+02 -0.86658339654E+02  0.10075592566E+03  0.00000000000E+00 0.  1.
         14    1    4    4    0    0 -0.51358249313E+02 -0.72944367185E+01 -0.53217933792E+02  0.74317071098E+02  0.00000000000E+00 0. -1.
         -5    1    5    5    0  501  0.10162936306E+03  0.71719752174E+02 -0.16309822794E+03  0.20517156783E+03  0.47000000000E+01 0.  1.
         13    1    6    6    0    0  0.10544941568E+02  0.26296970937E+02 -0.43274226021E+02  0.51724125037E+02  0.00000000000E+00 0. -1.
        -14    1    6    6    0    0  0.94320016329E+01 -0.57172278703E+02 -0.51588577987E+02  0.77582301368E+02  0.00000000000E+00 0.  1.
<mgrwt>
<rscale>  2 0.21394706E+03</rscale>
<asrwt>0</asrwt>
<pdfrwt beam="2">  1        1 0.90847365E-01 0.21394706E+03</pdfrwt>
<pdfrwt beam="1">  1       -1 0.11926484E-01 0.21394706E+03</pdfrwt>
<totfact> 0.16573272E+03</totfact>
</mgrwt>
</event>
<event>
12    1  0.4154313E-002  0.2090926E+03  0.7546771E-02  0.1142287E+00
          2   -1    0    0  502    0  0.00000000000E+00  0.00000000000E+00  0.23865795231E+04  0.23865795231E+04  0.00000000000E+00 0. -1.
         -2   -1    0    0    0  501 -0.00000000000E+00 -0.00000000000E+00 -0.52014988196E+02  0.52014988196E+02  0.00000000000E+00 0.  1.
          6    2    1    2  502    0 -0.58541624700E+02  0.10216061752E+03  0.18524268081E+03  0.27909314175E+03  0.17237812329E+03 0.  0.
         24    2    3    3    0    0  0.24030561764E+01  0.59120421938E+02  0.24344402239E+02  0.10167539008E+03  0.79020478730E+02 0.  0.
         -6    2    1    2    0  501  0.58541624700E+02 -0.10216061752E+03  0.21493218541E+04  0.21595013696E+04  0.17319878454E+03 0.  0.
        -24    2    5    5    0    0 -0.28282928440E+02 -0.52001698869E+02  0.78827266508E+03  0.79475545727E+03  0.82209133424E+02 0.  0.
          5    1    3    3  502    0 -0.60944680876E+02  0.43040195577E+02  0.16089827857E+03  0.17741775167E+03  0.47000000000E+01 0. -1.
        -11    1    4    4    0    0 -0.74321188321E+01  0.74586388672E+02  0.51449748514E+01  0.75132127160E+02  0.00000000000E+00 0.  1.
         12    1    4    4    0    0  0.98351750085E+01 -0.15465966734E+02  0.19199427388E+02  0.26543262921E+02  0.00000000000E+00 0. -1.
         -5    1    5    5    0  501  0.86824553140E+02 -0.50158918646E+02  0.13610491890E+04  0.13647459123E+04  0.47000000000E+01 0.  1.
         13    1    6    6    0    0  0.20514404354E+02  0.23764667543E+01  0.33464343587E+03  0.33528005838E+03  0.00000000000E+00 0. -1.
        -14    1    6    6    0    0 -0.48797332794E+02 -0.54378165624E+02  0.45362922922E+03  0.45947539889E+03  0.00000000000E+00 0.  1.
<mgrwt>
<rscale>  2 0.20909257E+03</rscale>
<asrwt>0</asrwt>
<pdfrwt beam="1">  1        2 0.36716599E+00 0.20909257E+03</pdfrwt>
<pdfrwt beam="2">  1       -2 0.80023077E-02 0.20909257E+03</pdfrwt>
<totfact> 0.44406663E+02</totfact>
</mgrwt>
</event>
<event>
12    1  0.4154313E-002  0.2063656E+03  0.7546771E-02  0.1144477E+00
         -2   -1    0    0    0  501 -0.00000000000E+00  0.00000000000E+00  0.47226723728E+03  0.47226723728E+03  0.00000000000E+00 0. -1.
          2   -1    0    0  502    0  0.00000000000E+00 -0.00000000000E+00 -0.20874300948E+03  0.20874300948E+03  0.00000000000E+00 0.  1.
          6    2    1    2  502    0 -0.59758469794E+02  0.97013419250E+02 -0.12465793941E+03  0.24172955933E+03  0.17294767929E+03 0.  0.
         24    2    3    3    0    0 -0.42354520541E+02  0.13613604611E+03 -0.10576429086E+03  0.19469194313E+03  0.79949603123E+02 0.  0.
         -6    2    1    2    0  501  0.59758469794E+02 -0.97013419250E+02  0.38818216721E+03  0.43928068743E+03  0.17117081873E+03 0.  0.
        -24    2    5    5    0    0  0.17378072712E+02  0.14316939364E+02  0.19115663884E+03  0.20899457054E+03  0.81430324679E+02 0.  0.
          5    1    3    3  502    0 -0.17403949254E+02 -0.39122626860E+02 -0.18893648544E+02  0.47037616195E+02  0.47000000000E+01 0. -1.
        -11    1    4    4    0    0 -0.37391762977E+01  0.55373705682E+02 -0.87050295393E+02  0.10323750602E+03  0.00000000000E+00 0.  1.
         12    1    4    4    0    0 -0.38615344243E+02  0.80762340427E+02 -0.18713995468E+02  0.91454437119E+02  0.00000000000E+00 0. -1.
         -5    1    5    5    0  501  0.42380397082E+02 -0.11133035861E+03  0.19702552837E+03  0.23028611690E+03  0.47000000000E+01 0.  1.
         13    1    6    6    0    0  0.28675519884E+02 -0.14090511352E+02  0.26459634998E+02  0.41484216698E+02  0.00000000000E+00 0. -1.
        -14    1    6    6    0    0 -0.11297447173E+02  0.28407450716E+02  0.16469700384E+03  0.16751035384E+03  0.00000000000E+00 0.  1.
<mgrwt>
<rscale>  2 0.20636559E+03</rscale>
<asrwt>0</asrwt>
<pdfrwt beam="2">  1        2 0.32114309E-01 0.20636559E+03</pdfrwt>
<pdfrwt beam="1">  1       -2 0.72656498E-01 0.20636559E+03</pdfrwt>
<totfact> 0.28801296E+02</totfact>
</mgrwt>
</event>
<event>
12    1  0.4154313E-002  0.2292005E+03  0.7546771E-02  0.1127204E+00
         -1   -1    0    0    0  501 -0.00000000000E+00  0.00000000000E+00  0.18217948164E+03  0.18217948164E+03  0.00000000000E+00 0. -1.
          1   -1    0    0  502    0  0.00000000000E+00 -0.00000000000E+00 -0.31201080879E+03  0.31201080879E+03  0.00000000000E+00 0.  1.
          6    2    1    2  502    0  0.99466244740E+02 -0.11122594045E+03  0.31705041113E+01  0.22902055810E+03  0.17371131300E+03 0.  0.
         24    2    3    3    0    0  0.15724643475E+02 -0.54344663948E+02 -0.53561883895E+02  0.11287931113E+03  0.81683881906E+02 0.  0.
         -6    2    1    2    0  501 -0.99466244740E+02  0.11122594045E+03 -0.13300183126E+03  0.26516973233E+03  0.17424338195E+03 0.  0.
        -24    2    5    5    0    0 -0.26713759119E+02  0.12135252309E+03 -0.12077464274E+03  0.19055695876E+03  0.79280391133E+02 0.  0.
          5    1    3    3  502    0  0.83741601265E+02 -0.56881276499E+02  0.56732388007E+02  0.11614124697E+03  0.47000000000E+01 0. -1.
        -11    1    4    4    0    0  0.16811177120E+02 -0.75614635509E+02 -0.36702020801E+02  0.85715967650E+02  0.00000000000E+00 0.  1.
         12    1    4    4    0    0 -0.10865336449E+01  0.21269971561E+02 -0.16859863094E+02  0.27163343482E+02  0.00000000000E+00 0. -1.
         -5    1    5    5    0  501 -0.72752485621E+02 -0.10126582638E+02 -0.12227188513E+02  0.74612773564E+02  0.47000000000E+01 0.  1.
         11    1    6    6    0    0 -0.38341184854E+01 -0.90278203475E+01 -0.25902732461E+02  0.27697536962E+02  0.00000000000E+00 0. -1.
        -12    1    6    6    0    0 -0.22879640634E+02  0.13038034343E+03 -0.94871910282E+02  0.16285942180E+03  0.00000000000E+00 0.  1.
<mgrwt>
<rscale>  2 0.22920046E+03</rscale>
<asrwt>0</asrwt>
<pdfrwt beam="2">  1        1 0.48001663E-01 0.22920046E+03</pdfrwt>
<pdfrwt beam="1">  1       -1 0.28027613E-01 0.22920046E+03</pdfrwt>
<totfact> 0.95705823E+02</totfact>
</mgrwt>
</event>
<event>
12    1  0.4154313E-002  0.1752467E+03  0.7546771E-02  0.1172484E+00
          1   -1    0    0  502    0  0.00000000000E+00  0.00000000000E+00  0.64195663440E+03  0.64195663440E+03  0.00000000000E+00 0.  1.
         -1   -1    0    0    0  501 -0.00000000000E+00 -0.00000000000E+00 -0.48603257189E+02  0.48603257189E+02  0.00000000000E+00 0. -1.
          6    2    1    2  502    0  0.25584166605E+02  0.12706242861E+02  0.25449041800E+03  0.30935361410E+03  0.17354621146E+03 0.  0.
         24    2    3    3    0    0 -0.45637488453E+02  0.12881954629E+02  0.89015483205E+02  0.12914096451E+03  0.80653005883E+02 0.  0.
         -6    2    1    2    0  501 -0.25584166605E+02 -0.12706242861E+02  0.33886295921E+03  0.38120627749E+03  0.17226178533E+03 0.  0.
        -24    2    5    5    0    0  0.14760711369E+02 -0.67117155501E+01  0.33770850940E+02  0.73363902136E+02  0.63078253286E+02 0.  0.
          5    1    3    3  502    0  0.71221655058E+02 -0.17571176811E+00  0.16547493480E+03  0.18021264959E+03  0.47000000000E+01 0. -1.
        -11    1    4    4    0    0 -0.27651167682E+02  0.42796166199E+02  0.76790736887E+02  0.92157019196E+02  0.00000000000E+00 0.  1.
         12    1    4    4    0    0 -0.17986320771E+02 -0.29914211570E+02  0.12224746318E+02  0.36983945318E+02  0.00000000000E+00 0. -1.
         -5    1    5    5    0  501 -0.40344877974E+02 -0.59945273105E+01  0.30509210827E+03  0.30784237536E+03  0.47000000000E+01 0.  1.
         13    1    6    6    0    0  0.28418711713E+02  0.17421937947E+02  0.30956224099E+02  0.45491042060E+02  0.00000000000E+00 0. -1.
        -14    1    6    6    0    0 -0.13658000343E+02 -0.24133653498E+02  0.28146268407E+01  0.27872860075E+02  0.00000000000E+00 0.  1.
<mgrwt>
<rscale>  2 0.17524668E+03</rscale>
<asrwt>0</asrwt>
<pdfrwt beam="1">  1        1 0.98762553E-01 0.17524668E+03</pdfrwt>
<pdfrwt beam="2">  1       -1 0.74774247E-02 0.17524668E+03</pdfrwt>
<totfact> 0.30087235E+03</totfact>
</mgrwt>
</event>
<event>
12    1  0.4154313E-002  0.1915993E+03  0.7546771E-02  0.1157027E+00
         -2   -1    0    0    0  501 -0.00000000000E+00  0.00000000000E+00  0.24128548454E+02  0.24128548454E+02  0.00000000000E+00 0. -1.
          2   -1    0    0  502    0  0.00000000000E+00 -0.00000000000E+00 -0.32623789263E+04  0.32623789263E+04  0.00000000000E+00 0.  1.
          6    2    1    2  502    0 -0.73127942796E+02 -0.32523021634E+02 -0.42428863475E+03  0.46612495938E+03  0.17563083221E+03 0.  0.
         24    2    3    3    0    0 -0.18468314282E+02  0.20567246916E+02 -0.93077626647E+02  0.12622927907E+03  0.80661614373E+02 0.  0.
         -6    2    1    2    0  501  0.73127942796E+02  0.32523021634E+02 -0.28139617431E+04  0.28203825154E+04  0.17254390308E+03 0.  0.
        -24    2    5    5    0    0  0.10121215968E+03  0.33215382202E+02 -0.15378244056E+04  0.15439273471E+04  0.86374693216E+02 0.  0.
          5    1    3    3  502    0 -0.54659628514E+02 -0.53090268550E+02 -0.33121100811E+03  0.33989568031E+03  0.47000000000E+01 0. -1.
        -11    1    4    4    0    0  0.13279468249E+02  0.28519123340E+02 -0.87558662226E+02  0.93038723142E+02  0.00000000000E+00 0.  1.
         12    1    4    4    0    0 -0.31747782531E+02 -0.79518764242E+01 -0.55189644213E+01  0.33190555925E+02  0.00000000000E+00 0. -1.
         -5    1    5    5    0  501 -0.28084216884E+02 -0.69236056844E+00 -0.12761373375E+04  0.12764551683E+04  0.47000000000E+01 0.  1.
         13    1    6    6    0    0  0.66082118232E+02 -0.18591783154E+02 -0.57763554992E+03  0.58170037759E+03  0.00000000000E+00 0. -1.
        -14    1    6    6    0    0  0.35130041449E+02  0.51807165356E+02 -0.96018885568E+03  0.96222696947E+03  0.00000000000E+00 0.  1.
<mgrwt>
<rscale>  2 0.19159933E+03</rscale>
<asrwt>0</asrwt>
<pdfrwt beam="2">  1        2 0.50190426E+00 0.19159933E+03</pdfrwt>
<pdfrwt beam="1">  1       -2 0.37120858E-02 0.19159933E+03</pdfrwt>
<totfact> 0.45482541E+02</totfact>
</mgrwt>
</event>
<event>
12    1  0.4154313E-002  0.1861626E+03  0.7546771E-02  0.1161969E+00
         -2   -1    0    0    0  501 -0.00000000000E+00  0.00000000000E+00  0.13466223292E+02  0.13466223292E+02  0.00000000000E+00 0.  1.
          2   -1    0    0  502    0  0.00000000000E+00 -0.00000000000E+00 -0.41159677599E+04  0.41159677599E+04  0.00000000000E+00 0. -1.
          6    2    1    2  502    0  0.64224905642E+02  0.35201351712E+02 -0.33221937007E+04  0.33274632108E+04  0.17226857214E+03 0.  0.
         24    2    3    3    0    0 -0.19718344232E+02 -0.15324259937E+02 -0.11544985816E+04  0.11575499578E+04  0.80195284934E+02 0.  0.
         -6    2    1    2    0  501 -0.64224905642E+02 -0.35201351712E+02 -0.78030783599E+03  0.80197077241E+03  0.17003772299E+03 0.  0.
        -24    2    5    5    0    0 -0.64497894703E+02  0.35756802889E+01 -0.24175314097E+03  0.26200134526E+03  0.77636073064E+02 0.  0.
          5    1    3    3  502    0  0.83943249873E+02  0.50525611649E+02 -0.21676951190E+04  0.21699132530E+04  0.47000000000E+01 0. -1.
        -11    1    4    4    0    0 -0.47279449008E+01  0.31482574857E+02 -0.61276745211E+03  0.61359388552E+03  0.00000000000E+00 0.  1.
         12    1    4    4    0    0 -0.14990399331E+02 -0.46806834794E+02 -0.54173112951E+03  0.54395607225E+03  0.00000000000E+00 0. -1.
         -5    1    5    5    0  501  0.27298906078E+00 -0.38777032001E+02 -0.53855469502E+03  0.53996942715E+03  0.47000000000E+01 0.  1.
         11    1    6    6    0    0  0.10999426545E+02 -0.10943944529E+02 -0.95695718337E+02  0.96945488880E+02  0.00000000000E+00 0. -1.
        -12    1    6    6    0    0 -0.75497321248E+02  0.14519624818E+02 -0.14605742263E+03  0.16505585638E+03  0.00000000000E+00 0.  1.
<mgrwt>
<rscale>  2 0.18616260E+03</rscale>
<asrwt>0</asrwt>
<pdfrwt beam="2">  1        2 0.63322540E+00 0.18616260E+03</pdfrwt>
<pdfrwt beam="1">  1       -2 0.20717280E-02 0.18616260E+03</pdfrwt>
<totfact> 0.27616037E+02</totfact>
</mgrwt>
</event>
<event>
12    1  0.4154313E-002  0.2016595E+03  0.7546771E-02  0.1148346E+00
         -1   -1    0    0    0  501 -0.00000000000E+00  0.00000000000E+00  0.89216318840E+02  0.89216318840E+02  0.00000000000E+00 0. -1.
          1   -1    0    0  502    0  0.00000000000E+00 -0.00000000000E+00 -0.10876351231E+04  0.10876351231E+04  0.00000000000E+00 0.  1.
          6    2    1    2  502    0  0.77168398575E+02  0.63426263189E+02 -0.94634970938E+03  0.96733137397E+03  0.17370769130E+03 0.  0.
         24    2    3    3    0    0  0.60658043769E+02  0.14463866954E+02 -0.86452962967E+03  0.87044730147E+03  0.79865025699E+02 0.  0.
         -6    2    1    2    0  501 -0.77168398575E+02 -0.63426263189E+02 -0.52069094888E+02  0.20952006798E+03  0.17666243416E+03 0.  0.
        -24    2    5    5    0    0 -0.12137534496E+03 -0.58175214609E+02 -0.30513342764E+02  0.15983538151E+03  0.80622299267E+02 0.  0.
          5    1    3    3  502    0  0.16510354805E+02  0.48962396234E+02 -0.81820079707E+02  0.96884072500E+02  0.47000000000E+01 0. -1.
        -13    1    4    4    0    0  0.69532885236E+02 -0.14417708835E+02 -0.58843984501E+03  0.59270915604E+03  0.00000000000E+00 0.  1.
         14    1    4    4    0    0 -0.88748414669E+01  0.28881575790E+02 -0.27608978466E+03  0.27773814543E+03  0.00000000000E+00 0. -1.
         -5    1    5    5    0  501  0.44206946382E+02 -0.52510485795E+01 -0.21555752124E+02  0.49684686466E+02  0.47000000000E+01 0.  1.
         13    1    6    6    0    0 -0.72655266172E+02 -0.74271834487E+02 -0.31324251976E+02  0.10851867057E+03  0.00000000000E+00 0. -1.
        -14    1    6    6    0    0 -0.48720078785E+02  0.16096619878E+02  0.81090921237E+00  0.51316710943E+02  0.00000000000E+00 0.  1.
<mgrwt>
<rscale>  2 0.20165948E+03</rscale>
<asrwt>0</asrwt>
<pdfrwt beam="2">  1        1 0.16732848E+00 0.20165948E+03</pdfrwt>
<pdfrwt beam="1">  1       -1 0.13725588E-01 0.20165948E+03</pdfrwt>
<totfact> 0.51603946E+02</totfact>
</mgrwt>
</event>
<event>
12    1  0.4154313E-002  0.1791672E+03  0.7546771E-02  0.1168612E+00
          1   -1    0    0  502    0  0.00000000000E+00  0.00000000000E+00  0.28461067476E+04  0.28461067476E+04  0.00000000000E+00 0. -1.
         -1   -1    0    0    0  501 -0.00000000000E+00 -0.00000000000E+00 -0.11305589252E+02  0.11305589252E+02  0.00000000000E+00 0.  1.
          6    2    1    2  502    0 -0.32205869039E+02  0.40932199042E+01  0.13799672052E+04  0.13919918291E+04  0.17966021356E+03 0.  0.
         24    2    3    3    0    0 -0.25527145599E+02 -0.61067106460E+02  0.59603846863E+03  0.60531729187E+03  0.82257772206E+02 0.  0.
         -6    2    1    2    0  501  0.32205869039E+02 -0.40932199042E+01  0.14548339531E+04  0.14654205078E+04  0.17280469012E+03 0.  0.
        -24    2    5    5    0    0 -0.25310836807E+02  0.54553644289E+02  0.74717505478E+03  0.75299448877E+03  0.71508034885E+02 0.  0.
          5    1    3    3  502    0 -0.66787234401E+01  0.65160326365E+02  0.78392873658E+03  0.78667453722E+03  0.47000000000E+01 0. -1.
        -13    1    4    4    0    0  0.12624810925E+02  0.12975281472E+02  0.18764553196E+03  0.18851681476E+03  0.00000000000E+00 0.  1.
         14    1    4    4    0    0 -0.38151956524E+02 -0.74042387932E+02  0.40839293667E+03  0.41680047711E+03  0.00000000000E+00 0. -1.
         -5    1    5    5    0  501  0.57516705847E+02 -0.58646864193E+02  0.70765889835E+03  0.71242601899E+03  0.47000000000E+01 0.  1.
         13    1    6    6    0    0 -0.30573657083E+02  0.25545790189E+00  0.13623766488E+03  0.13962634099E+03  0.00000000000E+00 0. -1.
        -14    1    6    6    0    0  0.52628202757E+01  0.54298186387E+02  0.61093738990E+03  0.61336814777E+03  0.00000000000E+00 0.  1.
<mgrwt>
<rscale>  2 0.17916716E+03</rscale>
<asrwt>0</asrwt>
<pdfrwt beam="1">  1        1 0.43786200E+00 0.17916716E+03</pdfrwt>
<pdfrwt beam="2">  1       -1 0.17393237E-02 0.17916716E+03</pdfrwt>
<totfact> 0.78964699E+02</totfact>
</mgrwt>
</event>
<event>
12    1  0.4154313E-002  0.1855957E+03  0.7546771E-02  0.1162495E+00
         -1   -1    0    0    0  501 -0.00000000000E+00  0.00000000000E+00  0.22563446027E+03  0.22563446027E+03  0.00000000000E+00 0. -1.
          1   -1    0    0  502    0  0.00000000000E+00 -0.00000000000E+00 -0.15379226383E+03  0.15379226383E+03  0.00000000000E+00 0.  1.
          6    2    1    2  502    0 -0.65750446026E+02  0.17670421441E+02  0.51919721651E+02  0.19160514470E+03  0.17141035276E+03 0.  0.
         24    2    3    3    0    0  0.27282881305E+02  0.24060890667E+01 -0.97722740047E+01  0.78839049775E+02  0.73279966930E+02 0.  0.
         -6    2    1    2    0  501  0.65750446026E+02 -0.17670421441E+02  0.19922474788E+02  0.18782157939E+03  0.17390996445E+03 0.  0.
        -24    2    5    5    0    0  0.56465063307E+02  0.22620743156E+02 -0.45202599027E+02  0.11053664220E+03  0.80467837770E+02 0.  0.
          5    1    3    3  502    0 -0.93033327331E+02  0.15264332374E+02  0.61691995656E+02  0.11276609493E+03  0.47000000000E+01 0. -1.
        -13    1    4    4    0    0  0.22573388166E+02  0.36150232920E+02 -0.13147562613E+02  0.44601071692E+02  0.00000000000E+00 0.  1.
         14    1    4    4    0    0  0.47094931386E+01 -0.33744143853E+02  0.33752886083E+01  0.34237978083E+02  0.00000000000E+00 0. -1.
         -5    1    5    5    0  501  0.92853827193E+01 -0.40291164596E+02  0.65125073815E+02  0.77284937188E+02  0.47000000000E+01 0.  1.
         13    1    6    6    0    0  0.21406556747E+02  0.72454669755E+01  0.23050346462E+02  0.32280891182E+02  0.00000000000E+00 0. -1.
        -14    1    6    6    0    0  0.35058506560E+02  0.15375276180E+02 -0.68252945489E+02  0.78255751020E+02  0.00000000000E+00 0.  1.
<mgrwt>
<rscale>  2 0.18559567E+03</rscale>
<asrwt>0</asrwt>
<pdfrwt beam="2">  1        1 0.23660348E-01 0.18559567E+03</pdfrwt>
<pdfrwt beam="1">  1       -1 0.34712994E-01 0.18559567E+03</pdfrwt>
<totfact> 0.16116653E+03</totfact>
</mgrwt>
</event>
<event>
12    1  0.4154313E-002  0.1825755E+03  0.7546771E-02  0.1165334E+00
          2   -1    0    0  502    0  0.00000000000E+00  0.00000000000E+00  0.10140173070E+04  0.10140173070E+04  0.00000000000E+00 0. -1.
         -2   -1    0    0    0  501 -0.00000000000E+00 -0.00000000000E+00 -0.33310892212E+02  0.33310892212E+02  0.00000000000E+00 0.  1.
          6    2    1    2  502    0  0.24973223528E+02  0.44457475337E+02  0.42682861648E+03  0.46370513642E+03  0.17389553384E+03 0.  0.
         24    2    3    3    0    0  0.61424941749E+02  0.20253908202E+02  0.13993895892E+03  0.17345988489E+03  0.79512107096E+02 0.  0.
         -6    2    1    2    0  501 -0.24973223528E+02 -0.44457475337E+02  0.55387779830E+03  0.58362306279E+03  0.17673464560E+03 0.  0.
        -24    2    5    5    0    0 -0.60560352508E+02  0.10827529815E+02  0.44520067139E+03  0.45651805321E+03  0.80126795820E+02 0.  0.
          5    1    3    3  502    0 -0.36451718221E+02  0.24203567135E+02  0.28688965756E+03  0.29024525154E+03  0.47000000000E+01 0. -1.
        -11    1    4    4    0    0 -0.88665804788E+01  0.28896598333E+02  0.29306459421E+02  0.42101047592E+02  0.00000000000E+00 0.  1.
         12    1    4    4    0    0  0.70291522228E+02 -0.86426901306E+01  0.11063249950E+03  0.13135883729E+03  0.00000000000E+00 0. -1.
         -5    1    5    5    0  501  0.35587128980E+02 -0.55285005153E+02  0.10867712692E+03  0.12710500957E+03  0.47000000000E+01 0.  1.
         13    1    6    6    0    0 -0.26503658063E+02 -0.29417690959E+02  0.28806974620E+03  0.29077830577E+03  0.00000000000E+00 0. -1.
        -14    1    6    6    0    0 -0.34056694445E+02  0.40245220774E+02  0.15713092519E+03  0.16573974744E+03  0.00000000000E+00 0.  1.
<mgrwt>
<rscale>  2 0.18257549E+03</rscale>
<asrwt>0</asrwt>
<pdfrwt beam="1">  1        2 0.15600264E+00 0.18257549E+03</pdfrwt>
<pdfrwt beam="2">  1       -2 0.51247534E-02 0.18257549E+03</pdfrwt>
<totfact> 0.47905837E+03</totfact>
</mgrwt>
</event>
<event>
12    1  0.4154313E-002  0.2240036E+03  0.7546771E-02  0.1130933E+00
          2   -1    0    0  502    0  0.00000000000E+00  0.00000000000E+00  0.52524252759E+03  0.52524252759E+03  0.00000000000E+00 0.  1.
         -2   -1    0    0    0  501 -0.00000000000E+00 -0.00000000000E+00 -0.12060680236E+03  0.12060680236E+03  0.00000000000E+00 0. -1.
          6    2    1    2  502    0  0.13031355864E+03  0.57948876029E+02  0.34905714903E+03  0.41437503285E+03  0.17183154182E+03 0.  0.
         24    2    3    3    0    0  0.81798318287E+02  0.82430942941E+02  0.32604196958E+03  0.35517293296E+03  0.79740962805E+02 0.  0.
         -6    2    1    2    0  501 -0.13031355864E+03 -0.57948876029E+02  0.55578576209E+02  0.23147429710E+03  0.17364238045E+03 0.  0.
        -24    2    5    5    0    0 -0.81215936148E+02 -0.49481939761E+02 -0.34131120854E+02  0.12875046690E+03  0.79795104299E+02 0.  0.
          5    1    3    3  502    0  0.48515240350E+02 -0.24482066912E+02  0.23015179446E+02  0.59202099890E+02  0.47000000000E+01 0. -1.
        -11    1    4    4    0    0  0.40965649344E+02  0.80740947097E+02  0.15675843450E+03  0.18102621841E+03  0.00000000000E+00 0.  1.
         12    1    4    4    0    0  0.40832668943E+02  0.16899958442E+01  0.16928353508E+03  0.17414671455E+03  0.00000000000E+00 0. -1.
         -5    1    5    5    0  501 -0.49097622489E+02 -0.84669362677E+01  0.89709697063E+02  0.10272383020E+03  0.47000000000E+01 0.  1.
         13    1    6    6    0    0 -0.39286393174E+02 -0.66097896007E+02 -0.32892140464E+02  0.83631605566E+02  0.00000000000E+00 0. -1.
        -14    1    6    6    0    0 -0.41929542974E+02  0.16615956246E+02 -0.12389803905E+01  0.45118861338E+02  0.00000000000E+00 0.  1.
<mgrwt>
<rscale>  2 0.22400357E+03</rscale>
<asrwt>0</asrwt>
<pdfrwt beam="1">  1        2 0.80806541E-01 0.22400357E+03</pdfrwt>
<pdfrwt beam="2">  1       -2 0.18554893E-01 0.22400357E+03</pdfrwt>
<totfact> 0.14041946E+03</totfact>
</mgrwt>
</event>
<event>
12    1  0.4154313E-002  0.2088011E+03  0.7546771E-02  0.1142519E+00
         -2   -1    0    0    0  501 -0.00000000000E+00  0.00000000000E+00  0.85883065875E+02  0.85883065875E+02  0.00000000000E+00 0.  1.
          2   -1    0    0  502    0  0.00000000000E+00 -0.00000000000E+00 -0.72501007746E+03  0.72501007746E+03  0.00000000000E+00 0. -1.
          6    2    1    2  502    0 -0.11639105534E+03  0.10396998530E+02 -0.95014896873E+02  0.22721753819E+03  0.17013231231E+03 0.  0.
         24    2    3    3    0    0  0.14367236476E+01  0.11104350291E+02 -0.69542361415E+02  0.10657415499E+03  0.79978370268E+02 0.  0.
         -6    2    1    2    0  501  0.11639105534E+03 -0.10396998530E+02 -0.54411211471E+03  0.58367560514E+03  0.17596659718E+03 0.  0.
        -24    2    5    5    0    0  0.38507977920E+02 -0.17604287649E+02 -0.45938781884E+03  0.46827190037E+03  0.80303357772E+02 0.  0.
          5    1    3    3  502    0 -0.11782777898E+03 -0.70735176066E+00 -0.25472535458E+02  0.12064338320E+03  0.47000000000E+01 0. -1.
        -13    1    4    4    0    0  0.10091486370E+02 -0.10206494274E+01  0.16436545089E+02  0.19314239225E+02  0.00000000000E+00 0.  1.
         14    1    4    4    0    0 -0.86547627221E+01  0.12124999718E+02 -0.85978906504E+02  0.87259915766E+02  0.00000000000E+00 0. -1.
         -5    1    5    5    0  501  0.77883077417E+02  0.72072891182E+01 -0.84724295865E+02  0.11540370477E+03  0.47000000000E+01 0.  1.
         13    1    6    6    0    0  0.35401197608E+02  0.27885387418E+02 -0.24047199088E+03  0.24465816566E+03  0.00000000000E+00 0. -1.
        -14    1    6    6    0    0  0.31067803117E+01 -0.45489675067E+02 -0.21891582796E+03  0.22361373471E+03  0.00000000000E+00 0.  1.
<mgrwt>
<rscale>  2 0.20880113E+03</rscale>
<asrwt>0</asrwt>
<pdfrwt beam="2">  1        2 0.11154001E+00 0.20880113E+03</pdfrwt>
<pdfrwt beam="1">  1       -2 0.13212780E-01 0.20880113E+03</pdfrwt>
<totfact> 0.16908016E+03</totfact>
</mgrwt>
</event>
<event>
12    1  0.4154313E-002  0.1717258E+03  0.7546771E-02  0.1176060E+00
          3   -1    0    0  502    0  0.00000000000E+00  0.00000000000E+00  0.29291171044E+03  0.29291171044E+03  0.00000000000E+00 0.  1.
         -3   -1    0    0    0  501 -0.00000000000E+00 -0.00000000000E+00 -0.15782314785E+03  0.15782314785E+03  0.00000000000E+00 0. -1.
          6    2    1    2  502    0 -0.14793392782E+02  0.14414991391E+02  0.20285412778E+03  0.26502832966E+03  0.16930322477E+03 0.  0.
         24    2    3    3    0    0 -0.15263728491E+02  0.57116101235E+02  0.65421028748E+02  0.12103682746E+03  0.82914245885E+02 0.  0.
         -6    2    1    2    0  501  0.14793392782E+02 -0.14414991391E+02 -0.67765565187E+02  0.18570652863E+03  0.17166276971E+03 0.  0.
        -24    2    5    5    0    0  0.17669930510E+02 -0.69994924209E+02 -0.72177531501E+02  0.12968011657E+03  0.79973875243E+02 0.  0.
          5    1    3    3  502    0  0.47033570936E+00 -0.42701109844E+02  0.13743309903E+03  0.14399150220E+03  0.47000000000E+01 0. -1.
        -13    1    4    4    0    0  0.69201165746E+01  0.12019339270E+02  0.69257820090E+02  0.70632840616E+02  0.00000000000E+00 0.  1.
         14    1    4    4    0    0 -0.22183845066E+02  0.45096761965E+02 -0.38367913418E+01  0.50403986841E+02  0.00000000000E+00 0. -1.
         -5    1    5    5    0  501 -0.28765377280E+01  0.55579932818E+02  0.44119663137E+01  0.56026412058E+02  0.47000000000E+01 0.  1.
         13    1    6    6    0    0 -0.23641841302E+02 -0.17529405041E+02 -0.52289711393E+02  0.60003588383E+02  0.00000000000E+00 0. -1.
        -14    1    6    6    0    0  0.41311771812E+02 -0.52465519168E+02 -0.19887820107E+02  0.69676528189E+02  0.00000000000E+00 0.  1.
<mgrwt>
<rscale>  2 0.17172576E+03</rscale>
<asrwt>0</asrwt>
<pdfrwt beam="1">  1        3 0.45063340E-01 0.17172576E+03</pdfrwt>
<pdfrwt beam="2">  1       -3 0.24280484E-01 0.17172576E+03</pdfrwt>
<totfact> 0.18723477E+02</totfact>
</mgrwt>
</event>
<event>
12    1  0.4154313E-002  0.1980242E+03  0.7546771E-02  0.1151417E+00
         -2   -1    0    0    0  501 -0.00000000000E+00  0.00000000000E+00  0.76310303444E+02  0.76310303444E+02  0.00000000000E+00 0.  1.
          2   -1    0    0  502    0  0.00000000000E+00 -0.00000000000E+00 -0.53171873472E+03  0.53171873472E+03  0.00000000000E+00 0. -1.
          6    2    1    2  502    0  0.37297561607E+02 -0.88652203909E+02 -0.17245217146E+03  0.26289178185E+03  0.17355695366E+03 0.  0.
         24    2    3    3    0    0 -0.22106539912E+02 -0.80310961218E+02 -0.16634087015E+03  0.20241152383E+03  0.79765846687E+02 0.  0.
         -6    2    1    2    0  501 -0.37297561607E+02  0.88652203909E+02 -0.28295625982E+03  0.34513725631E+03  0.17264170807E+03 0.  0.
        -24    2    5    5    0    0 -0.17338995583E+02 -0.78070741135E+01 -0.20181011288E+03  0.21742851019E+03  0.78652680855E+02 0.  0.
          5    1    3    3  502    0  0.59404101518E+02 -0.83412426909E+01 -0.61113013069E+01  0.60480258023E+02  0.47000000000E+01 0. -1.
        -11    1    4    4    0    0  0.18637777284E+01 -0.60063157771E+02 -0.15929502878E+03  0.17025264399E+03  0.00000000000E+00 0.  1.
         12    1    4    4    0    0 -0.23970317640E+02 -0.20247803448E+02 -0.70458413666E+01  0.32158879843E+02  0.00000000000E+00 0. -1.
         -5    1    5    5    0  501 -0.19958566024E+02  0.96459278023E+02 -0.81146146932E+02  0.12770874612E+03  0.47000000000E+01 0.  1.
         11    1    6    6    0    0 -0.27698377389E+02  0.25455008824E+02 -0.15238246214E+03  0.15695723096E+03  0.00000000000E+00 0. -1.
        -12    1    6    6    0    0  0.10359381806E+02 -0.33262082937E+02 -0.49427650745E+02  0.60471279223E+02  0.00000000000E+00 0.  1.
<mgrwt>
<rscale>  2 0.19802421E+03</rscale>
<asrwt>0</asrwt>
<pdfrwt beam="2">  1        2 0.81802883E-01 0.19802421E+03</pdfrwt>
<pdfrwt beam="1">  1       -2 0.11740047E-01 0.19802421E+03</pdfrwt>
<totfact> 0.29373279E+03</totfact>
</mgrwt>
</event>
<event>
12    1  0.4154313E-002  0.1812988E+03  0.7546771E-02  0.1166552E+00
          1   -1    0    0  502    0  0.00000000000E+00  0.00000000000E+00  0.14119345858E+03  0.14119345858E+03  0.00000000000E+00 0.  1.
         -1   -1    0    0    0  501 -0.00000000000E+00 -0.00000000000E+00 -0.24560854415E+03  0.24560854415E+03  0.00000000000E+00 0. -1.
          6    2    1    2  502    0  0.53765523446E+02 -0.14840761513E+02 -0.96489834144E+02  0.20573687161E+03  0.17293464816E+03 0.  0.
         24    2    3    3    0    0 -0.38678203444E+02 -0.21618741654E+02 -0.42800417036E+02  0.98515478385E+02  0.76876851982E+02 0.  0.
         -6    2    1    2    0  501 -0.53765523446E+02  0.14840761513E+02 -0.79252514318E+01  0.18106513112E+03  0.17207786721E+03 0.  0.
        -24    2    5    5    0    0 -0.87969516775E+02 -0.41130833962E+02 -0.19946400243E+02  0.11421207825E+03  0.56711185409E+02 0.  0.
          5    1    3    3  502    0  0.92443726890E+02  0.67779801413E+01 -0.53689417108E+02  0.10722139323E+03  0.47000000000E+01 0. -1.
        -11    1    4    4    0    0  0.97324739491E+01  0.61351166767E+01  0.14515455585E+02  0.18521856188E+02  0.00000000000E+00 0.  1.
         12    1    4    4    0    0 -0.48410677393E+02 -0.27753858331E+02 -0.57315872621E+02  0.79993622197E+02  0.00000000000E+00 0. -1.
         -5    1    5    5    0  501  0.34203993330E+02  0.55971595475E+02  0.12021148812E+02  0.66853052873E+02  0.47000000000E+01 0.  1.
         13    1    6    6    0    0 -0.19380449843E+02 -0.32566780570E+01 -0.29325547584E+02  0.35301494717E+02  0.00000000000E+00 0. -1.
        -14    1    6    6    0    0 -0.68589066932E+02 -0.37874155905E+02  0.93791473411E+01  0.78910583530E+02  0.00000000000E+00 0.  1.
<mgrwt>
<rscale>  2 0.18129876E+03</rscale>
<asrwt>0</asrwt>
<pdfrwt beam="1">  1        1 0.21722071E-01 0.18129876E+03</pdfrwt>
<pdfrwt beam="2">  1       -1 0.37785930E-01 0.18129876E+03</pdfrwt>
<totfact> 0.15496099E+03</totfact>
</mgrwt>
</event>
<event>
12    1  0.4154313E-002  0.2147693E+03  0.7546771E-02  0.1137844E+00
         -2   -1    0    0    0  501 -0.00000000000E+00  0.00000000000E+00  0.23280107139E+02  0.23280107139E+02  0.00000000000E+00 0.  1.
          2   -1    0    0  502    0  0.00000000000E+00 -0.00000000000E+00 -0.34790647822E+04  0.34790647822E+04  0.00000000000E+00 0. -1.
          6    2    1    2  502    0  0.92077303969E+02  0.86384622625E+02 -0.28756649083E+04  0.28836541637E+04  0.17341319983E+03 0.  0.
         24    2    3    3    0    0  0.10619396850E+03  0.44516895407E+02 -0.13298377226E+04  0.13371885272E+04  0.79661005754E+02 0.  0.
         -6    2    1    2    0  501 -0.92077303969E+02 -0.86384622625E+02 -0.58011976674E+03  0.61869072565E+03  0.17406532483E+03 0.  0.
        -24    2    5    5    0    0 -0.25130878636E+01 -0.52176832134E+01 -0.34606754951E+03  0.35522848689E+03  0.79943662963E+02 0.  0.
          5    1    3    3  502    0 -0.14116664533E+02  0.41867727219E+02 -0.15458271857E+04  0.15464656365E+04  0.47000000000E+01 0. -1.
        -11    1    4    4    0    0  0.73339646737E+01  0.29785764877E+02 -0.14880606152E+03  0.15193492940E+03  0.00000000000E+00 0.  1.
         12    1    4    4    0    0  0.98860003829E+02  0.14731130530E+02 -0.11810316611E+04  0.11852535978E+04  0.00000000000E+00 0. -1.
         -5    1    5    5    0  501 -0.89564216106E+02 -0.81166939412E+02 -0.23405221723E+03  0.26346223876E+03  0.47000000000E+01 0.  1.
         11    1    6    6    0    0 -0.11127842728E+02 -0.95362226608E+01 -0.34524605239E+03  0.34555694917E+03  0.00000000000E+00 0. -1.
        -12    1    6    6    0    0  0.86147548646E+01  0.43185394473E+01 -0.82149711153E+00  0.96715377184E+01  0.00000000000E+00 0.  1.
<mgrwt>
<rscale>  2 0.21476925E+03</rscale>
<asrwt>0</asrwt>
<pdfrwt beam="2">  1        2 0.53524070E+00 0.21476925E+03</pdfrwt>
<pdfrwt beam="1">  1       -2 0.35815552E-02 0.21476925E+03</pdfrwt>
<totfact> 0.34644058E+02</totfact>
</mgrwt>
</event>
<event>
12    1  0.4154313E-002  0.1743487E+03  0.7546771E-02  0.1173387E+00
          2   -1    0    0  502    0  0.00000000000E+00  0.00000000000E+00  0.35009148880E+04  0.35009148880E+04  0.00000000000E+00 0.  1.
         -2   -1    0    0    0  501 -0.00000000000E+00 -0.00000000000E+00 -0.15072409482E+02  0.15072409482E+02  0.00000000000E+00 0. -1.
          6    2    1    2  502    0  0.16125027674E+02 -0.10847508321E+02  0.28877271585E+04  0.28929874170E+04  0.17329272389E+03 0.  0.
         24    2    3    3    0    0  0.59386213982E+02  0.39743086428E+02  0.17983565098E+04  0.18015748283E+04  0.80495281746E+02 0.  0.
         -6    2    1    2    0  501 -0.16125027674E+02  0.10847508321E+02  0.59811532005E+03  0.62299988050E+03  0.17323172359E+03 0.  0.
        -24    2    5    5    0    0 -0.11163065520E+02 -0.61594665760E+02  0.35926702142E+03  0.37331389888E+03  0.79824542193E+02 0.  0.
          5    1    3    3  502    0 -0.43261186308E+02 -0.50590594749E+02  0.10893706487E+04  0.10914125887E+04  0.47000000000E+01 0. -1.
        -11    1    4    4    0    0 -0.71450611944E+01 -0.17617020771E+02  0.41166489646E+03  0.41210362568E+03  0.00000000000E+00 0.  1.
         12    1    4    4    0    0  0.66531275176E+02  0.57360107199E+02  0.13866916133E+04  0.13894712026E+04  0.00000000000E+00 0. -1.
         -5    1    5    5    0  501 -0.49619621541E+01  0.72442174080E+02  0.23884829864E+03  0.24968598162E+03  0.47000000000E+01 0.  1.
         11    1    6    6    0    0  0.22220932761E+02 -0.41631739217E+02  0.93692567414E+02  0.10490599960E+03  0.00000000000E+00 0. -1.
        -12    1    6    6    0    0 -0.33383998281E+02 -0.19962926543E+02  0.26557445400E+03  0.26840789928E+03  0.00000000000E+00 0.  1.
<mgrwt>
<rscale>  2 0.17434874E+03</rscale>
<asrwt>0</asrwt>
<pdfrwt beam="1">  1        2 0.53860164E+00 0.17434874E+03</pdfrwt>
<pdfrwt beam="2">  1       -2 0.23188350E-02 0.17434874E+03</pdfrwt>
<totfact> 0.64797221E+02</totfact>
</mgrwt>
</event>
<event>
12    1  0.4154313E-002  0.1822924E+03  0.7546771E-02  0.1165603E+00
          1   -1    0    0  502    0  0.00000000000E+00  0.00000000000E+00  0.38174451464E+03  0.38174451464E+03  0.00000000000E+00 0.  1.
         -1   -1    0    0    0  501 -0.00000000000E+00 -0.00000000000E+00 -0.94643593148E+02  0.94643593148E+02  0.00000000000E+00 0. -1.
          6    2    1    2  502    0  0.53596121355E+02  0.24939729482E+02  0.76379628925E+02  0.19803052128E+03  0.17288060999E+03 0.  0.
         24    2    3    3    0    0  0.84227673633E+02 -0.18731824821E+02  0.16954559197E+02  0.11803723679E+03  0.78741030761E+02 0.  0.
         -6    2    1    2    0  501 -0.53596121355E+02 -0.24939729482E+02  0.21072129257E+03  0.27835758651E+03  0.17200275723E+03 0.  0.
        -24    2    5    5    0    0 -0.92307722710E+02 -0.34104637286E+02  0.20106762522E+03  0.23715240592E+03  0.78289410291E+02 0.  0.
          5    1    3    3  502    0 -0.30631552278E+02  0.43671554304E+02  0.59425069728E+02  0.79993284484E+02  0.47000000000E+01 0. -1.
        -11    1    4    4    0    0  0.43834582235E+02  0.17767545759E+02  0.36970814803E+02  0.60033302668E+02  0.00000000000E+00 0.  1.
         12    1    4    4    0    0  0.40393091398E+02 -0.36499370581E+02 -0.20016255606E+02  0.58003934125E+02  0.00000000000E+00 0. -1.
         -5    1    5    5    0  501  0.38711601355E+02  0.91649078037E+01  0.96536673446E+01  0.41205180593E+02  0.47000000000E+01 0.  1.
         11    1    6    6    0    0 -0.68017805923E+02  0.77724390217E+01  0.72227119484E+02  0.99516780092E+02  0.00000000000E+00 0. -1.
        -12    1    6    6    0    0 -0.24289916787E+02 -0.41877076308E+02  0.12884050574E+03  0.13763562583E+03  0.00000000000E+00 0.  1.
<mgrwt>
<rscale>  2 0.18229239E+03</rscale>
<asrwt>0</asrwt>
<pdfrwt beam="1">  1        1 0.58729924E-01 0.18229239E+03</pdfrwt>
<pdfrwt beam="2">  1       -1 0.14560553E-01 0.18229239E+03</pdfrwt>
<totfact> 0.21421464E+03</totfact>
</mgrwt>
</event>
<event>
12    1  0.4154313E-002  0.1767635E+03  0.7546771E-02  0.1170973E+00
         -1   -1    0    0    0  501 -0.00000000000E+00  0.00000000000E+00  0.28995551973E+03  0.28995551973E+03  0.00000000000E+00 0.  1.
          1   -1    0    0  502    0  0.00000000000E+00 -0.00000000000E+00 -0.12658210722E+03  0.12658210722E+03  0.00000000000E+00 0. -1.
          6    2    1    2  502    0  0.29153603608E+02  0.12231648103E+02  0.17810898508E+01  0.17778764663E+03  0.17494493189E+03 0.  0.
         24    2    3    3    0    0 -0.42558903647E+02 -0.25181641188E+02 -0.23268094494E+01  0.96661801490E+02  0.83022373445E+02 0.  0.
         -6    2    1    2    0  501 -0.29153603608E+02 -0.12231648103E+02  0.16159232266E+03  0.23874998032E+03  0.17288703983E+03 0.  0.
        -24    2    5    5    0    0 -0.64943784462E+02 -0.44979974245E+02  0.63269575219E+02  0.12901009434E+03  0.79997950412E+02 0.  0.
          5    1    3    3  502    0  0.71712507255E+02  0.37413289291E+02  0.41078993002E+01  0.81125845136E+02  0.47000000000E+01 0. -1.
        -11    1    4    4    0    0  0.19763542847E+02 -0.16177165846E+02 -0.18633642985E+02  0.31615043438E+02  0.00000000000E+00 0.  1.
         12    1    4    4    0    0 -0.62322446494E+02 -0.90044753418E+01  0.16306833535E+02  0.65046758052E+02  0.00000000000E+00 0. -1.
         -5    1    5    5    0  501  0.35790180854E+02  0.32748326142E+02  0.98322747440E+02  0.10973988598E+03  0.47000000000E+01 0.  1.
         11    1    6    6    0    0 -0.12086189326E+02  0.10872250016E+02 -0.12915237993E+02  0.20762590524E+02  0.00000000000E+00 0. -1.
        -12    1    6    6    0    0 -0.52857595136E+02 -0.55852224262E+02  0.76184813212E+02  0.10824750382E+03  0.00000000000E+00 0.  1.
<mgrwt>
<rscale>  2 0.17676347E+03</rscale>
<asrwt>0</asrwt>
<pdfrwt beam="2">  1        1 0.19474170E-01 0.17676347E+03</pdfrwt>
<pdfrwt beam="1">  1       -1 0.44608541E-01 0.17676347E+03</pdfrwt>
<totfact> 0.13268075E+03</totfact>
</mgrwt>
</event>
<event>
12    1  0.4154313E-002  0.2209637E+03  0.7546771E-02  0.1133167E+00
         -2   -1    0    0    0  501 -0.00000000000E+00  0.00000000000E+00  0.23283476740E+03  0.23283476740E+03  0.00000000000E+00 0. -1.
          2   -1    0    0  502    0  0.00000000000E+00 -0.00000000000E+00 -0.20974067232E+03  0.20974067232E+03  0.00000000000E+00 0.  1.
          6    2    1    2  502    0  0.10064845050E+03  0.92914947621E+02  0.83856210509E+01  0.22107660738E+03  0.17332411722E+03 0.  0.
         24    2    3    3    0    0 -0.13309459498E+02  0.26598661901E+02 -0.12810286838E+02  0.87451716308E+02  0.81234652146E+02 0.  0.
         -6    2    1    2    0  501 -0.10064845050E+03 -0.92914947621E+02  0.14708474029E+02  0.22149883234E+03  0.17344190798E+03 0.  0.
        -24    2    5    5    0    0 -0.85713136183E+02 -0.57694469059E+02 -0.55376090688E+02  0.14151457180E+03  0.79274643717E+02 0.  0.
          5    1    3    3  502    0  0.11395791000E+03  0.66316285720E+02  0.21195907889E+02  0.13362489107E+03  0.47000000000E+01 0. -1.
        -11    1    4    4    0    0 -0.21198378540E+02 -0.35052870405E+01 -0.40467292523E+02  0.45817682766E+02  0.00000000000E+00 0.  1.
         12    1    4    4    0    0  0.78889190415E+01  0.30103948942E+02  0.27657005685E+02  0.41634033542E+02  0.00000000000E+00 0. -1.
         -5    1    5    5    0  501 -0.14935314315E+02 -0.35220478562E+02  0.70084564717E+02  0.79984260548E+02  0.47000000000E+01 0.  1.
         13    1    6    6    0    0 -0.13643533098E+02  0.17002714822E+02  0.36579270297E+01  0.22104722049E+02  0.00000000000E+00 0. -1.
        -14    1    6    6    0    0 -0.72069603085E+02 -0.74697183882E+02 -0.59034017718E+02  0.11940984975E+03  0.00000000000E+00 0.  1.
<mgrwt>
<rscale>  2 0.22096372E+03</rscale>
<asrwt>0</asrwt>
<pdfrwt beam="2">  1        2 0.32267796E-01 0.22096372E+03</pdfrwt>
<pdfrwt beam="1">  1       -2 0.35820733E-01 0.22096372E+03</pdfrwt>
<totfact> 0.11847612E+03</totfact>
</mgrwt>
</event>
<event>
12    1  0.4154313E-002  0.1759523E+03  0.7546771E-02  0.1171779E+00
          2   -1    0    0  502    0  0.00000000000E+00  0.00000000000E+00  0.26487329452E+03  0.26487329452E+03  0.00000000000E+00 0. -1.
         -2   -1    0    0    0  501 -0.00000000000E+00 -0.00000000000E+00 -0.16165170854E+03  0.16165170854E+03  0.00000000000E+00 0.  1.
          6    2    1    2  502    0 -0.19287319710E+02 -0.27237867361E+02 -0.60418346271E+02  0.18691428318E+03  0.17370282258E+03 0.  0.
         24    2    3    3    0    0 -0.29003707911E+02  0.48950904733E+02 -0.40034882152E+02  0.10731081088E+03  0.81703195755E+02 0.  0.
         -6    2    1    2    0  501  0.19287319710E+02  0.27237867361E+02  0.16363993225E+03  0.23961071987E+03  0.17181783240E+03 0.  0.
        -24    2    5    5    0    0 -0.22731496191E+01  0.78814715426E+02  0.13719244542E+03  0.17758987939E+03  0.80619300453E+02 0.  0.
          5    1    3    3  502    0  0.97163882013E+01 -0.76188772094E+02 -0.20383464119E+02  0.79603472301E+02  0.47000000000E+01 0. -1.
        -13    1    4    4    0    0  0.15865200963E+02  0.10393287328E+01  0.14843825228E+02  0.21751412672E+02  0.00000000000E+00 0.  1.
         14    1    4    4    0    0 -0.44868908874E+02  0.47911576000E+02 -0.54878707380E+02  0.85559398211E+02  0.00000000000E+00 0. -1.
         -5    1    5    5    0  501  0.21560469329E+02 -0.51576848065E+02  0.26447486832E+02  0.62020840479E+02  0.47000000000E+01 0.  1.
         11    1    6    6    0    0  0.35661762798E+02  0.29558705042E+02  0.35337513290E+02  0.58259919457E+02  0.00000000000E+00 0. -1.
        -12    1    6    6    0    0 -0.37934912417E+02  0.49256010384E+02  0.10185493213E+03  0.11932995994E+03  0.00000000000E+00 0.  1.
<mgrwt>
<rscale>  2 0.17595229E+03</rscale>
<asrwt>0</asrwt>
<pdfrwt beam="1">  1        2 0.40749738E-01 0.17595229E+03</pdfrwt>
<pdfrwt beam="2">  1       -2 0.24869494E-01 0.17595229E+03</pdfrwt>
<totfact> 0.17723851E+03</totfact>
</mgrwt>
</event>
<event>
12    1  0.4154313E-002  0.1935866E+03  0.7546771E-02  0.1155266E+00
          1   -1    0    0  502    0  0.00000000000E+00  0.00000000000E+00  0.90192149534E+02  0.90192149534E+02  0.00000000000E+00 0.  1.
         -1   -1    0    0    0  501 -0.00000000000E+00 -0.00000000000E+00 -0.46706219251E+03  0.46706219251E+03  0.00000000000E+00 0. -1.
          6    2    1    2  502    0  0.69080573660E+02 -0.40996141435E+02 -0.28301770752E+03  0.34426133258E+03  0.17878487931E+03 0.  0.
         24    2    3    3    0    0  0.11235969262E+03 -0.27964112625E+01 -0.20352351879E+03  0.24590627392E+03  0.80097143592E+02 0.  0.
         -6    2    1    2    0  501 -0.69080573660E+02  0.40996141435E+02 -0.93852335457E+02  0.21299300946E+03  0.17350778639E+03 0.  0.
        -24    2    5    5    0    0 -0.63688408471E+02  0.56111995009E+02 -0.12942990074E+03  0.17368120937E+03  0.78792727608E+02 0.  0.
          5    1    3    3  502    0 -0.43279118955E+02 -0.38199730173E+02 -0.79494188730E+02  0.98355058663E+02  0.47000000000E+01 0. -1.
        -13    1    4    4    0    0 -0.94317933525E+01 -0.10929979936E+02 -0.11903945738E+02  0.18711683820E+02  0.00000000000E+00 0.  1.
         14    1    4    4    0    0  0.12179148597E+03  0.81335686738E+01 -0.19161957305E+03  0.22719459010E+03  0.00000000000E+00 0. -1.
         -5    1    5    5    0  501 -0.53921651895E+01 -0.15115853574E+02  0.35577565288E+02  0.39311800092E+02  0.47000000000E+01 0.  1.
         11    1    6    6    0    0 -0.32814127237E+02  0.42384905623E+02 -0.16923779678E+02  0.56210866295E+02  0.00000000000E+00 0. -1.
        -12    1    6    6    0    0 -0.30874281233E+02  0.13727089386E+02 -0.11250612107E+03  0.11747034308E+03  0.00000000000E+00 0.  1.
<mgrwt>
<rscale>  2 0.19358661E+03</rscale>
<asrwt>0</asrwt>
<pdfrwt beam="1">  1        1 0.13875716E-01 0.19358661E+03</pdfrwt>
<pdfrwt beam="2">  1       -1 0.71855719E-01 0.19358661E+03</pdfrwt>
<totfact> 0.83732245E+02</totfact>
</mgrwt>
</event>
<event>
12    1  0.4472924E-002  0.2192344E+03  0.7546771E-02  0.1134455E+00
         -2   -1    0    0    0  501 -0.00000000000E+00  0.00000000000E+00  0.95128783184E+02  0.95128783184E+02  0.00000000000E+00 0. -1.
          2   -1    0    0  502    0  0.00000000000E+00 -0.00000000000E+00 -0.57519544633E+03  0.57519544633E+03  0.00000000000E+00 0.  1.
          6    2    1    2  502    0 -0.28454636921E+02 -0.13589579371E+03 -0.12513936863E+03  0.25420002085E+03  0.17228016691E+03 0.  0.
         24    2    3    3    0    0 -0.61381152274E+02 -0.56762174639E+02 -0.22046333468E+02  0.12004880401E+03  0.83283156768E+02 0.  0.
         -6    2    1    2    0  501  0.28454636921E+02  0.13589579371E+03 -0.35492729452E+03  0.41612420867E+03  0.16705879066E+03 0.  0.
        -24    2    5    5    0    0 -0.23054687385E+02  0.91021169418E+01 -0.18253968058E+03  0.19596647794E+03  0.66841292240E+02 0.  0.
          5    1    3    3  502    0  0.32926515353E+02 -0.79133619067E+02 -0.10309303516E+03  0.13415121684E+03  0.47000000000E+01 0. -1.
        -13    1    4    4    0    0 -0.12007227964E+02  0.56624086496E+01 -0.36783365559E+02  0.39105656585E+02  0.00000000000E+00 0.  1.
         14    1    4    4    0    0 -0.49373924311E+02 -0.62424583289E+02  0.14737032091E+02  0.80943147428E+02  0.00000000000E+00 0. -1.
         -5    1    5    5    0  501  0.51509324307E+02  0.12679367676E+03 -0.17238761395E+03  0.22015773073E+03  0.47000000000E+01 0.  1.
         13    1    6    6    0    0 -0.24118889492E+02  0.19372664779E+01 -0.15425292018E+02  0.28695181923E+02  0.00000000000E+00 0. -1.
        -14    1    6    6    0    0  0.10642021071E+01  0.71648504639E+01 -0.16711438856E+03  0.16727129602E+03  0.00000000000E+00 0.  1.
<mgrwt>
<rscale>  2 0.21923439E+03</rscale>
<asrwt>0</asrwt>
<pdfrwt beam="2">  1        2 0.88491606E-01 0.21923439E+03</pdfrwt>
<pdfrwt beam="1">  1       -2 0.14635198E-01 0.21923439E+03</pdfrwt>
<totfact> 0.18814814E+03</totfact>
</mgrwt>
</event>
<event>
12    1  0.4154313E-002  0.1883036E+03  0.7546771E-02  0.1160000E+00
          1   -1    0    0  502    0  0.00000000000E+00  0.00000000000E+00  0.13966092674E+03  0.13966092674E+03  0.00000000000E+00 0. -1.
         -1   -1    0    0    0  501 -0.00000000000E+00 -0.00000000000E+00 -0.25771675346E+03  0.25771675346E+03  0.00000000000E+00 0.  1.
          6    2    1    2  502    0  0.39538938644E+02  0.68052578866E+02 -0.83055096870E+02  0.20526807441E+03  0.17041816833E+03 0.  0.
         24    2    3    3    0    0  0.36344984108E+02  0.40077101750E+02  0.20140685718E+02  0.98196658015E+02  0.79434277674E+02 0.  0.
         -6    2    1    2    0  501 -0.39538938644E+02 -0.68052578866E+02 -0.35000729853E+02  0.19210960579E+03  0.17171653499E+03 0.  0.
        -24    2    5    5    0    0 -0.87746334916E+02 -0.52618616217E+02 -0.43502439647E+02  0.14056807567E+03  0.86016182069E+02 0.  0.
          5    1    3    3  502    0  0.31939545368E+01  0.27975477117E+02 -0.10319578259E+03  0.10707141640E+03  0.47000000000E+01 0. -1.
        -13    1    4    4    0    0 -0.18547470586E+02 -0.95491360272E+01 -0.19968499091E+01  0.20956671338E+02  0.00000000000E+00 0.  1.
         14    1    4    4    0    0  0.54892454693E+02  0.49626237777E+02  0.22137535627E+02  0.77239986677E+02  0.00000000000E+00 0. -1.
         -5    1    5    5    0  501  0.48207396272E+02 -0.15433962649E+02  0.85017097937E+01  0.51541530127E+02  0.47000000000E+01 0.  1.
         13    1    6    6    0    0 -0.81242145014E+02 -0.49104819921E+02  0.15212807294E+01  0.94941475452E+02  0.00000000000E+00 0. -1.
        -14    1    6    6    0    0 -0.65041899019E+01 -0.35137962961E+01 -0.45023720376E+02  0.45626600215E+02  0.00000000000E+00 0.  1.
<mgrwt>
<rscale>  2 0.18830360E+03</rscale>
<asrwt>0</asrwt>
<pdfrwt beam="1">  1        1 0.21486296E-01 0.18830360E+03</pdfrwt>
<pdfrwt beam="2">  1       -1 0.39648731E-01 0.18830360E+03</pdfrwt>
<totfact> 0.14454913E+03</totfact>
</mgrwt>
</event>
<event>
12    1  0.4154313E-002  0.1974762E+03  0.7546771E-02  0.1151886E+00
          2   -1    0    0  502    0  0.00000000000E+00  0.00000000000E+00  0.86590612702E+03  0.86590612702E+03  0.00000000000E+00 0.  1.
         -2   -1    0    0    0  501 -0.00000000000E+00 -0.00000000000E+00 -0.45452637363E+02  0.45452637363E+02  0.00000000000E+00 0. -1.
          6    2    1    2  502    0  0.18174582446E+02  0.98495154169E+02  0.36893874151E+03  0.41898780972E+03  0.17147413468E+03 0.  0.
         24    2    3    3    0    0 -0.35732495528E+02  0.11172206230E+03  0.28173863612E+03  0.31551379107E+03  0.80085347190E+02 0.  0.
         -6    2    1    2    0  501 -0.18174582446E+02 -0.98495154169E+02  0.45151474815E+03  0.49237095466E+03  0.16891411534E+03 0.  0.
        -24    2    5    5    0    0 -0.72715024503E+02 -0.39337226034E+02  0.26619879420E+03  0.29028579176E+03  0.81050297477E+02 0.  0.
          5    1    3    3  502    0  0.53907077974E+02 -0.13226908130E+02  0.87200105398E+02  0.10347401865E+03  0.47000000000E+01 0. -1.
        -13    1    4    4    0    0 -0.33491735794E+02  0.38682352058E+01  0.78093615275E+02  0.85060404166E+02  0.00000000000E+00 0.  1.
         14    1    4    4    0    0 -0.22407597344E+01  0.10785382709E+03  0.20364502084E+03  0.23045338691E+03  0.00000000000E+00 0. -1.
         -5    1    5    5    0  501  0.54540442057E+02 -0.59157928135E+02  0.18531595394E+03  0.20208516291E+03  0.47000000000E+01 0.  1.
         13    1    6    6    0    0 -0.34255389342E+02 -0.62202668478E+02  0.16599320124E+03  0.18054458320E+03  0.00000000000E+00 0. -1.
        -14    1    6    6    0    0 -0.38459635161E+02  0.22865442444E+02  0.10020559296E+03  0.10974120856E+03  0.00000000000E+00 0.  1.
<mgrwt>
<rscale>  2 0.19747622E+03</rscale>
<asrwt>0</asrwt>
<pdfrwt beam="1">  1        2 0.13321631E+00 0.19747622E+03</pdfrwt>
<pdfrwt beam="2">  1       -2 0.69927141E-02 0.19747622E+03</pdfrwt>
<totfact> 0.36961057E+03</totfact>
</mgrwt>
</event>
<event>
12    1  0.4154313E-002  0.2118302E+03  0.7546771E-02  0.1140125E+00
         -1   -1    0    0    0  501 -0.00000000000E+00  0.00000000000E+00  0.86354120869E+02  0.86354120869E+02  0.00000000000E+00 0. -1.
          1   -1    0    0  502    0  0.00000000000E+00 -0.00000000000E+00 -0.55613246407E+03  0.55613246407E+03  0.00000000000E+00 0.  1.
          6    2    1    2  502    0  0.12171520848E+03  0.65210625384E+01 -0.15239861117E+03  0.26080763168E+03  0.17302649458E+03 0.  0.
         24    2    3    3    0    0  0.26210209491E+02 -0.45897108113E+02 -0.84852020427E+02  0.13253642928E+03  0.87020228109E+02 0.  0.
         -6    2    1    2    0  501 -0.12171520848E+03 -0.65210625384E+01 -0.31737973203E+03  0.38167895325E+03  0.17346991907E+03 0.  0.
        -24    2    5    5    0    0 -0.10537341065E+03  0.46596291047E+02 -0.15035033474E+03  0.20558404371E+03  0.79904980197E+02 0.  0.
          5    1    3    3  502    0  0.95504998986E+02  0.52418170652E+02 -0.67546590744E+02  0.12827120241E+03  0.47000000000E+01 0. -1.
        -11    1    4    4    0    0  0.29253320522E+02 -0.20846023324E+02 -0.97789408505E+02  0.10417812566E+03  0.00000000000E+00 0.  1.
         12    1    4    4    0    0 -0.30431110305E+01 -0.25051084789E+02  0.12937388078E+02  0.28358303619E+02  0.00000000000E+00 0. -1.
         -5    1    5    5    0  501 -0.16341797825E+02 -0.53117353586E+02 -0.16702939728E+03  0.17609490954E+03  0.47000000000E+01 0.  1.
         13    1    6    6    0    0 -0.34245707540E+02  0.48971463991E+02 -0.32795876441E+02  0.68165550551E+02  0.00000000000E+00 0. -1.
        -14    1    6    6    0    0 -0.71127703111E+02 -0.23751729434E+01 -0.11755445830E+03  0.13741849316E+03  0.00000000000E+00 0.  1.
<mgrwt>
<rscale>  2 0.21183022E+03</rscale>
<asrwt>0</asrwt>
<pdfrwt beam="2">  1        1 0.85558838E-01 0.21183022E+03</pdfrwt>
<pdfrwt beam="1">  1       -1 0.13285250E-01 0.21183022E+03</pdfrwt>
<totfact> 0.15192087E+03</totfact>
</mgrwt>
</event>
<event>
12    1  0.4154313E-002  0.2959642E+03  0.7546771E-02  0.1087276E+00
         -2   -1    0    0    0  501 -0.00000000000E+00  0.00000000000E+00  0.31743480055E+03  0.31743480055E+03  0.00000000000E+00 0.  1.
          2   -1    0    0  502    0  0.00000000000E+00 -0.00000000000E+00 -0.29266687478E+03  0.29266687478E+03  0.00000000000E+00 0. -1.
          6    2    1    2  502    0  0.22555868931E+03  0.82589020898E+02 -0.60533666056E+02  0.30202383738E+03  0.17279006026E+03 0.  0.
         24    2    3    3    0    0  0.22023777006E+03  0.11439270600E+03 -0.65731122059E+02  0.26902550233E+03  0.80397599155E+02 0.  0.
         -6    2    1    2    0  501 -0.22555868931E+03 -0.82589020898E+02  0.85301591828E+02  0.30807783795E+03  0.17302578991E+03 0.  0.
        -24    2    5    5    0    0 -0.89037183816E+02  0.14027740087E+02  0.85013503587E+01  0.12397654231E+03  0.84696590796E+02 0.  0.
          5    1    3    3  502    0  0.53209192476E+01 -0.31803685097E+02  0.51974560027E+01  0.32998335054E+02  0.47000000000E+01 0. -1.
        -11    1    4    4    0    0  0.25130196725E+02 -0.10318190900E+01 -0.30626364357E+02  0.39630362499E+02  0.00000000000E+00 0.  1.
         12    1    4    4    0    0  0.19510757334E+03  0.11542452509E+03 -0.35104757702E+02  0.22939513983E+03  0.00000000000E+00 0. -1.
         -5    1    5    5    0  501 -0.13652150549E+03 -0.96616760986E+02  0.76800241469E+02  0.18410129564E+03  0.47000000000E+01 0.  1.
         11    1    6    6    0    0 -0.86834331848E+02  0.34004357328E+02  0.26553494845E+02  0.96961773876E+02  0.00000000000E+00 0. -1.
        -12    1    6    6    0    0 -0.22028519678E+01 -0.19976617241E+02 -0.18052144486E+02  0.27014768438E+02  0.00000000000E+00 0.  1.
<mgrwt>
<rscale>  2 0.29596423E+03</rscale>
<asrwt>0</asrwt>
<pdfrwt beam="2">  1        2 0.45025673E-01 0.29596423E+03</pdfrwt>
<pdfrwt beam="1">  1       -2 0.48836123E-01 0.29596423E+03</pdfrwt>
<totfact> 0.45428818E+02</totfact>
</mgrwt>
</event>
<event>
12    1  0.4154313E-002  0.2380251E+03  0.7546771E-02  0.1121115E+00
         -1   -1    0    0    0  501 -0.00000000000E+00  0.00000000000E+00  0.68066657909E+03  0.68066657909E+03  0.00000000000E+00 0.  1.
          1   -1    0    0  502    0  0.00000000000E+00 -0.00000000000E+00 -0.89005042588E+02  0.89005042588E+02  0.00000000000E+00 0. -1.
          6    2    1    2  502    0  0.72814200118E+02 -0.14466910462E+03  0.19719987832E+03  0.30866575953E+03  0.17365397067E+03 0.  0.
         24    2    3    3    0    0 -0.27232295383E+02 -0.44573802928E+02  0.78819326402E+02  0.12410028130E+03  0.80373949666E+02 0.  0.
         -6    2    1    2    0  501 -0.72814200118E+02  0.14466910462E+03  0.39446165818E+03  0.46100586214E+03  0.17520087781E+03 0.  0.
        -24    2    5    5    0    0 -0.40380367222E+02  0.16277284451E+03  0.25085947230E+03  0.31260311047E+03  0.81637349689E+02 0.  0.
          5    1    3    3  502    0  0.10004649550E+03 -0.10009530169E+03  0.11838055191E+03  0.18456547823E+03  0.47000000000E+01 0. -1.
        -11    1    4    4    0    0  0.20326715390E+02  0.91020110888E+01  0.29928093652E+02  0.37305666514E+02  0.00000000000E+00 0.  1.
         12    1    4    4    0    0 -0.47559010773E+02 -0.53675814016E+02  0.48891232750E+02  0.86794614786E+02  0.00000000000E+00 0. -1.
         -5    1    5    5    0  501 -0.32433832896E+02 -0.18103739895E+02  0.14360218588E+03  0.14840275168E+03  0.47000000000E+01 0.  1.
         13    1    6    6    0    0 -0.46156690826E+02  0.36418472168E+02  0.63439028986E+02  0.86494251958E+02  0.00000000000E+00 0. -1.
        -14    1    6    6    0    0  0.57763236041E+01  0.12635437235E+03  0.18742044331E+03  0.22610885851E+03  0.00000000000E+00 0.  1.
<mgrwt>
<rscale>  2 0.23802508E+03</rscale>
<asrwt>0</asrwt>
<pdfrwt beam="2">  1        1 0.13693084E-01 0.23802508E+03</pdfrwt>
<pdfrwt beam="1">  1       -1 0.10471793E+00 0.23802508E+03</pdfrwt>
<totfact> 0.38312074E+02</totfact>
</mgrwt>
</event>
<event>
12    1  0.4154313E-002  0.2840342E+03  0.7546771E-02  0.1093506E+00
          2   -1    0    0  502    0  0.00000000000E+00  0.00000000000E+00  0.50489456283E+03  0.50489456283E+03  0.00000000000E+00 0. -1.
         -2   -1    0    0    0  501 -0.00000000000E+00 -0.00000000000E+00 -0.15982061439E+03  0.15982061439E+03  0.00000000000E+00 0.  1.
          6    2    1    2  502    0 -0.22284544790E+03 -0.40845692122E+02  0.17795347546E+03  0.33639504072E+03  0.17368281371E+03 0.  0.
         24    2    3    3    0    0 -0.69641282705E+02  0.32648187310E+02  0.43002805806E+02  0.11935439986E+03  0.80501050097E+02 0.  0.
         -6    2    1    2    0  501  0.22284544790E+03  0.40845692122E+02  0.16712047298E+03  0.32832013651E+03  0.16892718944E+03 0.  0.
        -24    2    5    5    0    0  0.54969568459E+02  0.59484709391E+02  0.69084226362E+02  0.13296681681E+03  0.79670947866E+02 0.  0.
          5    1    3    3  502    0 -0.15320416520E+03 -0.73493879431E+02  0.13495066965E+03  0.21704064086E+03  0.47000000000E+01 0. -1.
        -13    1    4    4    0    0 -0.75035418838E+02  0.23326395007E+02  0.37675734377E+01  0.78667842183E+02  0.00000000000E+00 0.  1.
         14    1    4    4    0    0  0.53941361330E+01  0.93217923022E+01  0.39235232368E+02  0.40686557674E+02  0.00000000000E+00 0. -1.
         -5    1    5    5    0  501  0.16787587944E+03 -0.18639017269E+02  0.98036246619E+02  0.19535331969E+03  0.47000000000E+01 0.  1.
         13    1    6    6    0    0  0.37520193967E+02 -0.12062273651E+02  0.30448087805E+02  0.49803106850E+02  0.00000000000E+00 0. -1.
        -14    1    6    6    0    0  0.17449374492E+02  0.71546983042E+02  0.38636138557E+02  0.83163709965E+02  0.00000000000E+00 0.  1.
<mgrwt>
<rscale>  2 0.28403417E+03</rscale>
<asrwt>0</asrwt>
<pdfrwt beam="1">  1        2 0.77676086E-01 0.28403417E+03</pdfrwt>
<pdfrwt beam="2">  1       -2 0.24587787E-01 0.28403417E+03</pdfrwt>
<totfact> 0.90360942E+02</totfact>
</mgrwt>
</event>
<event>
12    1  0.4404768E-002  0.1745982E+03  0.7546771E-02  0.1173136E+00
          2   -1    0    0  502    0  0.00000000000E+00  0.00000000000E+00  0.15625802509E+04  0.15625802509E+04  0.00000000000E+00 0.  1.
         -2   -1    0    0    0  501 -0.00000000000E+00 -0.00000000000E+00 -0.30183840808E+02  0.30183840808E+02  0.00000000000E+00 0. -1.
          6    2    1    2  502    0 -0.61495966695E+01 -0.24868691381E+02  0.12380534976E+04  0.12502190484E+04  0.17208990898E+03 0.  0.
         24    2    3    3    0    0  0.41005425766E+02 -0.44691452932E+01  0.10844721176E+04  0.10882034075E+04  0.80034142976E+02 0.  0.
         -6    2    1    2    0  501  0.61495966695E+01  0.24868691381E+02  0.29434291247E+03  0.34254504326E+03  0.17332941814E+03 0.  0.
        -24    2    5    5    0    0 -0.47206363368E+02 -0.25573128582E+02  0.12461121031E+03  0.15755267480E+03  0.80077874301E+02 0.  0.
          5    1    3    3  502    0 -0.47155022436E+02 -0.20399546088E+02  0.15358138003E+03  0.16201564095E+03  0.47000000000E+01 0. -1.
        -11    1    4    4    0    0 -0.18797718925E+02 -0.60966602165E+01  0.55682987394E+03  0.55718043039E+03  0.00000000000E+00 0.  1.
         12    1    4    4    0    0  0.59803144691E+02  0.16275149232E+01  0.52764224362E+03  0.53102297707E+03  0.00000000000E+00 0. -1.
         -5    1    5    5    0  501  0.53355960037E+02  0.50441819964E+02  0.16973170216E+03  0.18499236847E+03  0.47000000000E+01 0.  1.
         13    1    6    6    0    0 -0.20590705360E+02 -0.53415700212E+02  0.65401314221E+02  0.86916891789E+02  0.00000000000E+00 0. -1.
        -14    1    6    6    0    0 -0.26615658008E+02  0.27842571630E+02  0.59209896090E+02  0.70635783008E+02  0.00000000000E+00 0.  1.
<mgrwt>
<rscale>  2 0.17459819E+03</rscale>
<asrwt>0</asrwt>
<pdfrwt beam="1">  1        2 0.24039690E+00 0.17459819E+03</pdfrwt>
<pdfrwt beam="2">  1       -2 0.46436690E-02 0.17459819E+03</pdfrwt>
<totfact> 0.27659802E+03</totfact>
</mgrwt>
</event>
<event>
12    1  0.4154313E-002  0.1767519E+03  0.7546771E-02  0.1170984E+00
         -4   -1    0    0    0  501 -0.00000000000E+00  0.00000000000E+00  0.21838587556E+03  0.21838587556E+03  0.00000000000E+00 0.  1.
          4   -1    0    0  502    0  0.00000000000E+00 -0.00000000000E+00 -0.18198459643E+03  0.18198459643E+03  0.00000000000E+00 0. -1.
          6    2    1    2  502    0  0.60478479263E+01  0.34377050366E+02  0.11083615350E+03  0.20915613844E+03  0.17390594949E+03 0.  0.
         24    2    3    3    0    0 -0.58228234702E+02  0.42578404961E+02  0.52102998352E+02  0.12157560105E+03  0.82839944766E+02 0.  0.
         -6    2    1    2    0  501 -0.60478479263E+01 -0.34377050366E+02 -0.74434874366E+02  0.19121433355E+03  0.17263838733E+03 0.  0.
        -24    2    5    5    0    0  0.52119976193E+02 -0.28418717919E+02 -0.81600648735E+02  0.13211749937E+03  0.85277501834E+02 0.  0.
          5    1    3    3  502    0  0.64276082629E+02 -0.82013545949E+01  0.58733155146E+02  0.87580537385E+02  0.47000000000E+01 0. -1.
        -13    1    4    4    0    0 -0.20243831392E+02  0.56466090846E+02  0.60573464370E+01  0.60290327339E+02  0.00000000000E+00 0.  1.
         14    1    4    4    0    0 -0.37984403310E+02 -0.13887685885E+02  0.46045651915E+02  0.61285273715E+02  0.00000000000E+00 0. -1.
         -5    1    5    5    0  501 -0.58167824120E+02 -0.59583324465E+01  0.71657743690E+01  0.59096834185E+02  0.47000000000E+01 0.  1.
         13    1    6    6    0    0  0.23466898288E+02  0.30416636454E+02 -0.32111677097E+02  0.50070219637E+02  0.00000000000E+00 0. -1.
        -14    1    6    6    0    0  0.28653077905E+02 -0.58835354374E+02 -0.49488971638E+02  0.82047279733E+02  0.00000000000E+00 0.  1.
<mgrwt>
<rscale>  2 0.17675189E+03</rscale>
<asrwt>0</asrwt>
<pdfrwt beam="2">  1        4 0.27997630E-01 0.17675189E+03</pdfrwt>
<pdfrwt beam="1">  1       -4 0.33597827E-01 0.17675189E+03</pdfrwt>
<totfact> 0.18092143E+02</totfact>
</mgrwt>
</event>
<event>
12    1  0.4154313E-002  0.1761976E+03  0.7546771E-02  0.1171535E+00
         -2   -1    0    0    0  501 -0.00000000000E+00  0.00000000000E+00  0.21417571627E+02  0.21417571627E+02  0.00000000000E+00 0.  1.
          2   -1    0    0  502    0  0.00000000000E+00 -0.00000000000E+00 -0.14511687321E+04  0.14511687321E+04  0.00000000000E+00 0. -1.
          6    2    1    2  502    0  0.45103003825E+00 -0.35800841238E+02 -0.69124280540E+03  0.71340856527E+03  0.17278096340E+03 0.  0.
         24    2    3    3    0    0  0.28690044840E+02  0.35490592672E+02 -0.27483772334E+03  0.28997593441E+03  0.80421188288E+02 0.  0.
         -6    2    1    2    0  501 -0.45103003825E+00  0.35800841238E+02 -0.73850835510E+03  0.75917773849E+03  0.17226242889E+03 0.  0.
        -24    2    5    5    0    0 -0.47097270318E+02  0.69628094113E+02 -0.45012651548E+03  0.46505815364E+03  0.81234118255E+02 0.  0.
          5    1    3    3  502    0 -0.28239014802E+02 -0.71291433910E+02 -0.41640508206E+03  0.42343263085E+03  0.47000000000E+01 0. -1.
        -13    1    4    4    0    0  0.25629134128E+02  0.22736874327E+02 -0.27473155930E+03  0.27685961722E+03  0.00000000000E+00 0.  1.
         14    1    4    4    0    0  0.30609107123E+01  0.12753718345E+02 -0.10616404344E+00  0.13116317197E+02  0.00000000000E+00 0. -1.
         -5    1    5    5    0  501  0.46646240280E+02 -0.33827252875E+02 -0.28838183962E+03  0.29411958485E+03  0.47000000000E+01 0.  1.
         13    1    6    6    0    0  0.14454069917E+02 -0.85652219599E+01 -0.83025532882E+02  0.84708454565E+02  0.00000000000E+00 0. -1.
        -14    1    6    6    0    0 -0.61551340235E+02  0.78193316073E+02 -0.36710098260E+03  0.38034969907E+03  0.00000000000E+00 0.  1.
<mgrwt>
<rscale>  2 0.17619755E+03</rscale>
<asrwt>0</asrwt>
<pdfrwt beam="2">  1        2 0.22325673E+00 0.17619755E+03</pdfrwt>
<pdfrwt beam="1">  1       -2 0.32950110E-02 0.17619755E+03</pdfrwt>
<totfact> 0.52871021E+03</totfact>
</mgrwt>
</event>
<event>
12    1  0.4154313E-002  0.1883798E+03  0.7546771E-02  0.1159931E+00
          2   -1    0    0  502    0  0.00000000000E+00  0.00000000000E+00  0.54714962818E+03  0.54714962818E+03  0.00000000000E+00 0.  1.
         -2   -1    0    0    0  501 -0.00000000000E+00 -0.00000000000E+00 -0.19669938459E+03  0.19669938459E+03  0.00000000000E+00 0. -1.
          6    2    1    2  502    0  0.42332306544E+02  0.59743641865E+02 -0.12940082472E+03  0.22818756335E+03  0.17310015513E+03 0.  0.
         24    2    3    3    0    0  0.39810121855E+02  0.44922114911E+02 -0.24006892626E+01  0.10021427127E+03  0.80214055176E+02 0.  0.
         -6    2    1    2    0  501 -0.42332306544E+02 -0.59743641865E+02  0.47985106832E+03  0.51566144943E+03  0.17403550137E+03 0.  0.
        -24    2    5    5    0    0 -0.75486727850E+02 -0.56995552478E+02  0.46005985561E+03  0.47666722232E+03  0.81300867165E+02 0.  0.
          5    1    3    3  502    0  0.25221846890E+01  0.14821526954E+02 -0.12700013546E+03  0.12797329207E+03  0.47000000000E+01 0. -1.
        -13    1    4    4    0    0  0.59612241788E+01 -0.17775461589E+02  0.18113005259E+02  0.26068835569E+02  0.00000000000E+00 0.  1.
         14    1    4    4    0    0  0.33848897676E+02  0.62697576500E+02 -0.20513694522E+02  0.74145435705E+02  0.00000000000E+00 0. -1.
         -5    1    5    5    0  501  0.33154421306E+02 -0.27480893863E+01  0.19791212708E+02  0.38994227110E+02  0.47000000000E+01 0.  1.
         13    1    6    6    0    0 -0.13239021162E+02  0.21049052455E+02  0.96067277677E+02  0.99233341830E+02  0.00000000000E+00 0. -1.
        -14    1    6    6    0    0 -0.62247706688E+02 -0.78044604934E+02  0.36399257793E+03  0.37743388048E+03  0.00000000000E+00 0.  1.
<mgrwt>
<rscale>  2 0.18837984E+03</rscale>
<asrwt>0</asrwt>
<pdfrwt beam="1">  1        2 0.84176865E-01 0.18837984E+03</pdfrwt>
<pdfrwt beam="2">  1       -2 0.30261444E-01 0.18837984E+03</pdfrwt>
<totfact> 0.56927417E+02</totfact>
</mgrwt>
</event>
<event>
12    1  0.4154313E-002  0.2524065E+03  0.7546771E-02  0.1111793E+00
         -3   -1    0    0    0  501 -0.00000000000E+00  0.00000000000E+00  0.74885024020E+02  0.74885024020E+02  0.00000000000E+00 0. -1.
          3   -1    0    0  502    0  0.00000000000E+00 -0.00000000000E+00 -0.88808315132E+03  0.88808315132E+03  0.00000000000E+00 0.  1.
          6    2    1    2  502    0  0.18110415653E+03 -0.33472952283E+02 -0.50474902581E+03  0.56417991723E+03  0.17207046784E+03 0.  0.
         24    2    3    3    0    0  0.57417044701E+02  0.17328015364E+02 -0.11794654058E+03  0.15489090868E+03  0.80516023348E+02 0.  0.
         -6    2    1    2    0  501 -0.18110415653E+03  0.33472952283E+02 -0.30844910149E+03  0.39878825811E+03  0.17312444238E+03 0.  0.
        -24    2    5    5    0    0 -0.31128541995E+02 -0.22273598580E+02 -0.84952568123E+02  0.12388254097E+03  0.81638506884E+02 0.  0.
          5    1    3    3  502    0  0.12368711183E+03 -0.50800967648E+02 -0.38680248523E+03  0.40928900856E+03  0.47000000000E+01 0. -1.
        -11    1    4    4    0    0  0.36107246796E+02  0.34420373129E+02 -0.11740990634E+03  0.12756794842E+03  0.00000000000E+00 0.  1.
         12    1    4    4    0    0  0.21309797905E+02 -0.17092357765E+02 -0.53663424384E+00  0.27322960254E+02  0.00000000000E+00 0. -1.
         -5    1    5    5    0  501 -0.14997561454E+03  0.55746550864E+02 -0.22349653337E+03  0.27490571714E+03  0.47000000000E+01 0.  1.
         11    1    6    6    0    0 -0.54393562607E+02 -0.14748583368E+02 -0.30247829144E+02  0.63961797444E+02  0.00000000000E+00 0. -1.
        -12    1    6    6    0    0  0.23265020611E+02 -0.75250152125E+01 -0.54704738979E+02  0.59920743526E+02  0.00000000000E+00 0.  1.
<mgrwt>
<rscale>  2 0.25240652E+03</rscale>
<asrwt>0</asrwt>
<pdfrwt beam="2">  1        3 0.13662818E+00 0.25240652E+03</pdfrwt>
<pdfrwt beam="1">  1       -3 0.11520773E-01 0.25240652E+03</pdfrwt>
<totfact> 0.62682685E+01</totfact>
</mgrwt>
</event>
<event>
12    1  0.4154313E-002  0.2154660E+03  0.7546771E-02  0.1137309E+00
          4   -1    0    0  502    0  0.00000000000E+00  0.00000000000E+00  0.29349797206E+03  0.29349797206E+03  0.00000000000E+00 0.  1.
         -4   -1    0    0    0  501 -0.00000000000E+00 -0.00000000000E+00 -0.18723420535E+03  0.18723420535E+03  0.00000000000E+00 0. -1.
          6    2    1    2  502    0  0.10575653392E+03 -0.69239407923E+02  0.14800019867E+03  0.26214657302E+03  0.17560816285E+03 0.  0.
         24    2    3    3    0    0  0.62998285098E+02 -0.10320293828E+03  0.56805267635E+02  0.15574922961E+03  0.80070929169E+02 0.  0.
         -6    2    1    2    0  501 -0.10575653392E+03  0.69239407923E+02 -0.41736431962E+02  0.21858560439E+03  0.17337588246E+03 0.  0.
        -24    2    5    5    0    0 -0.86893277905E+02  0.36138225753E+02 -0.92823787513E+02  0.15468318984E+03  0.80338163934E+02 0.  0.
          5    1    3    3  502    0  0.42758248819E+02  0.33963530359E+02  0.91194931038E+02  0.10639734340E+03  0.47000000000E+01 0. -1.
        -11    1    4    4    0    0  0.75047236292E+02 -0.51778402561E+02  0.44785152083E+02  0.10158149681E+03  0.00000000000E+00 0.  1.
         12    1    4    4    0    0 -0.12048951194E+02 -0.51424535722E+02  0.12020115552E+02  0.54167732802E+02  0.00000000000E+00 0. -1.
         -5    1    5    5    0  501 -0.18863256011E+02  0.33101182170E+02  0.51087355551E+02  0.63902414552E+02  0.47000000000E+01 0.  1.
         11    1    6    6    0    0 -0.84813104187E+02  0.58608883113E+01 -0.90617554788E+02  0.12425439183E+03  0.00000000000E+00 0. -1.
        -12    1    6    6    0    0 -0.20801737189E+01  0.30277337442E+02 -0.22062327251E+01  0.30428798006E+02  0.00000000000E+00 0.  1.
<mgrwt>
<rscale>  2 0.21546605E+03</rscale>
<asrwt>0</asrwt>
<pdfrwt beam="1">  1        4 0.45153534E-01 0.21546605E+03</pdfrwt>
<pdfrwt beam="2">  1       -4 0.28805262E-01 0.21546605E+03</pdfrwt>
<totfact> 0.98365095E+01</totfact>
</mgrwt>
</event>
<event>
12    1  0.4154313E-002  0.4661761E+03  0.7546771E-02  0.1023005E+00
          2   -1    0    0  502    0  0.00000000000E+00  0.00000000000E+00  0.75167189380E+03  0.75167189380E+03  0.00000000000E+00 0.  1.
         -2   -1    0    0    0  501 -0.00000000000E+00 -0.00000000000E+00 -0.29335627112E+03  0.29335627112E+03  0.00000000000E+00 0. -1.
          6    2    1    2  502    0  0.30055083301E+03  0.30792338561E+03  0.29068941935E+03  0.54724211865E+03  0.17270200717E+03 0.  0.
         24    2    3    3    0    0  0.25023226455E+03  0.16641288993E+03  0.21905650133E+03  0.38077727653E+03  0.81829990789E+02 0.  0.
         -6    2    1    2    0  501 -0.30055083301E+03 -0.30792338561E+03  0.16762620333E+03  0.49778604626E+03  0.18586228554E+03 0.  0.
        -24    2    5    5    0    0 -0.26849238129E+03 -0.18807335033E+03  0.16034811397E+03  0.37342031197E+03  0.79192599522E+02 0.  0.
          5    1    3    3  502    0  0.50318568459E+02  0.14151049568E+03  0.71632918020E+02  0.16646484212E+03  0.47000000000E+01 0. -1.
        -11    1    4    4    0    0  0.42865651617E+02  0.66411209318E+02  0.37019000090E+02  0.87282983332E+02  0.00000000000E+00 0.  1.
         12    1    4    4    0    0  0.20736661293E+03  0.10000168062E+03  0.18203750124E+03  0.29349429320E+03  0.00000000000E+00 0. -1.
         -5    1    5    5    0  501 -0.32058451717E+02 -0.11985003528E+03  0.72780893565E+01  0.12436573430E+03  0.47000000000E+01 0.  1.
         13    1    6    6    0    0 -0.10601672132E+03 -0.55434367655E+02  0.97881069708E+02  0.15457431263E+03  0.00000000000E+00 0. -1.
        -14    1    6    6    0    0 -0.16247565996E+03 -0.13263898268E+03  0.62467044265E+02  0.21884599934E+03  0.00000000000E+00 0.  1.
<mgrwt>
<rscale>  2 0.46617614E+03</rscale>
<asrwt>0</asrwt>
<pdfrwt beam="1">  1        2 0.11564183E+00 0.46617614E+03</pdfrwt>
<pdfrwt beam="2">  1       -2 0.45131734E-01 0.46617614E+03</pdfrwt>
<totfact> 0.17911390E+02</totfact>
</mgrwt>
</event>
<event>
12    1  0.4154313E-002  0.2324153E+03  0.7546771E-02  0.1124951E+00
          1   -1    0    0  502    0  0.00000000000E+00  0.00000000000E+00  0.70171998545E+02  0.70171998545E+02  0.00000000000E+00 0.  1.
         -1   -1    0    0    0  501 -0.00000000000E+00 -0.00000000000E+00 -0.77323009215E+03  0.77323009215E+03  0.00000000000E+00 0. -1.
          6    2    1    2  502    0 -0.14868239415E+03  0.23975715043E+02 -0.31901283573E+03  0.39276978010E+03  0.17267779694E+03 0.  0.
         24    2    3    3    0    0 -0.17364982236E+02  0.37242557727E+02 -0.17819186249E+03  0.19970785146E+03  0.80264159882E+02 0.  0.
         -6    2    1    2    0  501  0.14868239415E+03 -0.23975715043E+02 -0.38404525788E+03  0.45063231060E+03  0.18137648693E+03 0.  0.
        -24    2    5    5    0    0  0.97919444441E+02 -0.95359480320E+02 -0.20874374981E+03  0.25460877186E+03  0.50695419282E+02 0.  0.
          5    1    3    3  502    0 -0.13131741192E+03 -0.13266842684E+02 -0.14082097324E+03  0.19306192864E+03  0.47000000000E+01 0. -1.
        -11    1    4    4    0    0  0.83934771881E+01  0.56327543429E+02 -0.98004041723E+02  0.11334917204E+03  0.00000000000E+00 0.  1.
         12    1    4    4    0    0 -0.25758459424E+02 -0.19084985702E+02 -0.80187820767E+02  0.86358679417E+02  0.00000000000E+00 0. -1.
         -5    1    5    5    0  501  0.50762949713E+02  0.71383765277E+02 -0.17530150807E+03  0.19602353874E+03  0.47000000000E+01 0.  1.
         13    1    6    6    0    0  0.45097187087E+02 -0.29757422034E+02 -0.12336541660E+03  0.13467845582E+03  0.00000000000E+00 0. -1.
        -14    1    6    6    0    0  0.52822257355E+02 -0.65602058286E+02 -0.85378333211E+02  0.11993031604E+03  0.00000000000E+00 0.  1.
<mgrwt>
<rscale>  2 0.23241530E+03</rscale>
<asrwt>0</asrwt>
<pdfrwt beam="1">  1        1 0.10795692E-01 0.23241530E+03</pdfrwt>
<pdfrwt beam="2">  1       -1 0.11895847E+00 0.23241530E+03</pdfrwt>
<totfact> 0.39143434E+02</totfact>
</mgrwt>
</event>
<event>
12    1  0.4154313E-002  0.1926384E+03  0.7546771E-02  0.1156103E+00
         -2   -1    0    0    0  501 -0.00000000000E+00  0.00000000000E+00  0.85622014427E+03  0.85622014427E+03  0.00000000000E+00 0. -1.
          2   -1    0    0  502    0  0.00000000000E+00 -0.00000000000E+00 -0.50105405892E+02  0.50105405892E+02  0.00000000000E+00 0.  1.
          6    2    1    2  502    0 -0.85443488132E+02 -0.10468534178E+02  0.23855555327E+03  0.30731516310E+03  0.17356174004E+03 0.  0.
         24    2    3    3    0    0 -0.91910658359E+02 -0.98865145424E+01  0.25862306467E+03  0.28570595092E+03  0.78719048001E+02 0.  0.
         -6    2    1    2    0  501  0.85443488132E+02  0.10468534178E+02  0.56755918511E+03  0.59901038706E+03  0.17111351592E+03 0.  0.
        -24    2    5    5    0    0  0.86229232527E+02  0.47266759458E+01  0.57618044086E+03  0.58760852840E+03  0.76433371014E+02 0.  0.
          5    1    3    3  502    0  0.64671702263E+01 -0.58201963520E+00 -0.20067511401E+02  0.21609212188E+02  0.47000000000E+01 0. -1.
        -11    1    4    4    0    0 -0.62205483373E+02 -0.43271793850E+02  0.17943196153E+03  0.19477627968E+03  0.00000000000E+00 0.  1.
         12    1    4    4    0    0 -0.29705174985E+02  0.33385279308E+02  0.79191103139E+02  0.90929671240E+02  0.00000000000E+00 0. -1.
         -5    1    5    5    0  501 -0.78574439475E+00  0.57418582317E+01 -0.86212557535E+01  0.11401858663E+02  0.47000000000E+01 0.  1.
         13    1    6    6    0    0  0.58669810156E+02  0.35338890205E+02  0.26474301436E+03  0.27345904161E+03  0.00000000000E+00 0. -1.
        -14    1    6    6    0    0  0.27559422371E+02 -0.30612214259E+02  0.31143742650E+03  0.31414948679E+03  0.00000000000E+00 0.  1.
<mgrwt>
<rscale>  2 0.19263836E+03</rscale>
<asrwt>0</asrwt>
<pdfrwt beam="2">  1        2 0.77085246E-02 0.19263836E+03</pdfrwt>
<pdfrwt beam="1">  1       -2 0.13172617E+00 0.19263836E+03</pdfrwt>
<totfact> 0.39130831E+02</totfact>
</mgrwt>
</event>
<event>
12    1  0.4154313E-002  0.2205392E+03  0.7546771E-02  0.1133482E+00
         -2   -1    0    0    0  501 -0.00000000000E+00  0.00000000000E+00  0.10408205572E+03  0.10408205572E+03  0.00000000000E+00 0.  1.
          2   -1    0    0  502    0  0.00000000000E+00 -0.00000000000E+00 -0.48150954767E+03  0.48150954767E+03  0.00000000000E+00 0. -1.
          6    2    1    2  502    0 -0.10328689502E+03 -0.96411935344E+02 -0.23691465539E+03  0.32205195619E+03  0.16620909899E+03 0.  0.
         24    2    3    3    0    0 -0.25677208600E+02 -0.40937174411E+01 -0.15108326301E+03  0.17394714634E+03  0.82191117487E+02 0.  0.
         -6    2    1    2    0  501  0.10328689502E+03  0.96411935344E+02 -0.14051283655E+03  0.26353964720E+03  0.17246983635E+03 0.  0.
        -24    2    5    5    0    0  0.44713326288E+02  0.10951254276E+03 -0.43506957484E+02  0.14936995138E+03  0.80163884994E+02 0.  0.
          5    1    3    3  502    0 -0.77609686424E+02 -0.92318217903E+02 -0.85831392379E+02  0.14810480985E+03  0.47000000000E+01 0. -1.
        -11    1    4    4    0    0 -0.56766646287E+01  0.38462932421E+02 -0.61165276380E+02  0.72476290788E+02  0.00000000000E+00 0.  1.
         12    1    4    4    0    0 -0.20000543971E+02 -0.42556649862E+02 -0.89917986632E+02  0.10147085555E+03  0.00000000000E+00 0. -1.
         -5    1    5    5    0  501  0.58573568735E+02 -0.13100607414E+02 -0.97005879068E+02  0.11416969582E+03  0.47000000000E+01 0.  1.
         11    1    6    6    0    0 -0.85483685448E+01  0.18648736689E+01  0.13764855711E+02  0.16310230266E+02  0.00000000000E+00 0. -1.
        -12    1    6    6    0    0  0.53261694833E+02  0.10764766909E+03 -0.57271813196E+02  0.13305972112E+03  0.00000000000E+00 0.  1.
<mgrwt>
<rscale>  2 0.22053921E+03</rscale>
<asrwt>0</asrwt>
<pdfrwt beam="2">  1        2 0.74078392E-01 0.22053921E+03</pdfrwt>
<pdfrwt beam="1">  1       -2 0.16012624E-01 0.22053921E+03</pdfrwt>
<totfact> 0.19814127E+03</totfact>
</mgrwt>
</event>
<event>
12    1  0.4154313E-002  0.1728277E+03  0.7546771E-02  0.1174931E+00
          1   -1    0    0  502    0  0.00000000000E+00  0.00000000000E+00  0.40582007017E+02  0.40582007017E+02  0.00000000000E+00 0. -1.
         -1   -1    0    0    0  501 -0.00000000000E+00 -0.00000000000E+00 -0.88971849303E+03  0.88971849303E+03  0.00000000000E+00 0.  1.
          6    2    1    2  502    0 -0.42446022159E+01  0.15057106248E+02 -0.61849438284E+03  0.64226712368E+03  0.17241526457E+03 0.  0.
         24    2    3    3    0    0 -0.37979858521E+02  0.39412417145E+02 -0.57037583583E+03  0.57848050084E+03  0.79468783011E+02 0.  0.
         -6    2    1    2    0  501  0.42446022159E+01 -0.15057106248E+02 -0.23064210317E+03  0.28803337637E+03  0.17182174790E+03 0.  0.
        -24    2    5    5    0    0  0.64902695128E+02 -0.24389310634E+02 -0.11049382783E+03  0.15303636773E+03  0.80025280696E+02 0.  0.
          5    1    3    3  502    0  0.33735256305E+02 -0.24355310897E+02 -0.48118547005E+02  0.63786622835E+02  0.47000000000E+01 0. -1.
        -11    1    4    4    0    0 -0.84687301019E+01 -0.24551915427E+02 -0.16422044295E+03  0.16626145020E+03  0.00000000000E+00 0.  1.
         12    1    4    4    0    0 -0.29511128419E+02  0.63964332573E+02 -0.40615539288E+03  0.41221905064E+03  0.00000000000E+00 0. -1.
         -5    1    5    5    0  501 -0.60658092912E+02  0.93322043863E+01 -0.12014827534E+03  0.13499700864E+03  0.47000000000E+01 0.  1.
         11    1    6    6    0    0  0.27677512769E+02  0.25917737665E+02 -0.19607236702E+02  0.42687440423E+02  0.00000000000E+00 0. -1.
        -12    1    6    6    0    0  0.37225182359E+02 -0.50307048299E+02 -0.90886591132E+02  0.11034892731E+03  0.00000000000E+00 0.  1.
<mgrwt>
<rscale>  2 0.17282774E+03</rscale>
<asrwt>0</asrwt>
<pdfrwt beam="1">  1        1 0.62433864E-02 0.17282774E+03</pdfrwt>
<pdfrwt beam="2">  1       -1 0.13687975E+00 0.17282774E+03</pdfrwt>
<totfact> 0.58317515E+02</totfact>
</mgrwt>
</event>
<event>
12    1  0.4154313E-002  0.3608346E+03  0.7546771E-02  0.1058254E+00
         -1   -1    0    0    0  501 -0.00000000000E+00  0.00000000000E+00  0.13176412014E+04  0.13176412014E+04  0.00000000000E+00 0. -1.
          1   -1    0    0  502    0  0.00000000000E+00 -0.00000000000E+00 -0.10483041121E+03  0.10483041121E+03  0.00000000000E+00 0.  1.
          6    2    1    2  502    0  0.28452310342E+03  0.13812823131E+03  0.43616955025E+03  0.56613921936E+03  0.17388770647E+03 0.  0.
         24    2    3    3    0    0  0.26264654302E+03  0.14062136671E+03  0.30256125392E+03  0.43064727690E+03  0.71806611108E+02 0.  0.
         -6    2    1    2    0  501 -0.28452310342E+03 -0.13812823131E+03  0.77664123992E+03  0.85633239325E+03  0.17349567003E+03 0.  0.
        -24    2    5    5    0    0 -0.20958234852E+03 -0.33860758808E+02  0.42599188071E+03  0.48288241577E+03  0.81455713288E+02 0.  0.
          5    1    3    3  502    0  0.21876560397E+02 -0.24931353943E+01  0.13360829634E+03  0.13549194245E+03  0.47000000000E+01 0. -1.
        -13    1    4    4    0    0  0.10319337761E+03  0.45974535350E+02  0.68800341106E+02  0.13227251423E+03  0.00000000000E+00 0.  1.
         14    1    4    4    0    0  0.15945316541E+03  0.94646831358E+02  0.23376091281E+03  0.29837476268E+03  0.00000000000E+00 0. -1.
         -5    1    5    5    0  501 -0.74940754895E+02 -0.10426747251E+03  0.35064935921E+03  0.37344997748E+03  0.47000000000E+01 0.  1.
         13    1    6    6    0    0 -0.11604353937E+03 -0.45994005847E+02  0.30436461344E+03  0.32896712528E+03  0.00000000000E+00 0. -1.
        -14    1    6    6    0    0 -0.93538809150E+02  0.12133247039E+02  0.12162726728E+03  0.15391529049E+03  0.00000000000E+00 0.  1.
<mgrwt>
<rscale>  2 0.36083463E+03</rscale>
<asrwt>0</asrwt>
<pdfrwt beam="2">  1        1 0.16127756E-01 0.36083463E+03</pdfrwt>
<pdfrwt beam="1">  1       -1 0.20271402E+00 0.36083463E+03</pdfrwt>
<totfact> 0.53659614E+01</totfact>
</mgrwt>
</event>
<event>
12    1  0.4154313E-002  0.2494063E+03  0.7546771E-02  0.1113681E+00
         -1   -1    0    0    0  501 -0.00000000000E+00  0.00000000000E+00  0.54390206805E+02  0.54390206805E+02  0.00000000000E+00 0. -1.
          1   -1    0    0  502    0  0.00000000000E+00 -0.00000000000E+00 -0.15698738086E+04  0.15698738086E+04  0.00000000000E+00 0.  1.
          6    2    1    2  502    0  0.16541697209E+03  0.68739848331E+02 -0.11814004779E+04  0.12074856718E+04  0.17385803732E+03 0.  0.
         24    2    3    3    0    0  0.15058461675E+03  0.58062535968E+02 -0.11731210132E+04  0.11868787968E+04  0.80133524246E+02 0.  0.
         -6    2    1    2    0  501 -0.16541697209E+03 -0.68739848331E+02 -0.33408312399E+03  0.41677834365E+03  0.17321868431E+03 0.  0.
        -24    2    5    5    0    0 -0.86236378823E+01 -0.25173781419E+02 -0.14056164307E+03  0.16388547025E+03  0.79954896382E+02 0.  0.
          5    1    3    3  502    0  0.14832355340E+02  0.10677312363E+02 -0.82794646577E+01  0.20606875048E+02  0.47000000000E+01 0. -1.
        -13    1    4    4    0    0  0.76311097477E+02  0.69963967910E+02 -0.75190463248E+03  0.75899862763E+03  0.00000000000E+00 0.  1.
         14    1    4    4    0    0  0.74273519273E+02 -0.11901431941E+02 -0.42121638071E+03  0.42788016912E+03  0.00000000000E+00 0. -1.
         -5    1    5    5    0  501 -0.15679333421E+03 -0.43566066912E+02 -0.19352148092E+03  0.25289287340E+03  0.47000000000E+01 0.  1.
         13    1    6    6    0    0 -0.30700187568E+01  0.10596541934E+02  0.62481353216E+01  0.12678758264E+02  0.00000000000E+00 0. -1.
        -14    1    6    6    0    0 -0.55536191255E+01 -0.35770323353E+02 -0.14680977839E+03  0.15120671199E+03  0.00000000000E+00 0.  1.
<mgrwt>
<rscale>  2 0.24940631E+03</rscale>
<asrwt>0</asrwt>
<pdfrwt beam="2">  1        1 0.24151906E+00 0.24940631E+03</pdfrwt>
<pdfrwt beam="1">  1       -1 0.83677236E-02 0.24940631E+03</pdfrwt>
<totfact> 0.51924639E+02</totfact>
</mgrwt>
</event>
<event>
12    1  0.4154313E-002  0.1821544E+03  0.7546771E-02  0.1165734E+00
         -1   -1    0    0    0  501 -0.00000000000E+00  0.00000000000E+00  0.16525922479E+03  0.16525922479E+03  0.00000000000E+00 0. -1.
          1   -1    0    0  502    0  0.00000000000E+00 -0.00000000000E+00 -0.20082805562E+03  0.20082805562E+03  0.00000000000E+00 0.  1.
          6    2    1    2  502    0  0.50246392583E+02 -0.27619122247E+02 -0.14989620085E+02  0.18338737633E+03  0.17354747249E+03 0.  0.
         24    2    3    3    0    0  0.13629615053E+02  0.20449784513E+02 -0.62907481470E+02  0.10612406270E+03  0.81859668737E+02 0.  0.
         -6    2    1    2    0  501 -0.50246392583E+02  0.27619122247E+02 -0.20579210748E+02  0.18269990408E+03  0.17224469557E+03 0.  0.
        -24    2    5    5    0    0 -0.41787553835E+02  0.83078542434E+02 -0.24964593226E+02  0.12623202985E+03  0.81627511149E+02 0.  0.
          5    1    3    3  502    0  0.36616777530E+02 -0.48068906760E+02  0.47917861385E+02  0.77263313633E+02  0.47000000000E+01 0. -1.
        -11    1    4    4    0    0 -0.14827617819E+02 -0.26545789451E+02 -0.19712725966E+02  0.36237118439E+02  0.00000000000E+00 0.  1.
         12    1    4    4    0    0  0.28457232871E+02  0.46995573964E+02 -0.43194755504E+02  0.69886944260E+02  0.00000000000E+00 0. -1.
         -5    1    5    5    0  501 -0.84588387478E+01 -0.55459420187E+02  0.43853824779E+01  0.56467874228E+02  0.47000000000E+01 0.  1.
         11    1    6    6    0    0 -0.23474139870E+02  0.59250430622E+02  0.24562239272E+02  0.68300456585E+02  0.00000000000E+00 0. -1.
        -12    1    6    6    0    0 -0.18313413965E+02  0.23828111811E+02 -0.49526832499E+02  0.57931573264E+02  0.00000000000E+00 0.  1.
<mgrwt>
<rscale>  2 0.18215442E+03</rscale>
<asrwt>0</asrwt>
<pdfrwt beam="2">  1        1 0.30896624E-01 0.18215442E+03</pdfrwt>
<pdfrwt beam="1">  1       -1 0.25424496E-01 0.18215442E+03</pdfrwt>
<totfact> 0.19478876E+03</totfact>
</mgrwt>
</event>
<event>
12    1  0.4154313E-002  0.2317529E+03  0.7546771E-02  0.1125412E+00
          2   -1    0    0  502    0  0.00000000000E+00  0.00000000000E+00  0.36847665804E+03  0.36847665804E+03  0.00000000000E+00 0. -1.
         -2   -1    0    0    0  501 -0.00000000000E+00 -0.00000000000E+00 -0.14732725871E+03  0.14732725871E+03  0.00000000000E+00 0.  1.
          6    2    1    2  502    0 -0.13414429281E+03 -0.74023697271E+02  0.13797734868E+03  0.27134838125E+03  0.17640293706E+03 0.  0.
         24    2    3    3    0    0 -0.51153580556E+02 -0.97444184183E+02  0.41931788286E+02  0.14218640077E+03  0.79665801079E+02 0.  0.
         -6    2    1    2    0  501  0.13414429281E+03  0.74023697271E+02  0.83172050639E+02  0.24445553550E+03  0.17136720742E+03 0.  0.
        -24    2    5    5    0    0  0.97016158919E+02  0.35801660944E+02  0.12107116452E+03  0.17889750609E+03  0.81561000419E+02 0.  0.
          5    1    3    3  502    0 -0.82990712253E+02  0.23420486912E+02  0.96045560399E+02  0.12916198047E+03  0.47000000000E+01 0. -1.
        -13    1    4    4    0    0 -0.56008577147E+02 -0.36514100877E+02 -0.20382457656E+01  0.66890916593E+02  0.00000000000E+00 0.  1.
         14    1    4    4    0    0  0.48549965905E+01 -0.60930083307E+02  0.43970034052E+02  0.75295484182E+02  0.00000000000E+00 0. -1.
         -5    1    5    5    0  501  0.37128133890E+02  0.38222036327E+02 -0.37899113881E+02  0.65558029410E+02  0.47000000000E+01 0.  1.
         13    1    6    6    0    0  0.10753364231E+03  0.19709494312E+02  0.11515173730E+03  0.15878246439E+03  0.00000000000E+00 0. -1.
        -14    1    6    6    0    0 -0.10517483394E+02  0.16092166632E+02  0.59194272157E+01  0.20115041696E+02  0.00000000000E+00 0.  1.
<mgrwt>
<rscale>  2 0.23175293E+03</rscale>
<asrwt>0</asrwt>
<pdfrwt beam="1">  1        2 0.56688716E-01 0.23175293E+03</pdfrwt>
<pdfrwt beam="2">  1       -2 0.22665732E-01 0.23175293E+03</pdfrwt>
<totfact> 0.14718938E+03</totfact>
</mgrwt>
</event>
<event>
12    1  0.4154313E-002  0.2465022E+03  0.7546771E-02  0.1115535E+00
          2   -1    0    0  502    0  0.00000000000E+00  0.00000000000E+00  0.34535159838E+03  0.34535159838E+03  0.00000000000E+00 0.  1.
         -2   -1    0    0    0  501 -0.00000000000E+00 -0.00000000000E+00 -0.18958770509E+03  0.18958770509E+03  0.00000000000E+00 0. -1.
          6    2    1    2  502    0  0.91096480172E+02  0.14267471541E+03  0.14887973710E+03  0.28593755158E+03  0.17589901696E+03 0.  0.
         24    2    3    3    0    0  0.12029657791E+03  0.61530308831E+02  0.99586005453E+02  0.18649398765E+03  0.81273546651E+02 0.  0.
         -6    2    1    2    0  501 -0.91096480172E+02 -0.14267471541E+03  0.68841561969E+01  0.24900175189E+03  0.18248243127E+03 0.  0.
        -24    2    5    5    0    0 -0.11951084765E+03 -0.15882523174E+03  0.23476771757E+02  0.21204745109E+03  0.70033318931E+02 0.  0.
          5    1    3    3  502    0 -0.29200097741E+02  0.81144406580E+02  0.49293731648E+02  0.99443563930E+02  0.47000000000E+01 0. -1.
        -13    1    4    4    0    0  0.98069300368E+02  0.45972080197E+02  0.11274419042E+03  0.15634024531E+03  0.00000000000E+00 0.  1.
         14    1    4    4    0    0  0.22227277545E+02  0.15558228634E+02 -0.13158184964E+02  0.30153742335E+02  0.00000000000E+00 0. -1.
         -5    1    5    5    0  501  0.28414367476E+02  0.16150516325E+02 -0.16592615560E+02  0.36954300801E+02  0.47000000000E+01 0.  1.
         11    1    6    6    0    0 -0.86823964534E+02 -0.63998439335E+02 -0.43729892648E+01  0.10795056317E+03  0.00000000000E+00 0. -1.
        -12    1    6    6    0    0 -0.32686883113E+02 -0.94826792401E+02  0.27849761022E+02  0.10409688792E+03  0.00000000000E+00 0.  1.
<mgrwt>
<rscale>  2 0.24650222E+03</rscale>
<asrwt>0</asrwt>
<pdfrwt beam="1">  1        2 0.53131015E-01 0.24650222E+03</pdfrwt>
<pdfrwt beam="2">  1       -2 0.29167339E-01 0.24650222E+03</pdfrwt>
<totfact> 0.10099566E+03</totfact>
</mgrwt>
</event>
<event>
12    1  0.4154313E-002  0.1947007E+03  0.7546771E-02  0.1154289E+00
          2   -1    0    0  502    0  0.00000000000E+00  0.00000000000E+00  0.36492904518E+03  0.36492904518E+03  0.00000000000E+00 0. -1.
         -2   -1    0    0    0  501 -0.00000000000E+00 -0.00000000000E+00 -0.12270341257E+03  0.12270341257E+03  0.00000000000E+00 0.  1.
          6    2    1    2  502    0  0.66676039105E+02  0.48793182178E+02  0.29659647789E+02  0.20393594115E+03  0.18407526876E+03 0.  0.
         24    2    3    3    0    0  0.48523785865E+02 -0.42871248415E+02 -0.10505757270E+02  0.10211638558E+03  0.78261635124E+02 0.  0.
         -6    2    1    2    0  501 -0.66676039105E+02 -0.48793182178E+02  0.21256598482E+03  0.28369651660E+03  0.16873928650E+03 0.  0.
        -24    2    5    5    0    0  0.22389292584E+02 -0.17261255169E+02  0.62616832055E+02  0.10640090428E+03  0.81246867161E+02 0.  0.
          5    1    3    3  502    0  0.18152253240E+02  0.91664430593E+02  0.40165405058E+02  0.10181955557E+03  0.47000000000E+01 0. -1.
        -13    1    4    4    0    0  0.64676693165E+02 -0.24045348501E+02 -0.24994399579E+02  0.73389191531E+02  0.00000000000E+00 0.  1.
         14    1    4    4    0    0 -0.16152907300E+02 -0.18825899914E+02  0.14488642309E+02  0.28727194046E+02  0.00000000000E+00 0. -1.
         -5    1    5    5    0  501 -0.89065331689E+02 -0.31531927008E+02  0.14994915277E+03  0.17729561231E+03  0.47000000000E+01 0.  1.
         13    1    6    6    0    0  0.10010224091E+02  0.32511106965E+02  0.18351286708E+02  0.38651602635E+02  0.00000000000E+00 0. -1.
        -14    1    6    6    0    0  0.12379068493E+02 -0.49772362134E+02  0.44265545346E+02  0.67749301649E+02  0.00000000000E+00 0.  1.
<mgrwt>
<rscale>  2 0.19470075E+03</rscale>
<asrwt>0</asrwt>
<pdfrwt beam="1">  1        2 0.56142929E-01 0.19470075E+03</pdfrwt>
<pdfrwt beam="2">  1       -2 0.18877448E-01 0.19470075E+03</pdfrwt>
<totfact> 0.20277909E+03</totfact>
</mgrwt>
</event>
<event>
12    1  0.4154313E-002  0.2283638E+03  0.7546771E-02  0.1127797E+00
          2   -1    0    0  502    0  0.00000000000E+00  0.00000000000E+00  0.85468004920E+03  0.85468004920E+03  0.00000000000E+00 0. -1.
         -2   -1    0    0    0  501 -0.00000000000E+00 -0.00000000000E+00 -0.61604450035E+02  0.61604450035E+02  0.00000000000E+00 0.  1.
          6    2    1    2  502    0 -0.14058070311E+02  0.14838478363E+03  0.44123927087E+03  0.49682263057E+03  0.17298831964E+03 0.  0.
         24    2    3    3    0    0 -0.54762318354E+02  0.28193267853E+02  0.20699870995E+03  0.23037645091E+03  0.80193960802E+02 0.  0.
         -6    2    1    2    0  501  0.14058070311E+02 -0.14838478363E+03  0.35183632829E+03  0.41946186866E+03  0.17304272306E+03 0.  0.
        -24    2    5    5    0    0  0.47768974516E+02 -0.39421971538E+02  0.99854770547E+02  0.14282832962E+03  0.81197227631E+02 0.  0.
          5    1    3    3  502    0  0.40704248043E+02  0.12019151578E+03  0.23424056093E+03  0.26644617966E+03  0.47000000000E+01 0. -1.
        -11    1    4    4    0    0  0.61109378044E+01 -0.77145804680E+01 -0.17430734715E+01  0.99948295520E+01  0.00000000000E+00 0.  1.
         12    1    4    4    0    0 -0.60873256158E+02  0.35907848321E+02  0.20874178342E+03  0.22038162136E+03  0.00000000000E+00 0. -1.
         -5    1    5    5    0  501 -0.33710904205E+02 -0.10896281209E+03  0.25198155774E+03  0.27663353904E+03  0.47000000000E+01 0.  1.
         13    1    6    6    0    0  0.43278749836E+02 -0.19557082103E+02  0.11019065457E+03  0.11998962457E+03  0.00000000000E+00 0. -1.
        -14    1    6    6    0    0  0.44902246793E+01 -0.19864889435E+02 -0.10335884028E+02  0.22838705055E+02  0.00000000000E+00 0.  1.
<mgrwt>
<rscale>  2 0.22836384E+03</rscale>
<asrwt>0</asrwt>
<pdfrwt beam="1">  1        2 0.13148923E+00 0.22836384E+03</pdfrwt>
<pdfrwt beam="2">  1       -2 0.94776083E-02 0.22836384E+03</pdfrwt>
<totfact> 0.23444039E+03</totfact>
</mgrwt>
</event>
<event>
12    1  0.4154313E-002  0.1754416E+03  0.7546771E-02  0.1172289E+00
         -2   -1    0    0    0  501 -0.00000000000E+00  0.00000000000E+00  0.24436342205E+02  0.24436342205E+02  0.00000000000E+00 0. -1.
          2   -1    0    0  502    0  0.00000000000E+00 -0.00000000000E+00 -0.15723875089E+04  0.15723875089E+04  0.00000000000E+00 0.  1.
          6    2    1    2  502    0 -0.19731879181E+02 -0.21686242842E+02 -0.41926889831E+03  0.45464817985E+03  0.17337507942E+03 0.  0.
         24    2    3    3    0    0  0.34923089804E+02  0.36440731061E+02 -0.25530849943E+03  0.27224474477E+03  0.79920098152E+02 0.  0.
         -6    2    1    2    0  501  0.19731879181E+02  0.21686242842E+02 -0.11286822684E+04  0.11421756712E+04  0.17257450814E+03 0.  0.
        -24    2    5    5    0    0 -0.41692722333E+02  0.21077669089E+02 -0.39691351441E+03  0.40781816205E+03  0.81195838238E+02 0.  0.
          5    1    3    3  502    0 -0.54654968984E+02 -0.58126973904E+02 -0.16396039888E+03  0.18240343509E+03  0.47000000000E+01 0. -1.
        -13    1    4    4    0    0 -0.23017948494E+02  0.13080363722E+02 -0.39316729217E+02  0.47399652575E+02  0.00000000000E+00 0.  1.
         14    1    4    4    0    0  0.57941038298E+02  0.23360367340E+02 -0.21599177022E+03  0.22484509219E+03  0.00000000000E+00 0. -1.
         -5    1    5    5    0  501  0.61424601513E+02  0.60857375354E+00 -0.73176875396E+03  0.73435750919E+03  0.47000000000E+01 0.  1.
         11    1    6    6    0    0 -0.19463138198E+02 -0.31253888396E+02 -0.15525003360E+03  0.15955623529E+03  0.00000000000E+00 0. -1.
        -12    1    6    6    0    0 -0.22229584135E+02  0.52331557485E+02 -0.24166348081E+03  0.24826192675E+03  0.00000000000E+00 0.  1.
<mgrwt>
<rscale>  2 0.17544164E+03</rscale>
<asrwt>0</asrwt>
<pdfrwt beam="2">  1        2 0.24190575E+00 0.17544164E+03</pdfrwt>
<pdfrwt beam="1">  1       -2 0.37594376E-02 0.17544164E+03</pdfrwt>
<totfact> 0.37514072E+03</totfact>
</mgrwt>
</event>
<event>
12    1  0.4154313E-002  0.2107425E+03  0.7546771E-02  0.1140979E+00
         -2   -1    0    0    0  501 -0.00000000000E+00  0.00000000000E+00  0.33460473748E+02  0.33460473748E+02  0.00000000000E+00 0. -1.
          2   -1    0    0  502    0  0.00000000000E+00 -0.00000000000E+00 -0.17535438824E+04  0.17535438824E+04  0.00000000000E+00 0.  1.
          6    2    1    2  502    0  0.57404447414E+02 -0.10672459168E+03 -0.42035727505E+03  0.47034670768E+03  0.17274367624E+03 0.  0.
         24    2    3    3    0    0  0.86524346094E+02 -0.12792513154E+03 -0.36090312715E+03  0.40067377827E+03  0.80231587662E+02 0.  0.
         -6    2    1    2    0  501 -0.57404447414E+02  0.10672459168E+03 -0.12997261336E+04  0.13166576485E+04  0.17208698923E+03 0.  0.
        -24    2    5    5    0    0 -0.76009695180E+02  0.16206997506E+02 -0.87816177920E+03  0.88505808290E+03  0.78227611063E+02 0.  0.
          5    1    3    3  502    0 -0.29119898680E+02  0.21200539863E+02 -0.59454147898E+02  0.69672929405E+02  0.47000000000E+01 0. -1.
        -11    1    4    4    0    0 -0.10163289893E+02  0.33749343485E+01 -0.28098199781E+02  0.30069776757E+02  0.00000000000E+00 0.  1.
         12    1    4    4    0    0  0.96687635987E+02 -0.13130006589E+03 -0.33280492737E+03  0.37060400151E+03  0.00000000000E+00 0. -1.
         -5    1    5    5    0  501  0.18605247766E+02  0.90517594172E+02 -0.42156435441E+03  0.43159956558E+03  0.47000000000E+01 0.  1.
         13    1    6    6    0    0 -0.90601045425E+02  0.12694790341E+02 -0.65045178959E+03  0.65685404597E+03  0.00000000000E+00 0. -1.
        -14    1    6    6    0    0  0.14591350245E+02  0.35122071645E+01 -0.22770998962E+03  0.22820403693E+03  0.00000000000E+00 0.  1.
<mgrwt>
<rscale>  2 0.21074254E+03</rscale>
<asrwt>0</asrwt>
<pdfrwt beam="2">  1        2 0.26977605E+00 0.21074254E+03</pdfrwt>
<pdfrwt beam="1">  1       -2 0.51477639E-02 0.21074254E+03</pdfrwt>
<totfact> 0.18806251E+03</totfact>
</mgrwt>
</event>
<event>
12    1  0.4154313E-002  0.1793511E+03  0.7546771E-02  0.1168433E+00
          2   -1    0    0  502    0  0.00000000000E+00  0.00000000000E+00  0.12043253770E+04  0.12043253770E+04  0.00000000000E+00 0.  1.
         -2   -1    0    0    0  501 -0.00000000000E+00 -0.00000000000E+00 -0.27117011452E+02  0.27117011452E+02  0.00000000000E+00 0. -1.
          6    2    1    2  502    0  0.58415527248E+00 -0.47465612280E+02  0.66310592422E+03  0.68685340526E+03  0.17264069042E+03 0.  0.
         24    2    3    3    0    0 -0.14071770527E+02  0.31626435076E+02  0.26044148184E+03  0.27620624372E+03  0.85216650295E+02 0.  0.
         -6    2    1    2    0  501 -0.58415527248E+00  0.47465612280E+02  0.51410244137E+03  0.54458898324E+03  0.17327006336E+03 0.  0.
        -24    2    5    5    0    0 -0.79435475429E+01  0.76006728631E+01  0.49157664238E+03  0.49797486875E+03  0.78806753514E+02 0.  0.
          5    1    3    3  502    0  0.14655925800E+02 -0.79092047356E+02  0.40266444238E+03  0.41064716153E+03  0.47000000000E+01 0. -1.
        -13    1    4    4    0    0  0.44979414250E+00 -0.28132626481E+02  0.55319126358E+02  0.62063296146E+02  0.00000000000E+00 0.  1.
         14    1    4    4    0    0 -0.14521564670E+02  0.59759061558E+02  0.20512235548E+03  0.21414294758E+03  0.00000000000E+00 0. -1.
         -5    1    5    5    0  501  0.73593922704E+01  0.39864939417E+02  0.22525798991E+02  0.46614114488E+02  0.47000000000E+01 0.  1.
         11    1    6    6    0    0 -0.20756894863E+01 -0.31853004931E+02  0.33030023060E+03  0.33183906453E+03  0.00000000000E+00 0. -1.
        -12    1    6    6    0    0 -0.58678580567E+01  0.39453677795E+02  0.16127641178E+03  0.16613580423E+03  0.00000000000E+00 0.  1.
<mgrwt>
<rscale>  2 0.17935106E+03</rscale>
<asrwt>0</asrwt>
<pdfrwt beam="1">  1        2 0.18528079E+00 0.17935106E+03</pdfrwt>
<pdfrwt beam="2">  1       -2 0.41718489E-02 0.17935106E+03</pdfrwt>
<totfact> 0.50660074E+03</totfact>
</mgrwt>
</event>
<event>
12    1  0.4154313E-002  0.1876941E+03  0.7546771E-02  0.1160558E+00
          1   -1    0    0  502    0  0.00000000000E+00  0.00000000000E+00  0.25889896214E+04  0.25889896214E+04  0.00000000000E+00 0.  1.
         -1   -1    0    0    0  501 -0.00000000000E+00 -0.00000000000E+00 -0.13607642981E+02  0.13607642981E+02  0.00000000000E+00 0. -1.
          6    2    1    2  502    0 -0.57955022193E+02  0.41457421768E+02  0.12818125534E+04  0.12955010744E+04  0.17378754074E+03 0.  0.
         24    2    3    3    0    0  0.18251950531E+02  0.12548174897E+01  0.35260946006E+03  0.36230000778E+03  0.81198251507E+02 0.  0.
         -6    2    1    2    0  501  0.57955022193E+02 -0.41457421768E+02  0.12935694251E+04  0.13070961900E+04  0.17349665727E+03 0.  0.
        -24    2    5    5    0    0 -0.22366678323E+02  0.16340688862E+02  0.74200839068E+03  0.74670894728E+03  0.78933603151E+02 0.  0.
          5    1    3    3  502    0 -0.76206972724E+02  0.40202604278E+02  0.92920309334E+03  0.93320106663E+03  0.47000000000E+01 0. -1.
        -11    1    4    4    0    0 -0.14026417442E+02 -0.30306837892E+02  0.21219439287E+03  0.21480620376E+03  0.00000000000E+00 0.  1.
         12    1    4    4    0    0  0.32278367972E+02  0.31561655382E+02  0.14041506719E+03  0.14749380402E+03  0.00000000000E+00 0. -1.
         -5    1    5    5    0  501  0.80321700516E+02 -0.57798110630E+02  0.55156103439E+03  0.56038724274E+03  0.47000000000E+01 0.  1.
         11    1    6    6    0    0 -0.16986017229E+02 -0.21793261691E+02  0.10621206878E+03  0.10974732157E+03  0.00000000000E+00 0. -1.
        -12    1    6    6    0    0 -0.53806610944E+01  0.38133950553E+02  0.63579632190E+03  0.63696162572E+03  0.00000000000E+00 0.  1.
<mgrwt>
<rscale>  2 0.18769408E+03</rscale>
<asrwt>0</asrwt>
<pdfrwt beam="1">  1        1 0.39830570E+00 0.18769408E+03</pdfrwt>
<pdfrwt beam="2">  1       -1 0.20934856E-02 0.18769408E+03</pdfrwt>
<totfact> 0.89638726E+02</totfact>
</mgrwt>
</event>
<event>
12    1  0.4154313E-002  0.2075937E+03  0.7546771E-02  0.1143486E+00
          4   -1    0    0  502    0  0.00000000000E+00  0.00000000000E+00  0.39964865509E+03  0.39964865509E+03  0.00000000000E+00 0. -1.
         -4   -1    0    0    0  501 -0.00000000000E+00 -0.00000000000E+00 -0.10787878170E+03  0.10787878170E+03  0.00000000000E+00 0.  1.
          6    2    1    2  502    0 -0.11509203747E+03  0.24085018489E+01  0.15125363948E+03  0.25699186254E+03  0.17296004158E+03 0.  0.
         24    2    3    3    0    0 -0.54463727912E+01  0.35200698758E+02  0.93303405960E+02  0.12862590316E+03  0.81057666088E+02 0.  0.
         -6    2    1    2    0  501  0.11509203747E+03 -0.24085018489E+01  0.14051623390E+03  0.25053557425E+03  0.17254357132E+03 0.  0.
        -24    2    5    5    0    0  0.99091905028E+02 -0.23658361668E+02  0.16763372172E+03  0.21226013923E+03  0.81082540211E+02 0.  0.
          5    1    3    3  502    0 -0.10964566467E+03 -0.32792196909E+02  0.57950233524E+02  0.12836595937E+03  0.47000000000E+01 0. -1.
        -11    1    4    4    0    0  0.27621404247E+01  0.12810226488E+02 -0.13722859955E+02  0.18974936304E+02  0.00000000000E+00 0.  1.
         12    1    4    4    0    0 -0.82085132159E+01  0.22390472270E+02  0.10702626592E+03  0.10965096686E+03  0.00000000000E+00 0. -1.
         -5    1    5    5    0  501  0.16000132439E+02  0.21249859819E+02 -0.27117487821E+02  0.38275435022E+02  0.47000000000E+01 0.  1.
         11    1    6    6    0    0  0.41587482472E+02 -0.16138515662E+02  0.14202084089E+03  0.14886198182E+03  0.00000000000E+00 0. -1.
        -12    1    6    6    0    0  0.57504422555E+02 -0.75198460064E+01  0.25612880836E+02  0.63398157403E+02  0.00000000000E+00 0.  1.
<mgrwt>
<rscale>  2 0.20759371E+03</rscale>
<asrwt>0</asrwt>
<pdfrwt beam="1">  1        4 0.61484408E-01 0.20759371E+03</pdfrwt>
<pdfrwt beam="2">  1       -4 0.16596736E-01 0.20759371E+03</pdfrwt>
<totfact> 0.14189789E+02</totfact>
</mgrwt>
</event>
<event>
12    1  0.4154313E-002  0.1743011E+03  0.7546771E-02  0.1173435E+00
          2   -1    0    0  502    0  0.00000000000E+00  0.00000000000E+00  0.12625570785E+04  0.12625570785E+04  0.00000000000E+00 0. -1.
         -2   -1    0    0    0  501 -0.00000000000E+00 -0.00000000000E+00 -0.24063416420E+02  0.24063416420E+02  0.00000000000E+00 0.  1.
          6    2    1    2  502    0 -0.15646345716E+02 -0.19856014644E+02  0.62269475173E+03  0.64682387986E+03  0.17318576233E+03 0.  0.
         24    2    3    3    0    0 -0.34684591804E+02  0.62833569304E+00  0.14111571379E+03  0.16441065118E+03  0.76901247248E+02 0.  0.
         -6    2    1    2    0  501  0.15646345716E+02  0.19856014644E+02  0.61579891036E+03  0.63979661507E+03  0.17173334331E+03 0.  0.
        -24    2    5    5    0    0 -0.40351177876E+02  0.13995293642E+00  0.49339921840E+03  0.50367820952E+03  0.92847794184E+02 0.  0.
          5    1    3    3  502    0  0.19038246088E+02 -0.20484350337E+02  0.48157903794E+03  0.48241322868E+03  0.47000000000E+01 0. -1.
        -13    1    4    4    0    0 -0.38494480465E+02  0.17085915774E+02  0.29250524898E+02  0.51277156229E+02  0.00000000000E+00 0.  1.
         14    1    4    4    0    0  0.38098886612E+01 -0.16457580081E+02  0.11186518889E+03  0.11313349495E+03  0.00000000000E+00 0. -1.
         -5    1    5    5    0  501  0.55997523592E+02  0.19716061708E+02  0.12239969197E+03  0.13611840556E+03  0.47000000000E+01 0.  1.
         13    1    6    6    0    0 -0.53140342657E+02  0.14221148869E+02  0.47138539866E+03  0.47458437728E+03  0.00000000000E+00 0. -1.
        -14    1    6    6    0    0  0.12789164780E+02 -0.14081195933E+02  0.22013819744E+02  0.29093832240E+02  0.00000000000E+00 0.  1.
<mgrwt>
<rscale>  2 0.17430107E+03</rscale>
<asrwt>0</asrwt>
<pdfrwt beam="1">  1        2 0.19423950E+00 0.17430107E+03</pdfrwt>
<pdfrwt beam="2">  1       -2 0.37020650E-02 0.17430107E+03</pdfrwt>
<totfact> 0.56177522E+03</totfact>
</mgrwt>
</event>
<event>
12    1  0.4154313E-002  0.1676500E+03  0.7546771E-02  0.1180321E+00
         -2   -1    0    0    0  501 -0.00000000000E+00  0.00000000000E+00  0.73343874495E+02  0.73343874495E+02  0.00000000000E+00 0. -1.
          2   -1    0    0  502    0  0.00000000000E+00 -0.00000000000E+00 -0.38463133956E+03  0.38463133956E+03  0.00000000000E+00 0.  1.
          6    2    1    2  502    0 -0.31863188683E+02 -0.21395702447E+02 -0.16094345876E+03  0.23977933491E+03  0.17354622915E+03 0.  0.
         24    2    3    3    0    0 -0.16652852156E+02  0.55412005401E+02 -0.94745885102E+02  0.13713924975E+03  0.80514490938E+02 0.  0.
         -6    2    1    2    0  501  0.31863188683E+02  0.21395702447E+02 -0.15034400631E+03  0.21819587915E+03  0.15340496267E+03 0.  0.
        -24    2    5    5    0    0 -0.27580987416E+02  0.25510825813E+01 -0.47240804800E+02  0.97609437416E+02  0.80800307830E+02 0.  0.
          5    1    3    3  502    0 -0.15210336526E+02 -0.76807707848E+02 -0.66197573663E+02  0.10264008516E+03  0.47000000000E+01 0. -1.
        -13    1    4    4    0    0  0.13582079567E+01 -0.22886554224E+01 -0.72775149558E+02  0.72823794640E+02  0.00000000000E+00 0.  1.
         14    1    4    4    0    0 -0.18011060113E+02  0.57700660823E+02 -0.21970735544E+02  0.64315455111E+02  0.00000000000E+00 0. -1.
         -5    1    5    5    0  501  0.59444176098E+02  0.18844619866E+02 -0.10310320151E+03  0.12058644174E+03  0.47000000000E+01 0.  1.
         13    1    6    6    0    0 -0.21041575817E+02 -0.33529778810E+01  0.20339948748E+02  0.29456813959E+02  0.00000000000E+00 0. -1.
        -14    1    6    6    0    0 -0.65394115988E+01  0.59040604623E+01 -0.67580753548E+02  0.68152623457E+02  0.00000000000E+00 0.  1.
<mgrwt>
<rscale>  2 0.16765000E+03</rscale>
<asrwt>0</asrwt>
<pdfrwt beam="2">  1        2 0.59174052E-01 0.16765000E+03</pdfrwt>
<pdfrwt beam="1">  1       -2 0.11283673E-01 0.16765000E+03</pdfrwt>
<totfact> 0.44339565E+03</totfact>
</mgrwt>
</event>
<event>
12    1  0.4154313E-002  0.1734147E+03  0.7546771E-02  0.1174333E+00
          1   -1    0    0  502    0  0.00000000000E+00  0.00000000000E+00  0.41515255099E+03  0.41515255099E+03  0.00000000000E+00 0.  1.
         -1   -1    0    0    0  501 -0.00000000000E+00 -0.00000000000E+00 -0.73640655350E+02  0.73640655350E+02  0.00000000000E+00 0. -1.
          6    2    1    2  502    0  0.78054327377E+00  0.11314504273E+02  0.20155588240E+03  0.26559996623E+03  0.17259762767E+03 0.  0.
         24    2    3    3    0    0 -0.60846317771E+02  0.17461757885E+02  0.87809805902E+02  0.13600089738E+03  0.82331614218E+02 0.  0.
         -6    2    1    2    0  501 -0.78054327377E+00 -0.11314504273E+02  0.13995601324E+03  0.22319324011E+03  0.17349037303E+03 0.  0.
        -24    2    5    5    0    0  0.49594421797E+02 -0.33753160460E+02  0.35945807869E+02  0.10537412783E+03  0.78820829722E+02 0.  0.
          5    1    3    3  502    0  0.61626861045E+02 -0.61472536123E+01  0.11374607650E+03  0.12959906886E+03  0.47000000000E+01 0. -1.
        -11    1    4    4    0    0  0.12696756532E+02 -0.37911630891E+01  0.47841687960E+02  0.49642800594E+02  0.00000000000E+00 0.  1.
         12    1    4    4    0    0 -0.73543074303E+02  0.21252920974E+02  0.39968117942E+02  0.86358096781E+02  0.00000000000E+00 0. -1.
         -5    1    5    5    0  501 -0.50374965071E+02  0.22438656188E+02  0.10401020537E+03  0.11781911228E+03  0.47000000000E+01 0.  1.
         13    1    6    6    0    0  0.38981922163E+02  0.19173760746E+02  0.25559841336E+02  0.50403659052E+02  0.00000000000E+00 0. -1.
        -14    1    6    6    0    0  0.10612499634E+02 -0.52926921206E+02  0.10385966532E+02  0.54970468778E+02  0.00000000000E+00 0.  1.
<mgrwt>
<rscale>  2 0.17341469E+03</rscale>
<asrwt>0</asrwt>
<pdfrwt beam="1">  1        1 0.63869622E-01 0.17341469E+03</pdfrwt>
<pdfrwt beam="2">  1       -1 0.11329332E-01 0.17341469E+03</pdfrwt>
<totfact> 0.28436651E+03</totfact>
</mgrwt>
</event>
<event>
12    1  0.4154313E-002  0.1965053E+03  0.7546771E-02  0.1152721E+00
          1   -1    0    0  502    0  0.00000000000E+00  0.00000000000E+00  0.99324067426E+03  0.99324067426E+03  0.00000000000E+00 0. -1.
         -1   -1    0    0    0  501 -0.00000000000E+00 -0.00000000000E+00 -0.42956913982E+02  0.42956913982E+02  0.00000000000E+00 0.  1.
          6    2    1    2  502    0  0.93474924382E+02  0.10840260205E+02  0.63547975712E+03  0.66525930815E+03  0.17285934352E+03 0.  0.
         24    2    3    3    0    0  0.53556257022E+01 -0.47403139669E+02  0.27004687366E+03  0.28483771736E+03  0.77016042988E+02 0.  0.
         -6    2    1    2    0  501 -0.93474924382E+02 -0.10840260205E+02  0.31480400316E+03  0.37093828009E+03  0.17215857372E+03 0.  0.
        -24    2    5    5    0    0 -0.98719603760E+02  0.14008092590E+02  0.32027270861E+03  0.34453858241E+03  0.78679349644E+02 0.  0.
          5    1    3    3  502    0  0.88119298680E+02  0.58243399874E+02  0.36543288346E+03  0.38042159080E+03  0.47000000000E+01 0. -1.
        -11    1    4    4    0    0 -0.28506508502E+02 -0.48998384265E+02  0.16732586599E+03  0.17666750725E+03  0.00000000000E+00 0.  1.
         12    1    4    4    0    0  0.33862134204E+02  0.15952445959E+01  0.10272100767E+03  0.10817021011E+03  0.00000000000E+00 0. -1.
         -5    1    5    5    0  501  0.52446793780E+01 -0.24848352795E+02 -0.54687054566E+01  0.26399697683E+02  0.47000000000E+01 0.  1.
         11    1    6    6    0    0 -0.90073117072E+02  0.63168471395E+01  0.15898932399E+03  0.18284057022E+03  0.00000000000E+00 0. -1.
        -12    1    6    6    0    0 -0.86464866887E+01  0.76912454510E+01  0.16128338463E+03  0.16169801219E+03  0.00000000000E+00 0.  1.
<mgrwt>
<rscale>  2 0.19650534E+03</rscale>
<asrwt>0</asrwt>
<pdfrwt beam="1">  1        1 0.15280624E+00 0.19650534E+03</pdfrwt>
<pdfrwt beam="2">  1       -1 0.66087568E-02 0.19650534E+03</pdfrwt>
<totfact> 0.18616894E+03</totfact>
</mgrwt>
</event>
<event>
12    1  0.4154313E-002  0.3258042E+03  0.7546771E-02  0.1073009E+00
         -2   -1    0    0    0  501 -0.00000000000E+00  0.00000000000E+00  0.18224409153E+03  0.18224409153E+03  0.00000000000E+00 0. -1.
          2   -1    0    0  502    0  0.00000000000E+00 -0.00000000000E+00 -0.58293454965E+03  0.58293454965E+03  0.00000000000E+00 0.  1.
          6    2    1    2  502    0  0.25212224806E+03  0.11312808725E+03 -0.21136781099E+03  0.38837778037E+03  0.17261910864E+03 0.  0.
         24    2    3    3    0    0  0.26856342604E+03  0.85293429020E+02 -0.18611723910E+03  0.34708901782E+03  0.80186512347E+02 0.  0.
         -6    2    1    2    0  501 -0.25212224806E+03 -0.11312808725E+03 -0.18932264713E+03  0.37680086082E+03  0.17254631815E+03 0.  0.
        -24    2    5    5    0    0 -0.12331823250E+03 -0.53212735042E+02 -0.20654067220E+02  0.15623000213E+03  0.77085935387E+02 0.  0.
          5    1    3    3  502    0 -0.16441177975E+02  0.27834658231E+02 -0.25250571884E+02  0.41288762545E+02  0.47000000000E+01 0. -1.
        -11    1    4    4    0    0  0.12700899329E+03  0.15508807382E+02 -0.12183232420E+03  0.17667745386E+03  0.00000000000E+00 0.  1.
         12    1    4    4    0    0  0.14155443275E+03  0.69784621638E+02 -0.64284914904E+02  0.17041156396E+03  0.00000000000E+00 0. -1.
         -5    1    5    5    0  501 -0.12880401556E+03 -0.59915352208E+02 -0.16866857991E+03  0.22057085869E+03  0.47000000000E+01 0.  1.
         13    1    6    6    0    0 -0.13034658461E+03 -0.57818278351E+02 -0.10400685532E+02  0.14297328313E+03  0.00000000000E+00 0. -1.
        -14    1    6    6    0    0  0.70283521060E+01  0.46055433088E+01 -0.10253381688E+02  0.13256718996E+02  0.00000000000E+00 0.  1.
<mgrwt>
<rscale>  2 0.32580421E+03</rscale>
<asrwt>0</asrwt>
<pdfrwt beam="2">  1        2 0.89682235E-01 0.32580421E+03</pdfrwt>
<pdfrwt beam="1">  1       -2 0.28037554E-01 0.32580421E+03</pdfrwt>
<totfact> 0.60553542E+02</totfact>
</mgrwt>
</event>
<event>
12    1  0.4154313E-002  0.1851580E+03  0.7546771E-02  0.1162902E+00
         -1   -1    0    0    0  501 -0.00000000000E+00  0.00000000000E+00  0.18722957873E+03  0.18722957873E+03  0.00000000000E+00 0.  1.
          1   -1    0    0  502    0  0.00000000000E+00 -0.00000000000E+00 -0.29491147509E+03  0.29491147509E+03  0.00000000000E+00 0. -1.
          6    2    1    2  502    0  0.35528084724E+02 -0.75209931161E+00 -0.20025067164E+03  0.26685509955E+03  0.17276719077E+03 0.  0.
         24    2    3    3    0    0  0.67814051332E+02  0.42540777318E+02 -0.10353120547E+03  0.15597948481E+03  0.84867107191E+02 0.  0.
         -6    2    1    2    0  501 -0.35528084724E+02  0.75209931161E+00  0.92568775288E+02  0.21528595427E+03  0.19109226434E+03 0.  0.
        -24    2    5    5    0    0  0.18015055289E+02  0.39511633100E+02 -0.10846907186E+02  0.92460620225E+02  0.80904879517E+02 0.  0.
          5    1    3    3  502    0 -0.32285966609E+02 -0.43292876630E+02 -0.96719466177E+02  0.11087561474E+03  0.47000000000E+01 0. -1.
        -13    1    4    4    0    0  0.34936868462E+02 -0.22327128173E+02 -0.53599510080E+02  0.67764245080E+02  0.00000000000E+00 0.  1.
         14    1    4    4    0    0  0.32877182871E+02  0.64867905491E+02 -0.49931695385E+02  0.88215239728E+02  0.00000000000E+00 0. -1.
         -5    1    5    5    0  501 -0.53543140012E+02 -0.38759533788E+02  0.10341568247E+03  0.12282533405E+03  0.47000000000E+01 0.  1.
         11    1    6    6    0    0 -0.31405185644E+02  0.14144344115E+02 -0.13135159740E+02  0.36862997398E+02  0.00000000000E+00 0. -1.
        -12    1    6    6    0    0  0.49420240933E+02  0.25367288985E+02  0.22882525535E+01  0.55597622827E+02  0.00000000000E+00 0.  1.
<mgrwt>
<rscale>  2 0.18515796E+03</rscale>
<asrwt>0</asrwt>
<pdfrwt beam="2">  1        1 0.45370996E-01 0.18515796E+03</pdfrwt>
<pdfrwt beam="1">  1       -1 0.28804551E-01 0.18515796E+03</pdfrwt>
<totfact> 0.97887272E+02</totfact>
</mgrwt>
</event>
<event>
12    1  0.4154313E-002  0.2086920E+03  0.7546771E-02  0.1142606E+00
         -2   -1    0    0    0  501 -0.00000000000E+00  0.00000000000E+00  0.64236348688E+02  0.64236348688E+02  0.00000000000E+00 0. -1.
          2   -1    0    0  502    0  0.00000000000E+00 -0.00000000000E+00 -0.68833730385E+03  0.68833730385E+03  0.00000000000E+00 0.  1.
          6    2    1    2  502    0  0.55388909947E+01 -0.11646325659E+03 -0.26520699712E+03  0.33716021592E+03  0.17247576766E+03 0.  0.
         24    2    3    3    0    0  0.54258670606E+01 -0.64833770713E+02 -0.57957281850E+02  0.12352465927E+03  0.87558192480E+02 0.  0.
         -6    2    1    2    0  501 -0.55388909947E+01  0.11646325659E+03 -0.35889395804E+03  0.41541343662E+03  0.17369248905E+03 0.  0.
        -24    2    5    5    0    0 -0.61579667419E+02  0.46014548963E+02 -0.25354294640E+03  0.27676094049E+03  0.80019987206E+02 0.  0.
          5    1    3    3  502    0  0.11302393405E+00 -0.51629485880E+02 -0.20724971527E+03  0.21363555665E+03  0.47000000000E+01 0. -1.
        -13    1    4    4    0    0 -0.29439490797E+02 -0.13265077311E+02  0.75469400965E+01  0.33160250290E+02  0.00000000000E+00 0.  1.
         14    1    4    4    0    0  0.34865357858E+02 -0.51568693402E+02 -0.65504221946E+02  0.90364408981E+02  0.00000000000E+00 0. -1.
         -5    1    5    5    0  501  0.56040776424E+02  0.70448707631E+02 -0.10535101164E+03  0.13865249613E+03  0.47000000000E+01 0.  1.
         13    1    6    6    0    0 -0.74917898952E+02  0.37619539714E+02 -0.14838848608E+03  0.17043199275E+03  0.00000000000E+00 0. -1.
        -14    1    6    6    0    0  0.13338231533E+02  0.83950092489E+01 -0.10515446033E+03  0.10632894774E+03  0.00000000000E+00 0.  1.
<mgrwt>
<rscale>  2 0.20869199E+03</rscale>
<asrwt>0</asrwt>
<pdfrwt beam="2">  1        2 0.10589804E+00 0.20869199E+03</pdfrwt>
<pdfrwt beam="1">  1       -2 0.98825154E-02 0.20869199E+03</pdfrwt>
<totfact> 0.28704185E+03</totfact>
</mgrwt>
</event>
<event>
12    1  0.4154313E-002  0.2500853E+03  0.7546771E-02  0.1113251E+00
          1   -1    0    0  502    0  0.00000000000E+00  0.00000000000E+00  0.20127266515E+04  0.20127266515E+04  0.00000000000E+00 0.  1.
         -1   -1    0    0    0  501 -0.00000000000E+00 -0.00000000000E+00 -0.49969009080E+02  0.49969009080E+02  0.00000000000E+00 0. -1.
          6    2    1    2  502    0  0.12821783475E+03  0.12789666779E+03  0.16144861318E+04  0.16336716408E+04  0.17181440382E+03 0.  0.
         24    2    3    3    0    0  0.78769110610E+02  0.26984421849E+00  0.72415776793E+03  0.73287173630E+03  0.80572100698E+02 0.  0.
         -6    2    1    2    0  501 -0.12821783475E+03 -0.12789666779E+03  0.34827151059E+03  0.42902401977E+03  0.17312190406E+03 0.  0.
        -24    2    5    5    0    0 -0.10762273771E+03 -0.15975645600E+03  0.26164809379E+03  0.33434080866E+03  0.78862363929E+02 0.  0.
          5    1    3    3  502    0  0.49448724138E+02  0.12762682357E+03  0.89032836389E+03  0.90079990451E+03  0.47000000000E+01 0. -1.
        -11    1    4    4    0    0  0.18931391170E+02 -0.15308076645E+02  0.49258128270E+03  0.49318257761E+03  0.00000000000E+00 0.  1.
         12    1    4    4    0    0  0.59837719441E+02  0.15577920864E+02  0.23157648523E+03  0.23968915870E+03  0.00000000000E+00 0. -1.
         -5    1    5    5    0  501 -0.20595097037E+02  0.31859788210E+02  0.86623416800E+02  0.94683211103E+02  0.47000000000E+01 0.  1.
         11    1    6    6    0    0 -0.36798725243E+02 -0.23186417656E+02  0.19987726244E+02  0.47867163522E+02  0.00000000000E+00 0. -1.
        -12    1    6    6    0    0 -0.70824012469E+02 -0.13657003835E+03  0.24166036755E+03  0.28647364514E+03  0.00000000000E+00 0.  1.
<mgrwt>
<rscale>  2 0.25008530E+03</rscale>
<asrwt>0</asrwt>
<pdfrwt beam="1">  1        1 0.30965019E+00 0.25008530E+03</pdfrwt>
<pdfrwt beam="2">  1       -1 0.76875414E-02 0.25008530E+03</pdfrwt>
<totfact> 0.30453815E+02</totfact>
</mgrwt>
</event>
<event>
12    1  0.4154313E-002  0.4022587E+03  0.7546771E-02  0.1043000E+00
          2   -1    0    0  502    0  0.00000000000E+00  0.00000000000E+00  0.99996064928E+03  0.99996064928E+03  0.00000000000E+00 0.  1.
         -2   -1    0    0    0  501 -0.00000000000E+00 -0.00000000000E+00 -0.21286203529E+03  0.21286203529E+03  0.00000000000E+00 0. -1.
          6    2    1    2  502    0  0.82015824415E+02 -0.35442756824E+03  0.69064063914E+03  0.79934058585E+03  0.17209120598E+03 0.  0.
         24    2    3    3    0    0 -0.60040567713E+01 -0.20697525605E+03  0.46610646548E+03  0.51662629723E+03  0.82296345631E+02 0.  0.
         -6    2    1    2    0  501 -0.82015824415E+02  0.35442756824E+03  0.96457974850E+02  0.41348209872E+03  0.17122443888E+03 0.  0.
        -24    2    5    5    0    0 -0.10770181848E+03  0.17753665286E+03  0.64107436997E+02  0.23177130230E+03  0.80555746422E+02 0.  0.
          5    1    3    3  502    0  0.88019881186E+02 -0.14745231219E+03  0.22453417365E+03  0.28271428862E+03  0.47000000000E+01 0. -1.
        -13    1    4    4    0    0  0.29013689137E+02 -0.31536736071E+02  0.71457434578E+02  0.83321814886E+02  0.00000000000E+00 0.  1.
         14    1    4    4    0    0 -0.35017745908E+02 -0.17543851998E+03  0.39464903091E+03  0.43330448234E+03  0.00000000000E+00 0. -1.
         -5    1    5    5    0  501  0.25685994063E+02  0.17689091538E+03  0.32350537853E+02  0.18171079642E+03  0.47000000000E+01 0.  1.
         13    1    6    6    0    0 -0.54870253622E+02  0.39393727742E+02 -0.65413906909E+01  0.67863099768E+02  0.00000000000E+00 0. -1.
        -14    1    6    6    0    0 -0.52831564855E+02  0.13814292511E+03  0.70648827687E+02  0.16390820253E+03  0.00000000000E+00 0.  1.
<mgrwt>
<rscale>  2 0.40225865E+03</rscale>
<asrwt>0</asrwt>
<pdfrwt beam="1">  1        2 0.15384010E+00 0.40225865E+03</pdfrwt>
<pdfrwt beam="2">  1       -2 0.32748006E-01 0.40225865E+03</pdfrwt>
<totfact> 0.22693228E+02</totfact>
</mgrwt>
</event>
<event>
12    1  0.4154313E-002  0.2121595E+03  0.7546771E-02  0.1139867E+00
         -2   -1    0    0    0  501 -0.00000000000E+00  0.00000000000E+00  0.41753647556E+02  0.41753647556E+02  0.00000000000E+00 0. -1.
          2   -1    0    0  502    0  0.00000000000E+00 -0.00000000000E+00 -0.11804782373E+04  0.11804782373E+04  0.00000000000E+00 0.  1.
          6    2    1    2  502    0 -0.11499989321E+02  0.11914566368E+03 -0.75536707220E+03  0.78527854537E+03  0.17819944201E+03 0.  0.
         24    2    3    3    0    0 -0.36620644877E+02  0.12505859252E+03 -0.73808702484E+03  0.75386676255E+03  0.81005655667E+02 0.  0.
         -6    2    1    2    0  501  0.11499989321E+02 -0.11914566368E+03 -0.38335751752E+03  0.43695333946E+03  0.17215485964E+03 0.  0.
        -24    2    5    5    0    0  0.51334448937E+02 -0.11763354042E+03 -0.35986386626E+03  0.39044406792E+03  0.80446829972E+02 0.  0.
          5    1    3    3  502    0  0.25120655556E+02 -0.59129288477E+01 -0.17280047359E+02  0.31411782818E+02  0.47000000000E+01 0. -1.
        -11    1    4    4    0    0  0.15429072827E+02  0.42711713883E+02 -0.38216072138E+03  0.38484953392E+03  0.00000000000E+00 0.  1.
         12    1    4    4    0    0 -0.52049717704E+02  0.82346878641E+02 -0.35592630346E+03  0.36901722863E+03  0.00000000000E+00 0. -1.
         -5    1    5    5    0  501 -0.39834459617E+02 -0.15121232553E+01 -0.23493651257E+02  0.46509271539E+02  0.47000000000E+01 0.  1.
         13    1    6    6    0    0 -0.90137049665E+00 -0.91025231252E+02 -0.18847047813E+03  0.20930247566E+03  0.00000000000E+00 0. -1.
        -14    1    6    6    0    0  0.52235819434E+02 -0.26608309169E+02 -0.17139338813E+03  0.18114159225E+03  0.00000000000E+00 0.  1.
<mgrwt>
<rscale>  2 0.21215950E+03</rscale>
<asrwt>0</asrwt>
<pdfrwt beam="2">  1        2 0.18161200E+00 0.21215950E+03</pdfrwt>
<pdfrwt beam="1">  1       -2 0.64236393E-02 0.21215950E+03</pdfrwt>
<totfact> 0.27223614E+03</totfact>
</mgrwt>
</event>
<event>
12    1  0.4154313E-002  0.1807591E+03  0.7546771E-02  0.1167070E+00
          2   -1    0    0  502    0  0.00000000000E+00  0.00000000000E+00  0.39564669550E+04  0.39564669550E+04  0.00000000000E+00 0.  1.
         -2   -1    0    0    0  501 -0.00000000000E+00 -0.00000000000E+00 -0.10122305286E+02  0.10122305286E+02  0.00000000000E+00 0. -1.
          6    2    1    2  502    0 -0.17832818229E+02 -0.23304943059E+02  0.10840093802E+04  0.10982662673E+04  0.17392908810E+03 0.  0.
         24    2    3    3    0    0 -0.18246542703E+02 -0.75293836720E+02  0.90343242197E+03  0.91029514163E+03  0.80280792451E+02 0.  0.
         -6    2    1    2    0  501  0.17832818229E+02  0.23304943059E+02  0.28623352695E+04  0.28683229930E+04  0.18290015686E+03 0.  0.
        -24    2    5    5    0    0  0.20578000045E+02  0.13213530391E+02  0.57358963722E+03  0.57954864154E+03  0.79205457589E+02 0.  0.
          5    1    3    3  502    0  0.41372447457E+00  0.51988893661E+02  0.18057695823E+03  0.18797112564E+03  0.47000000000E+01 0. -1.
        -11    1    4    4    0    0 -0.14759399528E+02  0.87950111788E+01  0.35759878474E+03  0.35801128885E+03  0.00000000000E+00 0.  1.
         12    1    4    4    0    0 -0.34871431747E+01 -0.84088847898E+02  0.54583363723E+03  0.55228385278E+03  0.00000000000E+00 0. -1.
         -5    1    5    5    0  501 -0.27451818161E+01  0.10091412668E+02  0.22887456323E+04  0.22887743514E+04  0.47000000000E+01 0.  1.
         13    1    6    6    0    0 -0.21933331257E+02 -0.27459269029E+01  0.59770550511E+02  0.63726994618E+02  0.00000000000E+00 0. -1.
        -14    1    6    6    0    0  0.42511331301E+02  0.15959457294E+02  0.51381908671E+03  0.51582164692E+03  0.00000000000E+00 0.  1.
<mgrwt>
<rscale>  2 0.18075909E+03</rscale>
<asrwt>0</asrwt>
<pdfrwt beam="1">  1        2 0.60868599E+00 0.18075909E+03</pdfrwt>
<pdfrwt beam="2">  1       -2 0.15572809E-02 0.18075909E+03</pdfrwt>
<totfact> 0.55648112E+02</totfact>
</mgrwt>
</event>
<event>
12    1  0.4154313E-002  0.1912836E+03  0.7546771E-02  0.1157309E+00
          1   -1    0    0  502    0  0.00000000000E+00  0.00000000000E+00  0.38200874747E+03  0.38200874747E+03  0.00000000000E+00 0. -1.
         -1   -1    0    0    0  501 -0.00000000000E+00 -0.00000000000E+00 -0.10974035042E+03  0.10974035042E+03  0.00000000000E+00 0.  1.
          6    2    1    2  502    0  0.85394951486E+02  0.61670986058E+01  0.48574744189E+02  0.19755886659E+03  0.17128826332E+03 0.  0.
         24    2    3    3    0    0 -0.17873407578E+02  0.18537502683E+02  0.10489364501E+02  0.86698742890E+02  0.82119105858E+02 0.  0.
         -6    2    1    2    0  501 -0.85394951486E+02 -0.61670986058E+01  0.22369365287E+03  0.29419023130E+03  0.17081777137E+03 0.  0.
        -24    2    5    5    0    0 -0.41299092149E+02 -0.68003069967E+02  0.16444641949E+03  0.19775135518E+03  0.75716187534E+02 0.  0.
          5    1    3    3  502    0  0.10326835906E+03 -0.12370404077E+02  0.38085379688E+02  0.11086012370E+03  0.47000000000E+01 0. -1.
        -11    1    4    4    0    0  0.14265139309E+02 -0.21488414330E+02  0.22219825317E+02  0.34043601264E+02  0.00000000000E+00 0.  1.
         12    1    4    4    0    0 -0.32138546887E+02  0.40025917013E+02 -0.11730460816E+02  0.52655141626E+02  0.00000000000E+00 0. -1.
         -5    1    5    5    0  501 -0.44095859337E+02  0.61835971361E+02  0.59247233378E+02  0.96438876123E+02  0.47000000000E+01 0.  1.
         13    1    6    6    0    0 -0.43963597185E+02 -0.10884537542E+02  0.10929550348E+03  0.11830797994E+03  0.00000000000E+00 0. -1.
        -14    1    6    6    0    0  0.26645050358E+01 -0.57118532426E+02  0.55150916006E+02  0.79443375242E+02  0.00000000000E+00 0.  1.
<mgrwt>
<rscale>  2 0.19128364E+03</rscale>
<asrwt>0</asrwt>
<pdfrwt beam="1">  1        1 0.58770576E-01 0.19128364E+03</pdfrwt>
<pdfrwt beam="2">  1       -1 0.16883131E-01 0.19128364E+03</pdfrwt>
<totfact> 0.16948877E+03</totfact>
</mgrwt>
</event>
<event>
12    1  0.4154313E-002  0.2537329E+03  0.7546771E-02  0.1110968E+00
          2   -1    0    0  502    0  0.00000000000E+00  0.00000000000E+00  0.67745983871E+03  0.67745983871E+03  0.00000000000E+00 0.  1.
         -2   -1    0    0    0  501 -0.00000000000E+00 -0.00000000000E+00 -0.98915675353E+02  0.98915675353E+02  0.00000000000E+00 0. -1.
          6    2    1    2  502    0 -0.47278483247E+02  0.17978034725E+03  0.36562131049E+03  0.44474485700E+03  0.17193841021E+03 0.  0.
         24    2    3    3    0    0 -0.58640171596E+02  0.13676872227E+03  0.15643968705E+03  0.23083335794E+03  0.81647475996E+02 0.  0.
         -6    2    1    2    0  501  0.47278483247E+02 -0.17978034725E+03  0.21292285287E+03  0.33163065707E+03  0.17345467188E+03 0.  0.
        -24    2    5    5    0    0  0.43367657454E+02 -0.20596418319E+03  0.18242149979E+03  0.29096973771E+03  0.84165231575E+02 0.  0.
          5    1    3    3  502    0  0.11361688349E+02  0.43011624976E+02  0.20918162343E+03  0.21391149905E+03  0.47000000000E+01 0. -1.
        -13    1    4    4    0    0 -0.62344247228E+02  0.10715275666E+03  0.15813825373E+03  0.20093836298E+03  0.00000000000E+00 0.  1.
         14    1    4    4    0    0  0.37040756324E+01  0.29615965612E+02 -0.16985666743E+01  0.29894994968E+02  0.00000000000E+00 0. -1.
         -5    1    5    5    0  501  0.39108257926E+01  0.26183835944E+02  0.30501353086E+02  0.40660919360E+02  0.47000000000E+01 0.  1.
         11    1    6    6    0    0  0.28062603925E+02 -0.31385123633E+02  0.73282219427E+02  0.84515202235E+02  0.00000000000E+00 0. -1.
        -12    1    6    6    0    0  0.15305053529E+02 -0.17457905956E+03  0.10913928036E+03  0.20645453547E+03  0.00000000000E+00 0.  1.
<mgrwt>
<rscale>  2 0.25373286E+03</rscale>
<asrwt>0</asrwt>
<pdfrwt beam="1">  1        2 0.10422459E+00 0.25373286E+03</pdfrwt>
<pdfrwt beam="2">  1       -2 0.15217797E-01 0.25373286E+03</pdfrwt>
<totfact> 0.14581833E+03</totfact>
</mgrwt>
</event>
<event>
12    1  0.4154313E-002  0.1910000E+03  0.7546771E-02  0.1157562E+00
         -2   -1    0    0    0  501 -0.00000000000E+00  0.00000000000E+00  0.81967952762E+02  0.81967952762E+02  0.00000000000E+00 0. -1.
          2   -1    0    0  502    0  0.00000000000E+00 -0.00000000000E+00 -0.76877766103E+03  0.76877766103E+03  0.00000000000E+00 0.  1.
          6    2    1    2  502    0 -0.40097926919E+02  0.54997839462E+02 -0.73248997959E+02  0.20971339281E+03  0.18434121984E+03 0.  0.
         24    2    3    3    0    0 -0.64085212968E+02  0.36338225890E+02  0.21847681063E+02  0.10976821068E+03  0.78385953623E+02 0.  0.
         -6    2    1    2    0  501  0.40097926919E+02 -0.54997839462E+02 -0.61356071031E+03  0.64103222098E+03  0.17272219606E+03 0.  0.
        -24    2    5    5    0    0 -0.60268735690E+00 -0.54771319809E+02 -0.17121277027E+03  0.19679086612E+03  0.80078533819E+02 0.  0.
          5    1    3    3  502    0  0.23987286049E+02  0.18659613572E+02 -0.95096679022E+02  0.99945182133E+02  0.47000000000E+01 0. -1.
        -11    1    4    4    0    0 -0.49756230782E+02 -0.15484859855E+02  0.20459774170E+02  0.55982727206E+02  0.00000000000E+00 0.  1.
         12    1    4    4    0    0 -0.14328982186E+02  0.51823085745E+02  0.13879068926E+01  0.53785483471E+02  0.00000000000E+00 0. -1.
         -5    1    5    5    0  501  0.40700614276E+02 -0.22651965334E+00 -0.44234794004E+03  0.44424135486E+03  0.47000000000E+01 0.  1.
         13    1    6    6    0    0 -0.25531951119E+02 -0.33109053931E+02 -0.15394760757E+03  0.15952415446E+03  0.00000000000E+00 0. -1.
        -14    1    6    6    0    0  0.24929263762E+02 -0.21662265878E+02 -0.17265162700E+02  0.37266711657E+02  0.00000000000E+00 0.  1.
<mgrwt>
<rscale>  2 0.19100000E+03</rscale>
<asrwt>0</asrwt>
<pdfrwt beam="2">  1        2 0.11827349E+00 0.19100000E+03</pdfrwt>
<pdfrwt beam="1">  1       -2 0.12610454E-01 0.19100000E+03</pdfrwt>
<totfact> 0.16949516E+03</totfact>
</mgrwt>
</event>
<event>
12    1  0.4154313E-002  0.3267646E+03  0.7546771E-02  0.1072577E+00
          2   -1    0    0  502    0  0.00000000000E+00  0.00000000000E+00  0.39315535095E+03  0.39315535095E+03  0.00000000000E+00 0.  1.
         -2   -1    0    0    0  501 -0.00000000000E+00 -0.00000000000E+00 -0.32752442784E+03  0.32752442784E+03  0.00000000000E+00 0. -1.
          6    2    1    2  502    0  0.25708056530E+03 -0.10431531543E+03  0.18176885202E+03  0.37428857859E+03  0.17343564342E+03 0.  0.
         24    2    3    3    0    0  0.33946931142E+02 -0.34250495659E+02  0.66178090828E+02  0.11336519570E+03  0.78400493012E+02 0.  0.
         -6    2    1    2    0  501 -0.25708056530E+03  0.10431531543E+03 -0.11613792892E+03  0.34639120020E+03  0.17183347449E+03 0.  0.
        -24    2    5    5    0    0 -0.83707159463E+02  0.52571686385E+02 -0.10459733240E+03  0.16503239461E+03  0.80773873067E+02 0.  0.
          5    1    3    3  502    0  0.22313363416E+03 -0.70064819768E+02  0.11559076120E+03  0.26092338289E+03  0.47000000000E+01 0. -1.
        -13    1    4    4    0    0  0.47320768766E+02 -0.78464324179E+01  0.68557656048E+02  0.83671822384E+02  0.00000000000E+00 0.  1.
         14    1    4    4    0    0 -0.13373837624E+02 -0.26404063241E+02 -0.23795652206E+01  0.29693373319E+02  0.00000000000E+00 0. -1.
         -5    1    5    5    0  501 -0.17337340584E+03  0.51743629042E+02 -0.11540596517E+02  0.18135880560E+03  0.47000000000E+01 0.  1.
         11    1    6    6    0    0  0.55797644662E+01 -0.24336808143E+01 -0.42961474993E+02  0.43390608516E+02  0.00000000000E+00 0. -1.
        -12    1    6    6    0    0 -0.89286923929E+02  0.55005367199E+02 -0.61635857408E+02  0.12164178609E+03  0.00000000000E+00 0.  1.
<mgrwt>
<rscale>  2 0.32676456E+03</rscale>
<asrwt>0</asrwt>
<pdfrwt beam="1">  1        2 0.60485438E-01 0.32676456E+03</pdfrwt>
<pdfrwt beam="2">  1       -2 0.50388374E-01 0.32676456E+03</pdfrwt>
<totfact> 0.30899528E+02</totfact>
</mgrwt>
</event>
<event>
12    1  0.4154313E-002  0.1746873E+03  0.7546771E-02  0.1173046E+00
          1   -1    0    0  502    0  0.00000000000E+00  0.00000000000E+00  0.54873255012E+03  0.54873255012E+03  0.00000000000E+00 0. -1.
         -1   -1    0    0    0  501 -0.00000000000E+00 -0.00000000000E+00 -0.20584173921E+03  0.20584173921E+03  0.00000000000E+00 0.  1.
          6    2    1    2  502    0 -0.21672347651E+01  0.17574446377E+02  0.49372384291E+03  0.52366688668E+03  0.17363817864E+03 0.  0.
         24    2    3    3    0    0  0.42971711794E+02  0.21199574351E+02  0.45343828270E+03  0.46287476211E+03  0.79691776301E+02 0.  0.
         -6    2    1    2    0  501  0.21672347651E+01 -0.17574446377E+02 -0.15083303200E+03  0.23090740265E+03  0.17393696267E+03 0.  0.
        -24    2    5    5    0    0  0.38918993260E+02  0.42316708751E+02 -0.57885875839E+02  0.11429305510E+03  0.80042088598E+02 0.  0.
          5    1    3    3  502    0 -0.45138946559E+02 -0.36251279735E+01  0.40285560208E+02  0.60792124576E+02  0.47000000000E+01 0. -1.
        -11    1    4    4    0    0  0.80900404725E+01 -0.32861712573E+01  0.14138415095E+01  0.88457121925E+01  0.00000000000E+00 0.  1.
         12    1    4    4    0    0  0.34881671321E+02  0.24485745608E+02  0.45202444119E+03  0.45402904992E+03  0.00000000000E+00 0. -1.
         -5    1    5    5    0  501 -0.36751758495E+02 -0.59891155128E+02 -0.92947156163E+02  0.11661434755E+03  0.47000000000E+01 0.  1.
         11    1    6    6    0    0  0.25714010151E+02  0.56127862994E+02 -0.68677653826E+02  0.92348077714E+02  0.00000000000E+00 0. -1.
        -12    1    6    6    0    0  0.13204983110E+02 -0.13811154243E+02  0.10791777988E+02  0.21944977389E+02  0.00000000000E+00 0.  1.
<mgrwt>
<rscale>  2 0.17468731E+03</rscale>
<asrwt>0</asrwt>
<pdfrwt beam="1">  1        1 0.84420392E-01 0.17468731E+03</pdfrwt>
<pdfrwt beam="2">  1       -1 0.31667960E-01 0.17468731E+03</pdfrwt>
<totfact> 0.37634631E+02</totfact>
</mgrwt>
</event>
<event>
11    1  0.4154313E-002  0.3247348E+03  0.7546771E-02  0.1073491E+00
         -1   -1    0    0    0  501 -0.00000000000E+00  0.00000000000E+00  0.84806543795E+03  0.84806543795E+03  0.00000000000E+00 0.  1.
          1   -1    0    0  502    0  0.00000000000E+00 -0.00000000000E+00 -0.27738738894E+03  0.27738738894E+03  0.00000000000E+00 0. -1.
          6    2    1    2  502    0  0.45280859284E+02 -0.26889298520E+03 -0.13200045760E+03  0.35204297215E+03  0.17932188858E+03 0.  0.
         24    2    3    3    0    0  0.27334366211E+02 -0.18179888461E+03 -0.16203506103E+03  0.25806623899E+03  0.80900066032E+02 0.  0.
         -6    2    1    2    0  501 -0.45280859284E+02  0.26889298520E+03  0.70267850661E+03  0.77340985475E+03  0.17335491358E+03 0.  0.
          5    1    3    3  502    0  0.17946493073E+02 -0.87094100590E+02  0.30034603428E+02  0.93976733154E+02  0.47000000000E+01 0. -1.
        -11    1    4    4    0    0 -0.28349095480E+02 -0.58482239335E+02 -0.43727690298E+02  0.78332333241E+02  0.00000000000E+00 0.  1.
         12    1    4    4    0    0  0.55683461691E+02 -0.12331664527E+03 -0.11830737073E+03  0.17973390575E+03  0.00000000000E+00 0. -1.
         -5    1    5    5    0  501 -0.12941348770E+02  0.54050140298E+02  0.24347573423E+03  0.24978274427E+03  0.47000000000E+01 0.  1.
         11    1    5    5    0    0  0.44211591634E+02  0.85545470843E+02  0.23246338621E+03  0.25161859698E+03  0.00000000000E+00 0. -1.
        -12    1    5    5    0    0 -0.76551102148E+02  0.12929737406E+03  0.22673938617E+03  0.27200851351E+03  0.00000000000E+00 0.  1.
<mgrwt>
<rscale>  2 0.32473478E+03</rscale>
<asrwt>0</asrwt>
<pdfrwt beam="2">  1        1 0.42674983E-01 0.32473478E+03</pdfrwt>
<pdfrwt beam="1">  1       -1 0.13047160E+00 0.32473478E+03</pdfrwt>
<totfact> 0.52237573E+01</totfact>
</mgrwt>
</event>
<event>
12    1  0.4154313E-002  0.1878998E+03  0.7546771E-02  0.1160369E+00
         -2   -1    0    0    0  501 -0.00000000000E+00  0.00000000000E+00  0.50396493329E+02  0.50396493329E+02  0.00000000000E+00 0.  1.
          2   -1    0    0  502    0  0.00000000000E+00 -0.00000000000E+00 -0.72039197243E+03  0.72039197243E+03  0.00000000000E+00 0. -1.
          6    2    1    2  502    0 -0.75261202825E+02  0.11570188126E+02 -0.27455820640E+03  0.33380377874E+03  0.17390985049E+03 0.  0.
         24    2    3    3    0    0 -0.63091952159E+02  0.71028168575E+02 -0.20926142935E+03  0.24453395633E+03  0.83551869070E+02 0.  0.
         -6    2    1    2    0  501  0.75261202825E+02 -0.11570188126E+02 -0.39543727271E+03  0.43698468702E+03  0.16966691529E+03 0.  0.
        -24    2    5    5    0    0  0.91170487964E+02  0.36416186958E+02 -0.21647917001E+03  0.25096347837E+03  0.80506148088E+02 0.  0.
          5    1    3    3  502    0 -0.12169250666E+02 -0.59457980449E+02 -0.65296777044E+02  0.89269822410E+02  0.47000000000E+01 0. -1.
        -13    1    4    4    0    0  0.67394841739E+01  0.16614857531E+02 -0.67950828701E+00  0.17942571421E+02  0.00000000000E+00 0.  1.
         14    1    4    4    0    0 -0.69831436333E+02  0.54413311044E+02 -0.20858192107E+03  0.22659138491E+03  0.00000000000E+00 0. -1.
         -5    1    5    5    0  501 -0.15909285139E+02 -0.47986375084E+02 -0.17895810269E+03  0.18602120865E+03  0.47000000000E+01 0.  1.
         13    1    6    6    0    0  0.41233818895E+02  0.57423700800E+02 -0.14458467545E+03  0.16094234250E+03  0.00000000000E+00 0. -1.
        -14    1    6    6    0    0  0.49936669069E+02 -0.21007513843E+02 -0.71894494559E+02  0.90021135871E+02  0.00000000000E+00 0.  1.
<mgrwt>
<rscale>  2 0.18789982E+03</rscale>
<asrwt>0</asrwt>
<pdfrwt beam="2">  1        2 0.11082953E+00 0.18789982E+03</pdfrwt>
<pdfrwt beam="1">  1       -2 0.77533069E-02 0.18789982E+03</pdfrwt>
<totfact> 0.39635361E+03</totfact>
</mgrwt>
</event>
<event>
12    1  0.4154313E-002  0.2291029E+03  0.7546771E-02  0.1127273E+00
         -1   -1    0    0    0  501 -0.00000000000E+00  0.00000000000E+00  0.19642873927E+03  0.19642873927E+03  0.00000000000E+00 0. -1.
          1   -1    0    0  502    0  0.00000000000E+00 -0.00000000000E+00 -0.35982831769E+03  0.35982831769E+03  0.00000000000E+00 0.  1.
          6    2    1    2  502    0  0.65957917600E+02  0.13465472480E+03 -0.22309421712E+03  0.32058303762E+03  0.17470006438E+03 0.  0.
         24    2    3    3    0    0  0.11319596579E+03  0.10356346159E+03 -0.17270496529E+03  0.24469320599E+03  0.80678638917E+02 0.  0.
         -6    2    1    2    0  501 -0.65957917600E+02 -0.13465472480E+03  0.59694638702E+02  0.23567401934E+03  0.17174531055E+03 0.  0.
        -24    2    5    5    0    0 -0.18820243254E+01 -0.55830553804E+02  0.85357572409E+02  0.13079482121E+03  0.81858275913E+02 0.  0.
          5    1    3    3  502    0 -0.47238048188E+02  0.31091263208E+02 -0.50389251829E+02  0.75889831627E+02  0.47000000000E+01 0. -1.
        -13    1    4    4    0    0  0.59587954575E+02  0.66153652866E+02 -0.41766482249E+02  0.98343627945E+02  0.00000000000E+00 0.  1.
         14    1    4    4    0    0  0.53608011213E+02  0.37409808728E+02 -0.13093848304E+03  0.14634957805E+03  0.00000000000E+00 0. -1.
         -5    1    5    5    0  501 -0.64075893275E+02 -0.78824170999E+02 -0.25662933707E+02  0.10487919812E+03  0.47000000000E+01 0.  1.
         13    1    6    6    0    0 -0.36200575634E+01 -0.42415413868E+02 -0.17865035225E+01  0.42607085622E+02  0.00000000000E+00 0. -1.
        -14    1    6    6    0    0  0.17380332380E+01 -0.13415139936E+02  0.87144075932E+02  0.88187735593E+02  0.00000000000E+00 0.  1.
<mgrwt>
<rscale>  2 0.22910288E+03</rscale>
<asrwt>0</asrwt>
<pdfrwt beam="2">  1        1 0.55358202E-01 0.22910288E+03</pdfrwt>
<pdfrwt beam="1">  1       -1 0.30219806E-01 0.22910288E+03</pdfrwt>
<totfact> 0.70337558E+02</totfact>
</mgrwt>
</event>
<event>
12    1  0.4154313E-002  0.2152310E+03  0.7546771E-02  0.1137489E+00
          1   -1    0    0  502    0  0.00000000000E+00  0.00000000000E+00  0.16524400899E+04  0.16524400899E+04  0.00000000000E+00 0. -1.
         -1   -1    0    0    0  501 -0.00000000000E+00 -0.00000000000E+00 -0.29921890980E+02  0.29921890980E+02  0.00000000000E+00 0.  1.
          6    2    1    2  502    0 -0.43268237817E+02 -0.11344253847E+03  0.10422127957E+04  0.10654352997E+04  0.18494192700E+03 0.  0.
         24    2    3    3    0    0  0.31110048549E+02 -0.11159665492E+03  0.78224027025E+03  0.79498504409E+03  0.81729623765E+02 0.  0.
         -6    2    1    2    0  501  0.43268237817E+02  0.11344253847E+03  0.58030540321E+03  0.61692668118E+03  0.17059548358E+03 0.  0.
        -24    2    5    5    0    0 -0.28183035202E+02  0.69519043221E+02  0.19875252696E+03  0.22623595282E+03  0.77800761773E+02 0.  0.
          5    1    3    3  502    0 -0.74378286366E+02 -0.18458835528E+01  0.25997252542E+03  0.27045025558E+03  0.47000000000E+01 0. -1.
        -13    1    4    4    0    0  0.20820656407E+02 -0.31673344676E+02  0.50089080625E+03  0.50232290440E+03  0.00000000000E+00 0.  1.
         14    1    4    4    0    0  0.10289392142E+02 -0.79923310244E+02  0.28134946400E+03  0.29266213969E+03  0.00000000000E+00 0. -1.
         -5    1    5    5    0  501  0.71451273019E+02  0.43923495251E+02  0.38155287625E+03  0.39069072836E+03  0.47000000000E+01 0.  1.
         11    1    6    6    0    0 -0.95240603719E+01 -0.11825333595E+02  0.77908482363E+02  0.79374289696E+02  0.00000000000E+00 0. -1.
        -12    1    6    6    0    0 -0.18658974830E+02  0.81344376817E+02  0.12084404459E+03  0.14686166312E+03  0.00000000000E+00 0.  1.
<mgrwt>
<rscale>  2 0.21523096E+03</rscale>
<asrwt>0</asrwt>
<pdfrwt beam="1">  1        1 0.25422148E+00 0.21523096E+03</pdfrwt>
<pdfrwt beam="2">  1       -1 0.46033691E-02 0.21523096E+03</pdfrwt>
<totfact> 0.11359852E+03</totfact>
</mgrwt>
</event>
<event>
12    1  0.4154313E-002  0.1737344E+03  0.7546771E-02  0.1174008E+00
         -2   -1    0    0    0  501 -0.00000000000E+00  0.00000000000E+00  0.23431341999E+02  0.23431341999E+02  0.00000000000E+00 0.  1.
          2   -1    0    0  502    0  0.00000000000E+00 -0.00000000000E+00 -0.12901235388E+04  0.12901235388E+04  0.00000000000E+00 0. -1.
          6    2    1    2  502    0  0.18379873180E+02  0.12464591781E+02 -0.65944146230E+03  0.68198348720E+03  0.17246810957E+03 0.  0.
         24    2    3    3    0    0  0.36095619809E+02 -0.39562573518E+02 -0.22549714988E+03  0.24454728626E+03  0.78014867940E+02 0.  0.
         -6    2    1    2    0  501 -0.18379873180E+02 -0.12464591781E+02 -0.60725073450E+03  0.63157139361E+03  0.17215047162E+03 0.  0.
        -24    2    5    5    0    0 -0.70892388792E+02 -0.39686277252E+02 -0.33685597431E+03  0.35474292543E+03  0.75959622957E+02 0.  0.
          5    1    3    3  502    0 -0.17715746629E+02  0.52027165299E+02 -0.43394431242E+03  0.43743620094E+03  0.47000000000E+01 0. -1.
        -13    1    4    4    0    0 -0.94359779951E+01 -0.44231357067E+02 -0.78580984177E+02  0.90666541254E+02  0.00000000000E+00 0.  1.
         14    1    4    4    0    0  0.45531597804E+02  0.46687835487E+01 -0.14691616570E+03  0.15388074500E+03  0.00000000000E+00 0. -1.
         -5    1    5    5    0  501  0.52512515612E+02  0.27221685471E+02 -0.27039476019E+03  0.27682846818E+03  0.47000000000E+01 0.  1.
         11    1    6    6    0    0 -0.59011968763E+02 -0.92629271112E+01 -0.29825733394E+03  0.30418029444E+03  0.00000000000E+00 0. -1.
        -12    1    6    6    0    0 -0.11880420029E+02 -0.30423350141E+02 -0.38598640374E+02  0.50562630989E+02  0.00000000000E+00 0.  1.
<mgrwt>
<rscale>  2 0.17373443E+03</rscale>
<asrwt>0</asrwt>
<pdfrwt beam="2">  1        2 0.19848058E+00 0.17373443E+03</pdfrwt>
<pdfrwt beam="1">  1       -2 0.36048213E-02 0.17373443E+03</pdfrwt>
<totfact> 0.56445802E+03</totfact>
</mgrwt>
</event>
<event>
12    1  0.4154313E-002  0.2650541E+03  0.7546771E-02  0.1104144E+00
          1   -1    0    0  502    0  0.00000000000E+00  0.00000000000E+00  0.12718601830E+04  0.12718601830E+04  0.00000000000E+00 0.  1.
         -1   -1    0    0    0  501 -0.00000000000E+00 -0.00000000000E+00 -0.70989218519E+02  0.70989218519E+02  0.00000000000E+00 0. -1.
          6    2    1    2  502    0  0.13667975305E+03  0.14822152803E+03  0.91795270276E+03  0.95564907534E+03  0.17313871438E+03 0.  0.
         24    2    3    3    0    0  0.16294128860E+03  0.13108433839E+03  0.69023617436E+03  0.72573548542E+03  0.80827291850E+02 0.  0.
         -6    2    1    2    0  501 -0.13667975305E+03 -0.14822152803E+03  0.28291826168E+03  0.38720032614E+03  0.17096892557E+03 0.  0.
        -24    2    5    5    0    0 -0.26491754134E+01 -0.39898462943E+02  0.68078730250E+02  0.11174398398E+03  0.79076538674E+02 0.  0.
          5    1    3    3  502    0 -0.26261535549E+02  0.17137189637E+02  0.22771652841E+03  0.22991358992E+03  0.47000000000E+01 0. -1.
        -11    1    4    4    0    0  0.68324907498E+02  0.77721870355E+01  0.20919196546E+03  0.22020440116E+03  0.00000000000E+00 0.  1.
         12    1    4    4    0    0  0.94616381101E+02  0.12331215135E+03  0.48104420890E+03  0.50553108427E+03  0.00000000000E+00 0. -1.
         -5    1    5    5    0  501 -0.13403057764E+03 -0.10832306508E+03  0.21483953143E+03  0.27545634216E+03  0.47000000000E+01 0.  1.
         11    1    6    6    0    0  0.15459639848E+01 -0.53666155369E+01 -0.18029594832E+02  0.18874767727E+02  0.00000000000E+00 0. -1.
        -12    1    6    6    0    0 -0.41951393982E+01 -0.34531847406E+02  0.86108325081E+02  0.92869216257E+02  0.00000000000E+00 0.  1.
<mgrwt>
<rscale>  2 0.26505410E+03</rscale>
<asrwt>0</asrwt>
<pdfrwt beam="1">  1        1 0.19567078E+00 0.26505410E+03</pdfrwt>
<pdfrwt beam="2">  1       -1 0.10921419E-01 0.26505410E+03</pdfrwt>
<totfact> 0.54400884E+02</totfact>
</mgrwt>
</event>
<event>
11    1  0.4154313E-002  0.2485320E+03  0.7546771E-02  0.1114236E+00
          1   -1    0    0  502    0  0.00000000000E+00  0.00000000000E+00  0.40741855214E+03  0.40741855214E+03  0.00000000000E+00 0.  1.
         -1   -1    0    0    0  501 -0.00000000000E+00 -0.00000000000E+00 -0.15564302416E+03  0.15564302416E+03  0.00000000000E+00 0. -1.
          6    2    1    2  502    0  0.16644357017E+03 -0.59010089106E+02  0.80293266320E+02  0.26065520245E+03  0.17409328902E+03 0.  0.
         -6    2    1    2    0  501 -0.16644357017E+03  0.59010089106E+02  0.17148226166E+03  0.30240637384E+03  0.17566387280E+03 0.  0.
        -24    2    4    4    0    0 -0.61321902251E+02 -0.17598069336E+02  0.13057807282E+03  0.16597097642E+03  0.80160240595E+02 0.  0.
          5    1    3    3  502    0  0.17802645609E+03 -0.81411315862E+02  0.59711710838E+02  0.20471638876E+03  0.47000000000E+01 0. -1.
        -11    1    3    3    0    0 -0.20309370617E+01  0.64546878355E+01 -0.14631584133E+02  0.16120513473E+02  0.00000000000E+00 0.  1.
         12    1    3    3    0    0 -0.95519488583E+01  0.15946538921E+02  0.35213139614E+02  0.39818300215E+02  0.00000000000E+00 0. -1.
         -5    1    4    4    0  501 -0.10512166792E+03  0.76608158442E+02  0.40904188846E+02  0.13643539742E+03  0.47000000000E+01 0.  1.
         13    1    5    5    0    0 -0.68315497134E+02 -0.37494333124E+02  0.11801605577E+03  0.14142355386E+03  0.00000000000E+00 0. -1.
        -14    1    5    5    0    0  0.69935948828E+01  0.19896263789E+02  0.12562017042E+02  0.24547422559E+02  0.00000000000E+00 0.  1.
<mgrwt>
<rscale>  2 0.24853204E+03</rscale>
<asrwt>0</asrwt>
<pdfrwt beam="1">  1        1 0.62679777E-01 0.24853204E+03</pdfrwt>
<pdfrwt beam="2">  1       -1 0.23945081E-01 0.24853204E+03</pdfrwt>
<totfact> 0.88723312E+02</totfact>
</mgrwt>
</event>
<event>
12    1  0.4154313E-002  0.2241029E+03  0.7546771E-02  0.1130861E+00
         -1   -1    0    0    0  501 -0.00000000000E+00  0.00000000000E+00  0.35284231593E+03  0.35284231593E+03  0.00000000000E+00 0. -1.
          1   -1    0    0  502    0  0.00000000000E+00 -0.00000000000E+00 -0.14264858114E+03  0.14264858114E+03  0.00000000000E+00 0.  1.
          6    2    1    2  502    0 -0.13648879216E+03  0.26016430348E+02  0.11752107785E+03  0.25522340049E+03  0.17894618014E+03 0.  0.
         24    2    3    3    0    0 -0.25420735445E+02  0.35473840066E+02  0.10481481880E+03  0.14293317456E+03  0.86828215636E+02 0.  0.
         -6    2    1    2    0  501  0.13648879216E+03 -0.26016430348E+02  0.92672656951E+02  0.24026749658E+03  0.17272580448E+03 0.  0.
        -24    2    5    5    0    0  0.11604311066E+03 -0.29465742614E+02 -0.11720723465E+01  0.14404459461E+03  0.80082694534E+02 0.  0.
          5    1    3    3  502    0 -0.11106805671E+03 -0.94574097178E+01  0.12706259042E+02  0.11229022593E+03  0.47000000000E+01 0. -1.
        -11    1    4    4    0    0 -0.22980606612E+02  0.55338956951E+02  0.10716659413E+03  0.12278105446E+03  0.00000000000E+00 0.  1.
         12    1    4    4    0    0 -0.24401288333E+01 -0.19865116885E+02 -0.23517753248E+01  0.20152120106E+02  0.00000000000E+00 0. -1.
         -5    1    5    5    0  501  0.20445681500E+02  0.34493122666E+01  0.93844729297E+02  0.96222901972E+02  0.47000000000E+01 0.  1.
         13    1    6    6    0    0  0.22734940652E+02 -0.27288698515E+02  0.29108080334E+02  0.45922009253E+02  0.00000000000E+00 0. -1.
        -14    1    6    6    0    0  0.93308170004E+02 -0.21770440989E+01 -0.30280152680E+02  0.98122585355E+02  0.00000000000E+00 0.  1.
<mgrwt>
<rscale>  2 0.22410289E+03</rscale>
<asrwt>0</asrwt>
<pdfrwt beam="2">  1        1 0.21945936E-01 0.22410289E+03</pdfrwt>
<pdfrwt beam="1">  1       -1 0.54283433E-01 0.22410289E+03</pdfrwt>
<totfact> 0.79680474E+02</totfact>
</mgrwt>
</event>
<event>
12    1  0.4154313E-002  0.1886964E+03  0.7546771E-02  0.1159642E+00
          3   -1    0    0  502    0  0.00000000000E+00  0.00000000000E+00  0.99440677115E+02  0.99440677115E+02  0.00000000000E+00 0. -1.
         -3   -1    0    0    0  501 -0.00000000000E+00 -0.00000000000E+00 -0.36347281425E+03  0.36347281425E+03  0.00000000000E+00 0.  1.
          6    2    1    2  502    0 -0.31302326728E+02  0.23889596520E+02 -0.16402111810E+03  0.25628663679E+03  0.19294912421E+03 0.  0.
         24    2    3    3    0    0 -0.97749140864E+02  0.26839562795E+02 -0.99729261436E+02  0.16366150929E+03  0.81017944720E+02 0.  0.
         -6    2    1    2    0  501  0.31302326728E+02 -0.23889596520E+02 -0.10001101903E+03  0.20662685458E+03  0.17647069055E+03 0.  0.
        -24    2    5    5    0    0 -0.27745005975E+02  0.99457398960E+01 -0.10807088637E+03  0.13793574197E+03  0.80487572542E+02 0.  0.
          5    1    3    3  502    0  0.66446814137E+02 -0.29499662752E+01 -0.64291856664E+02  0.92625127494E+02  0.47000000000E+01 0. -1.
        -11    1    4    4    0    0 -0.58566134575E+02  0.36920959168E+02 -0.10184338480E+03  0.12314716551E+03  0.00000000000E+00 0.  1.
         12    1    4    4    0    0 -0.39183006289E+02 -0.10081396373E+02  0.21141233650E+01  0.40514343784E+02  0.00000000000E+00 0. -1.
         -5    1    5    5    0  501  0.59047332702E+02 -0.33835336416E+02  0.80598673352E+01  0.68691112606E+02  0.47000000000E+01 0.  1.
         13    1    6    6    0    0 -0.23102978473E+02 -0.20181818316E+02 -0.58019401976E+01  0.31220440658E+02  0.00000000000E+00 0. -1.
        -14    1    6    6    0    0 -0.46420275014E+01  0.30127558211E+02 -0.10226894617E+03  0.10671530131E+03  0.00000000000E+00 0.  1.
<mgrwt>
<rscale>  2 0.18869639E+03</rscale>
<asrwt>0</asrwt>
<pdfrwt beam="1">  1        3 0.15298566E-01 0.18869639E+03</pdfrwt>
<pdfrwt beam="2">  1       -3 0.55918893E-01 0.18869639E+03</pdfrwt>
<totfact> 0.27707963E+02</totfact>
</mgrwt>
</event>
<event>
12    1  0.4154313E-002  0.2282461E+03  0.7546771E-02  0.1127880E+00
         -1   -1    0    0    0  501 -0.00000000000E+00  0.00000000000E+00  0.10217226258E+03  0.10217226258E+03  0.00000000000E+00 0.  1.
          1   -1    0    0  502    0  0.00000000000E+00 -0.00000000000E+00 -0.53035239961E+03  0.53035239961E+03  0.00000000000E+00 0. -1.
          6    2    1    2  502    0 -0.14344364734E+03 -0.13086068444E+02 -0.27567651562E+03  0.35752477353E+03  0.17629264667E+03 0.  0.
         24    2    3    3    0    0 -0.10507580342E+03 -0.75499462130E+02 -0.16484744364E+03  0.22458607956E+03  0.80765922324E+02 0.  0.
         -6    2    1    2    0  501  0.14344364734E+03  0.13086068444E+02 -0.15250362140E+03  0.27499988866E+03  0.17782086231E+03 0.  0.
        -24    2    5    5    0    0  0.78427424179E+01  0.39574561628E+02 -0.73512117831E+02  0.11577993600E+03  0.79832998042E+02 0.  0.
          5    1    3    3  502    0 -0.38367843921E+02  0.62413393686E+02 -0.11082907198E+03  0.13293869397E+03  0.47000000000E+01 0. -1.
        -11    1    4    4    0    0 -0.69676500478E+02 -0.61408012783E+02 -0.16154813347E+03  0.18634258284E+03  0.00000000000E+00 0.  1.
         12    1    4    4    0    0 -0.35399302946E+02 -0.14091449346E+02 -0.32993101777E+01  0.38243496720E+02  0.00000000000E+00 0. -1.
         -5    1    5    5    0  501  0.13560090493E+03 -0.26488493184E+02 -0.78991503570E+02  0.15921995266E+03  0.47000000000E+01 0.  1.
         11    1    6    6    0    0  0.35000600929E+02  0.45988406898E+02 -0.64156732870E+02  0.86348491632E+02  0.00000000000E+00 0. -1.
        -12    1    6    6    0    0 -0.27157858512E+02 -0.64138452698E+01 -0.93553849609E+01  0.29431444372E+02  0.00000000000E+00 0.  1.
<mgrwt>
<rscale>  2 0.22824614E+03</rscale>
<asrwt>0</asrwt>
<pdfrwt beam="2">  1        1 0.81592676E-01 0.22824614E+03</pdfrwt>
<pdfrwt beam="1">  1       -1 0.15718810E-01 0.22824614E+03</pdfrwt>
<totfact> 0.12424834E+03</totfact>
</mgrwt>
</event>
<event>
12    1  0.4154313E-002  0.2640849E+03  0.7546771E-02  0.1104713E+00
         -3   -1    0    0    0  501 -0.00000000000E+00  0.00000000000E+00  0.17392707110E+04  0.17392707110E+04  0.00000000000E+00 0. -1.
          3   -1    0    0  502    0  0.00000000000E+00 -0.00000000000E+00 -0.13296390296E+03  0.13296390296E+03  0.00000000000E+00 0.  1.
          6    2    1    2  502    0 -0.20136505154E+02  0.19819371623E+03  0.21068282337E+02  0.26519413159E+03  0.17377521951E+03 0.  0.
         24    2    3    3    0    0  0.29934034921E+02  0.67689845857E+02 -0.34237539116E+02  0.11479751244E+03  0.80797884241E+02 0.  0.
         -6    2    1    2    0  501  0.20136505154E+02 -0.19819371623E+03  0.15852385257E+04  0.16070404824E+04  0.17294999447E+03 0.  0.
        -24    2    5    5    0    0 -0.50011079653E+02 -0.11273947626E+03  0.10639303487E+04  0.10741170205E+04  0.81044983006E+02 0.  0.
          5    1    3    3  502    0 -0.50070540075E+02  0.13050387038E+03  0.55305821453E+02  0.15039661916E+03  0.47000000000E+01 0. -1.
        -13    1    4    4    0    0 -0.24256519638E+02  0.38426464387E+02 -0.24922660965E+01  0.45510254894E+02  0.00000000000E+00 0.  1.
         14    1    4    4    0    0  0.54190554559E+02  0.29263381470E+02 -0.31745273020E+02  0.69287257541E+02  0.00000000000E+00 0. -1.
         -5    1    5    5    0  501  0.70147584806E+02 -0.85454239970E+02  0.52130817707E+03  0.53292346192E+03  0.47000000000E+01 0.  1.
         13    1    6    6    0    0 -0.62414001200E+02 -0.68253104392E+02  0.51431418621E+03  0.52256394436E+03  0.00000000000E+00 0. -1.
        -14    1    6    6    0    0  0.12402921548E+02 -0.44486371871E+02  0.54961616244E+03  0.55155307611E+03  0.00000000000E+00 0.  1.
<mgrwt>
<rscale>  2 0.26408492E+03</rscale>
<asrwt>0</asrwt>
<pdfrwt beam="2">  1        3 0.20455986E-01 0.26408492E+03</pdfrwt>
<pdfrwt beam="1">  1       -3 0.26758009E+00 0.26408492E+03</pdfrwt>
<totfact> 0.34834557E+00</totfact>
</mgrwt>
</event>
<event>
12    1  0.4154313E-002  0.1825405E+03  0.7546771E-02  0.1165367E+00
          2   -1    0    0  502    0  0.00000000000E+00  0.00000000000E+00  0.13252885898E+03  0.13252885898E+03  0.00000000000E+00 0.  1.
         -2   -1    0    0    0  501 -0.00000000000E+00 -0.00000000000E+00 -0.25806458283E+03  0.25806458283E+03  0.00000000000E+00 0. -1.
          6    2    1    2  502    0 -0.33957062538E+02  0.44070523352E+02 -0.93730945754E+02  0.20428829205E+03  0.17277998423E+03 0.  0.
         24    2    3    3    0    0 -0.77855559360E+02  0.41765835293E+02 -0.24039890544E+02  0.12175755361E+03  0.80256541191E+02 0.  0.
         -6    2    1    2    0  501  0.33957062538E+02 -0.44070523352E+02 -0.31804778096E+02  0.18630514976E+03  0.17493647930E+03 0.  0.
        -24    2    5    5    0    0  0.36258906918E+02  0.33875049807E+02 -0.50493654367E+02  0.10597971817E+03  0.78866115681E+02 0.  0.
          5    1    3    3  502    0  0.43898496822E+02  0.23046880595E+01 -0.69691055209E+02  0.82530738434E+02  0.47000000000E+01 0. -1.
        -13    1    4    4    0    0 -0.63543171913E+02  0.28284896433E+02 -0.52515841589E+02  0.87153219567E+02  0.00000000000E+00 0.  1.
         14    1    4    4    0    0 -0.14312387447E+02  0.13480938860E+02  0.28475951045E+02  0.34604334048E+02  0.00000000000E+00 0. -1.
         -5    1    5    5    0  501 -0.23018443801E+01 -0.77945573159E+02  0.18688876271E+02  0.80325431582E+02  0.47000000000E+01 0.  1.
         11    1    6    6    0    0  0.19283799025E+02  0.52521883110E+02 -0.79327860718E+01  0.56509664705E+02  0.00000000000E+00 0. -1.
        -12    1    6    6    0    0  0.16975107893E+02 -0.18646833303E+02 -0.42560868295E+02  0.49470053469E+02  0.00000000000E+00 0.  1.
<mgrwt>
<rscale>  2 0.18254049E+03</rscale>
<asrwt>0</asrwt>
<pdfrwt beam="1">  1        2 0.20389055E-01 0.18254049E+03</pdfrwt>
<pdfrwt beam="2">  1       -2 0.39702244E-01 0.18254049E+03</pdfrwt>
<totfact> 0.16181168E+03</totfact>
</mgrwt>
</event>
<event>
12    1  0.4154313E-002  0.1807027E+03  0.7546771E-02  0.1167125E+00
         -4   -1    0    0    0  501 -0.00000000000E+00  0.00000000000E+00  0.88392329047E+02  0.88392329047E+02  0.00000000000E+00 0. -1.
          4   -1    0    0  502    0  0.00000000000E+00 -0.00000000000E+00 -0.44446820996E+03  0.44446820996E+03  0.00000000000E+00 0.  1.
          6    2    1    2  502    0  0.50499400951E+02  0.44765539833E+01 -0.28723732159E+03  0.33916694112E+03  0.17308583421E+03 0.  0.
         24    2    3    3    0    0  0.25205073979E+02  0.57901108013E+02 -0.24707123696E+03  0.26754717915E+03  0.80928751858E+02 0.  0.
         -6    2    1    2    0  501 -0.50499400951E+02 -0.44765539833E+01 -0.68838559323E+02  0.19369359788E+03  0.17380515982E+03 0.  0.
        -24    2    5    5    0    0 -0.97103325671E+02 -0.89085978809E+01 -0.72669789082E+02  0.14648833193E+03  0.81667093576E+02 0.  0.
          5    1    3    3  502    0  0.25294326972E+02 -0.53424554030E+02 -0.40166084633E+02  0.71619761972E+02  0.47000000000E+01 0. -1.
        -11    1    4    4    0    0 -0.19390470917E+02  0.34806729517E+02 -0.48722905967E+02  0.62939815284E+02  0.00000000000E+00 0.  1.
         12    1    4    4    0    0  0.44595544896E+02  0.23094378496E+02 -0.19834833099E+03  0.20460736387E+03  0.00000000000E+00 0. -1.
         -5    1    5    5    0  501  0.46603924720E+02  0.44320438976E+01  0.38312297585E+01  0.47205265955E+02  0.47000000000E+01 0.  1.
         11    1    6    6    0    0 -0.68224394112E+02 -0.35837363533E+02 -0.18151998901E+02  0.79173099226E+02  0.00000000000E+00 0. -1.
        -12    1    6    6    0    0 -0.28878931559E+02  0.26928765652E+02 -0.54517790180E+02  0.67315232701E+02  0.00000000000E+00 0.  1.
<mgrwt>
<rscale>  2 0.18070269E+03</rscale>
<asrwt>0</asrwt>
<pdfrwt beam="2">  1        4 0.68379724E-01 0.18070269E+03</pdfrwt>
<pdfrwt beam="1">  1       -4 0.13598820E-01 0.18070269E+03</pdfrwt>
<totfact> 0.15720470E+02</totfact>
</mgrwt>
</event>
<event>
12    1  0.4154313E-002  0.1978208E+03  0.7546771E-02  0.1151591E+00
          2   -1    0    0  502    0  0.00000000000E+00  0.00000000000E+00  0.29006173835E+03  0.29006173835E+03  0.00000000000E+00 0.  1.
         -2   -1    0    0    0  501 -0.00000000000E+00 -0.00000000000E+00 -0.35053222493E+03  0.35053222493E+03  0.00000000000E+00 0. -1.
          6    2    1    2  502    0 -0.16839590505E+02 -0.77092286848E+02  0.22120435749E+03  0.29298282495E+03  0.17515928591E+03 0.  0.
         24    2    3    3    0    0 -0.38452221035E+02 -0.37567017286E+02  0.22776216444E+03  0.24721769014E+03  0.79693968899E+02 0.  0.
         -6    2    1    2    0  501  0.16839590505E+02  0.77092286848E+02 -0.28167484408E+03  0.34761113833E+03  0.18779242051E+03 0.  0.
        -24    2    5    5    0    0  0.73667420760E+01  0.68656944895E+02 -0.51664881855E+02  0.11720375438E+03  0.79368854429E+02 0.  0.
          5    1    3    3  502    0  0.21612630530E+02 -0.39525269562E+02 -0.65578069422E+01  0.45765134811E+02  0.47000000000E+01 0. -1.
        -11    1    4    4    0    0 -0.86423251488E+01  0.10494750095E+02  0.15234520632E+03  0.15295061769E+03  0.00000000000E+00 0.  1.
         12    1    4    4    0    0 -0.29809895886E+02 -0.48061767381E+02  0.75416958120E+02  0.94267072451E+02  0.00000000000E+00 0. -1.
         -5    1    5    5    0  501  0.94728484287E+01  0.84353419532E+01 -0.23000996223E+03  0.23040738394E+03  0.47000000000E+01 0.  1.
         11    1    6    6    0    0  0.54481976871E+01  0.22797701998E+02 -0.65253077643E+02  0.69335288392E+02  0.00000000000E+00 0. -1.
        -12    1    6    6    0    0  0.19185443889E+01  0.45859242897E+02  0.13588195789E+02  0.47868465992E+02  0.00000000000E+00 0.  1.
<mgrwt>
<rscale>  2 0.19782082E+03</rscale>
<asrwt>0</asrwt>
<pdfrwt beam="1">  1        2 0.44624883E-01 0.19782082E+03</pdfrwt>
<pdfrwt beam="2">  1       -2 0.53928034E-01 0.19782082E+03</pdfrwt>
<totfact> 0.37628486E+02</totfact>
</mgrwt>
</event>
<event>
12    1  0.4154313E-002  0.2202042E+03  0.7546771E-02  0.1133731E+00
         -1   -1    0    0    0  501 -0.00000000000E+00  0.00000000000E+00  0.71687123746E+02  0.71687123746E+02  0.00000000000E+00 0. -1.
          1   -1    0    0  502    0  0.00000000000E+00 -0.00000000000E+00 -0.68535031148E+03  0.68535031148E+03  0.00000000000E+00 0.  1.
          6    2    1    2  502    0  0.90601120358E+02 -0.10571313093E+03 -0.26701848351E+03  0.34761201094E+03  0.17364161527E+03 0.  0.
         24    2    3    3    0    0 -0.70678803595E+01 -0.94088276947E+02 -0.16391281615E+03  0.20503838234E+03  0.79188181830E+02 0.  0.
         -6    2    1    2    0  501 -0.90601120358E+02  0.10571313093E+03 -0.34664470422E+03  0.40942542428E+03  0.16757922909E+03 0.  0.
        -24    2    5    5    0    0 -0.26221471715E+02  0.12402855526E+03 -0.22389446318E+03  0.26953294556E+03  0.80303362328E+02 0.  0.
          5    1    3    3  502    0  0.97669000718E+02 -0.11624853986E+02 -0.10310566736E+03  0.14257362860E+03  0.47000000000E+01 0. -1.
        -13    1    4    4    0    0 -0.32602893091E+01  0.12005896882E+02 -0.39503935133E+01  0.13052840887E+02  0.00000000000E+00 0.  1.
         14    1    4    4    0    0 -0.38075910504E+01 -0.10609417383E+03 -0.15996242264E+03  0.19198554145E+03  0.00000000000E+00 0. -1.
         -5    1    5    5    0  501 -0.64379648644E+02 -0.18315424326E+02 -0.12275024104E+03  0.13989247873E+03  0.47000000000E+01 0.  1.
         13    1    6    6    0    0 -0.53428340694E+02  0.68782647243E+02 -0.14881774033E+03  0.17243073969E+03  0.00000000000E+00 0. -1.
        -14    1    6    6    0    0  0.27206868979E+02  0.55245908015E+02 -0.75076722848E+02  0.97102205874E+02  0.00000000000E+00 0.  1.
<mgrwt>
<rscale>  2 0.22020423E+03</rscale>
<asrwt>0</asrwt>
<pdfrwt beam="2">  1        1 0.10543851E+00 0.22020423E+03</pdfrwt>
<pdfrwt beam="1">  1       -1 0.11028788E-01 0.22020423E+03</pdfrwt>
<totfact> 0.15180686E+03</totfact>
</mgrwt>
</event>
<event>
12    1  0.4154313E-002  0.2291178E+03  0.7546771E-02  0.1127262E+00
         -1   -1    0    0    0  501 -0.00000000000E+00  0.00000000000E+00  0.19477003495E+03  0.19477003495E+03  0.00000000000E+00 0.  1.
          1   -1    0    0  502    0  0.00000000000E+00 -0.00000000000E+00 -0.26957765069E+03  0.26957765069E+03  0.00000000000E+00 0. -1.
          6    2    1    2  502    0 -0.39622993213E+02 -0.14387194936E+03 -0.40286191658E+02  0.23145384167E+03  0.17227531506E+03 0.  0.
         24    2    3    3    0    0 -0.31252223975E+02 -0.70725645190E+02  0.43297408626E+02  0.11996949376E+03  0.80865291987E+02 0.  0.
         -6    2    1    2    0  501  0.39622993213E+02  0.14387194936E+03 -0.34521424082E+02  0.23289384398E+03  0.17543857740E+03 0.  0.
        -24    2    5    5    0    0 -0.20837131156E+02  0.21519725305E+02 -0.40583525384E+02  0.96203198940E+02  0.81919157354E+02 0.  0.
          5    1    3    3  502    0 -0.83707692384E+01 -0.73146304173E+02 -0.83583600284E+02  0.11148434791E+03  0.47000000000E+01 0. -1.
        -13    1    4    4    0    0  0.26376070891E+02 -0.10113610658E+02  0.10834239147E+02  0.30254966106E+02  0.00000000000E+00 0.  1.
         14    1    4    4    0    0 -0.57628294866E+02 -0.60612034532E+02  0.32463169480E+02  0.89714527653E+02  0.00000000000E+00 0. -1.
         -5    1    5    5    0  501  0.60460124369E+02  0.12235222406E+03  0.60621013022E+01  0.13669064504E+03  0.47000000000E+01 0.  1.
         13    1    6    6    0    0  0.18043964725E+02  0.25448510755E+02 -0.47190128824E+02  0.56569599796E+02  0.00000000000E+00 0. -1.
        -14    1    6    6    0    0 -0.38881095881E+02 -0.39287854498E+01  0.66066034403E+01  0.39633599143E+02  0.00000000000E+00 0.  1.
<mgrwt>
<rscale>  2 0.22911783E+03</rscale>
<asrwt>0</asrwt>
<pdfrwt beam="2">  1        1 0.41473484E-01 0.22911783E+03</pdfrwt>
<pdfrwt beam="1">  1       -1 0.29964621E-01 0.22911783E+03</pdfrwt>
<totfact> 0.10270102E+03</totfact>
</mgrwt>
</event>
<event>
12    1  0.4154313E-002  0.2061743E+03  0.7546771E-02  0.1144632E+00
          2   -1    0    0  502    0  0.00000000000E+00  0.00000000000E+00  0.23960206949E+04  0.23960206949E+04  0.00000000000E+00 0.  1.
         -2   -1    0    0    0  501 -0.00000000000E+00 -0.00000000000E+00 -0.29793474191E+02  0.29793474191E+02  0.00000000000E+00 0. -1.
          6    2    1    2  502    0  0.94900541396E+02 -0.60259054171E+02  0.19547881192E+04  0.19656378681E+04  0.17291145474E+03 0.  0.
         24    2    3    3    0    0 -0.15770288416E+02 -0.41027119315E+02  0.72775538680E+03  0.73346526807E+03  0.80071654978E+02 0.  0.
         -6    2    1    2    0  501 -0.94900541396E+02  0.60259054171E+02  0.41143910150E+03  0.46017630098E+03  0.17275076664E+03 0.  0.
        -24    2    5    5    0    0 -0.11216689204E+03  0.58555899260E+02  0.22645411050E+03  0.27432000032E+03  0.89217674285E+02 0.  0.
          5    1    3    3  502    0  0.11067082981E+03 -0.19231934856E+02  0.12270327324E+04  0.12321726001E+04  0.47000000000E+01 0. -1.
        -13    1    4    4    0    0 -0.76716185503E+01 -0.63781574761E+02  0.60146795540E+03  0.60488895211E+03  0.00000000000E+00 0.  1.
         14    1    4    4    0    0 -0.80986698656E+01  0.22754455446E+02  0.12628743140E+03  0.12857631596E+03  0.00000000000E+00 0. -1.
         -5    1    5    5    0  501  0.17266350641E+02  0.17031549111E+01  0.18498499100E+03  0.18585630066E+03  0.47000000000E+01 0.  1.
         13    1    6    6    0    0  0.11190921708E+02 -0.82857505487E+01  0.14217908415E+02  0.19900736432E+02  0.00000000000E+00 0. -1.
        -14    1    6    6    0    0 -0.12335781374E+03  0.66841649808E+02  0.21223620209E+03  0.25441926389E+03  0.00000000000E+00 0.  1.
<mgrwt>
<rscale>  2 0.20617434E+03</rscale>
<asrwt>0</asrwt>
<pdfrwt beam="1">  1        2 0.36861842E+00 0.20617434E+03</pdfrwt>
<pdfrwt beam="2">  1       -2 0.45836133E-02 0.20617434E+03</pdfrwt>
<totfact> 0.10323111E+03</totfact>
</mgrwt>
</event>
<event>
12    1  0.4154313E-002  0.2010558E+03  0.7546771E-02  0.1148851E+00
         -1   -1    0    0    0  501 -0.00000000000E+00  0.00000000000E+00  0.12512434965E+03  0.12512434965E+03  0.00000000000E+00 0.  1.
          1   -1    0    0  502    0  0.00000000000E+00 -0.00000000000E+00 -0.32449853580E+03  0.32449853580E+03  0.00000000000E+00 0. -1.
          6    2    1    2  502    0  0.91081032443E+02 -0.47719820829E+02 -0.11439976087E+03  0.23094304531E+03  0.17226273283E+03 0.  0.
         24    2    3    3    0    0  0.42179925937E+01 -0.31335278419E+02  0.15565743895E+01  0.85060892160E+02  0.78950879135E+02 0.  0.
         -6    2    1    2    0  501 -0.91081032443E+02  0.47719820829E+02 -0.84974425282E+02  0.21867984014E+03  0.17328382429E+03 0.  0.
        -24    2    5    5    0    0 -0.67761336097E+02 -0.40716339122E+01 -0.11352099737E+03  0.15493692054E+03  0.80686155123E+02 0.  0.
          5    1    3    3  502    0  0.86863039849E+02 -0.16384542411E+02 -0.11595633526E+03  0.14588215315E+03  0.47000000000E+01 0. -1.
        -11    1    4    4    0    0  0.29383891006E+02 -0.45672927434E+02  0.92550825189E+01  0.55091613730E+02  0.00000000000E+00 0.  1.
         12    1    4    4    0    0 -0.25165898412E+02  0.14337649015E+02 -0.76985081295E+01  0.29969278430E+02  0.00000000000E+00 0. -1.
         -5    1    5    5    0  501 -0.23319696346E+02  0.51791454741E+02  0.28546572089E+02  0.63742919606E+02  0.47000000000E+01 0.  1.
         13    1    6    6    0    0 -0.38977772308E+02 -0.24094368146E+02 -0.11064229485E+03  0.11975609680E+03  0.00000000000E+00 0. -1.
        -14    1    6    6    0    0 -0.28783563789E+02  0.20022734234E+02 -0.28787025196E+01  0.35180823736E+02  0.00000000000E+00 0.  1.
<mgrwt>
<rscale>  2 0.20105576E+03</rscale>
<asrwt>0</asrwt>
<pdfrwt beam="2">  1        1 0.49922852E-01 0.20105576E+03</pdfrwt>
<pdfrwt beam="1">  1       -1 0.19249900E-01 0.20105576E+03</pdfrwt>
<totfact> 0.16891000E+03</totfact>
</mgrwt>
</event>
<event>
12    1  0.4154313E-002  0.2067714E+03  0.7546771E-02  0.1144149E+00
          2   -1    0    0  502    0  0.00000000000E+00  0.00000000000E+00  0.20771663916E+04  0.20771663916E+04  0.00000000000E+00 0. -1.
         -2   -1    0    0    0  501 -0.00000000000E+00 -0.00000000000E+00 -0.25955585536E+02  0.25955585536E+02  0.00000000000E+00 0.  1.
          6    2    1    2  502    0 -0.75597704852E+01  0.11364040877E+03  0.15085731055E+04  0.15228367444E+04  0.17397598332E+03 0.  0.
         24    2    3    3    0    0  0.13102043004E+01  0.11676298317E+03  0.69708266280E+03  0.71127820952E+03  0.79731685555E+02 0.  0.
         -6    2    1    2    0  501  0.75597704852E+01 -0.11364040877E+03  0.54263770058E+03  0.58028523277E+03  0.17118406656E+03 0.  0.
        -24    2    5    5    0    0 -0.55250062623E+02 -0.10297913493E+03  0.38707509630E+03  0.41211700823E+03  0.79724692806E+02 0.  0.
          5    1    3    3  502    0 -0.88699747856E+01 -0.31225744015E+01  0.81149044273E+03  0.81155853490E+03  0.47000000000E+01 0. -1.
        -11    1    4    4    0    0  0.16109743199E+02  0.26966389758E+02  0.38272693906E+03  0.38401382773E+03  0.00000000000E+00 0.  1.
         12    1    4    4    0    0 -0.14799538898E+02  0.89796593415E+02  0.31435572374E+03  0.32726438179E+03  0.00000000000E+00 0. -1.
         -5    1    5    5    0  501  0.62809833109E+02 -0.10661273838E+02  0.15556260428E+03  0.16816822454E+03  0.47000000000E+01 0.  1.
         11    1    6    6    0    0 -0.14347680597E+02 -0.78767353963E+02  0.32028675355E+03  0.33014202473E+03  0.00000000000E+00 0. -1.
        -12    1    6    6    0    0 -0.40902382026E+02 -0.24211780971E+02  0.66788342751E+02  0.81974983505E+02  0.00000000000E+00 0.  1.
<mgrwt>
<rscale>  2 0.20677135E+03</rscale>
<asrwt>0</asrwt>
<pdfrwt beam="1">  1        2 0.31956393E+00 0.20677135E+03</pdfrwt>
<pdfrwt beam="2">  1       -2 0.39931686E-02 0.20677135E+03</pdfrwt>
<totfact> 0.18728423E+03</totfact>
</mgrwt>
</event>
<event>
12    1  0.4154313E-002  0.1798306E+03  0.7546771E-02  0.1167967E+00
         -1   -1    0    0    0  501 -0.00000000000E+00  0.00000000000E+00  0.14709526002E+02  0.14709526002E+02  0.00000000000E+00 0. -1.
          1   -1    0    0  502    0  0.00000000000E+00 -0.00000000000E+00 -0.25100228847E+04  0.25100228847E+04  0.00000000000E+00 0.  1.
          6    2    1    2  502    0  0.88922198426E+01 -0.41661570018E+02 -0.79902191922E+03  0.81886671980E+03  0.17404573943E+03 0.  0.
         24    2    3    3    0    0 -0.45088420809E+02  0.13418798792E+02 -0.31234065165E+03  0.32609039854E+03  0.81026140806E+02 0.  0.
         -6    2    1    2    0  501 -0.88922198426E+01  0.41661570018E+02 -0.16962914394E+04  0.17058656909E+04  0.17538058546E+03 0.  0.
        -24    2    5    5    0    0  0.47235735337E+02  0.68778512821E+02 -0.12188681048E+04  0.12243671899E+04  0.80460303045E+02 0.  0.
          5    1    3    3  502    0  0.53980640652E+02 -0.55080368810E+02 -0.48668126756E+03  0.49277632126E+03  0.47000000000E+01 0. -1.
        -13    1    4    4    0    0 -0.19249993936E+02  0.25929345367E+02 -0.28372359565E+03  0.28555554967E+03  0.00000000000E+00 0.  1.
         14    1    4    4    0    0 -0.25838426873E+02 -0.12510546576E+02 -0.28617056002E+02  0.40534848873E+02  0.00000000000E+00 0. -1.
         -5    1    5    5    0  501 -0.56127955180E+02 -0.27116942802E+02 -0.47742333466E+03  0.48149850095E+03  0.47000000000E+01 0.  1.
         11    1    6    6    0    0  0.76251069831E+01  0.42194472639E+02 -0.20797130606E+03  0.21234542595E+03  0.00000000000E+00 0. -1.
        -12    1    6    6    0    0  0.39610628354E+02  0.26584040181E+02 -0.10108967987E+04  0.10120217640E+04  0.00000000000E+00 0.  1.
<mgrwt>
<rscale>  2 0.17983062E+03</rscale>
<asrwt>0</asrwt>
<pdfrwt beam="2">  1        1 0.38615741E+00 0.17983062E+03</pdfrwt>
<pdfrwt beam="1">  1       -1 0.22630038E-02 0.17983062E+03</pdfrwt>
<totfact> 0.90363674E+02</totfact>
</mgrwt>
</event>
<event>
12    1  0.4154313E-002  0.2044679E+03  0.7546771E-02  0.1146023E+00
          2   -1    0    0  502    0  0.00000000000E+00  0.00000000000E+00  0.25890870944E+04  0.25890870944E+04  0.00000000000E+00 0.  1.
         -2   -1    0    0    0  501 -0.00000000000E+00 -0.00000000000E+00 -0.16937680644E+02  0.16937680644E+02  0.00000000000E+00 0. -1.
          6    2    1    2  502    0  0.12501822441E+02 -0.10851628152E+03  0.15706718573E+04  0.15839929565E+04  0.17346908598E+03 0.  0.
         24    2    3    3    0    0 -0.56225245186E+02 -0.47520394450E+02  0.10025550292E+04  0.10084734273E+04  0.80514600358E+02 0.  0.
         -6    2    1    2    0  501 -0.12501822441E+02  0.10851628152E+03  0.10014775565E+04  0.10220318186E+04  0.17221981086E+03 0.  0.
        -24    2    5    5    0    0  0.38802684336E+02  0.11159806191E+03  0.57871815068E+03  0.59613364421E+03  0.80627837014E+02 0.  0.
          5    1    3    3  502    0  0.68727067627E+02 -0.60995887074E+02  0.56811682810E+03  0.57551952915E+03  0.47000000000E+01 0. -1.
        -13    1    4    4    0    0  0.14215188053E+02 -0.28288838533E+02  0.45038301188E+03  0.45149439348E+03  0.00000000000E+00 0.  1.
         14    1    4    4    0    0 -0.70440433238E+02 -0.19231555917E+02  0.55217201736E+03  0.55697903384E+03  0.00000000000E+00 0. -1.
         -5    1    5    5    0  501 -0.51304506778E+02 -0.30817803875E+01  0.42275940578E+03  0.42589817440E+03  0.47000000000E+01 0.  1.
         11    1    6    6    0    0  0.15277523764E+02 -0.91099051250E+01  0.44075141094E+02  0.47529056021E+02  0.00000000000E+00 0. -1.
        -12    1    6    6    0    0  0.23525160572E+02  0.12070796704E+03  0.53464300959E+03  0.54860458819E+03  0.00000000000E+00 0.  1.
<mgrwt>
<rscale>  2 0.20446788E+03</rscale>
<asrwt>0</asrwt>
<pdfrwt beam="1">  1        2 0.39832078E+00 0.20446788E+03</pdfrwt>
<pdfrwt beam="2">  1       -2 0.26057991E-02 0.20446788E+03</pdfrwt>
<totfact> 0.18853515E+03</totfact>
</mgrwt>
</event>
<event>
12    1  0.4154313E-002  0.1736484E+03  0.7546771E-02  0.1174096E+00
         -2   -1    0    0    0  501 -0.00000000000E+00  0.00000000000E+00  0.12714214417E+02  0.12714214417E+02  0.00000000000E+00 0. -1.
          2   -1    0    0  502    0  0.00000000000E+00 -0.00000000000E+00 -0.24812520684E+04  0.24812520684E+04  0.00000000000E+00 0.  1.
          6    2    1    2  502    0 -0.43027901998E+00  0.15451575933E+02 -0.96845493096E+03  0.98380201295E+03  0.17240217822E+03 0.  0.
         24    2    3    3    0    0  0.22184034469E+02  0.71678873942E+02 -0.57473683263E+03  0.58541909770E+03  0.82238073988E+02 0.  0.
         -6    2    1    2    0  501  0.43027901998E+00 -0.15451575933E+02 -0.15000829230E+04  0.15101642698E+04  0.17351775033E+03 0.  0.
        -24    2    5    5    0    0  0.66622744776E+01 -0.80824814893E+02 -0.97459854483E+03  0.98057157744E+03  0.71423093582E+02 0.  0.
          5    1    3    3  502    0 -0.22614313489E+02 -0.56227298009E+02 -0.39371809833E+03  0.39838291526E+03  0.47000000000E+01 0. -1.
        -11    1    4    4    0    0  0.37438954815E+02  0.71951272495E+02 -0.55267764861E+03  0.55859756912E+03  0.00000000000E+00 0.  1.
         12    1    4    4    0    0 -0.15254920346E+02 -0.27239855333E+00 -0.22059184017E+02  0.26821528577E+02  0.00000000000E+00 0. -1.
         -5    1    5    5    0  501 -0.62319954576E+01  0.65373238960E+02 -0.52548437816E+03  0.52959269239E+03  0.47000000000E+01 0.  1.
         13    1    6    6    0    0  0.34404579524E+02 -0.55158915301E+02 -0.45777003933E+03  0.46236304992E+03  0.00000000000E+00 0. -1.
        -14    1    6    6    0    0 -0.27742305046E+02 -0.25665899592E+02 -0.51682850550E+03  0.51820852751E+03  0.00000000000E+00 0.  1.
<mgrwt>
<rscale>  2 0.17364844E+03</rscale>
<asrwt>0</asrwt>
<pdfrwt beam="2">  1        2 0.38173069E+00 0.17364844E+03</pdfrwt>
<pdfrwt beam="1">  1       -2 0.19560350E-02 0.17364844E+03</pdfrwt>
<totfact> 0.32977382E+03</totfact>
</mgrwt>
</event>
<event>
12    1  0.4154313E-002  0.2402256E+03  0.7546771E-02  0.1119643E+00
          1   -1    0    0  502    0  0.00000000000E+00  0.00000000000E+00  0.10132537977E+04  0.10132537977E+04  0.00000000000E+00 0.  1.
         -1   -1    0    0    0  501 -0.00000000000E+00 -0.00000000000E+00 -0.62709545932E+02  0.62709545932E+02  0.00000000000E+00 0. -1.
          6    2    1    2  502    0  0.14941699159E+03  0.56879648453E+02  0.32077318113E+03  0.40352356029E+03  0.18540522700E+03 0.  0.
         24    2    3    3    0    0  0.17358043528E+01  0.54052168374E+02  0.12162904353E+03  0.15553524354E+03  0.80454569982E+02 0.  0.
         -6    2    1    2    0  501 -0.14941699159E+03 -0.56879648453E+02  0.62977107066E+03  0.67243978336E+03  0.17321353589E+03 0.  0.
        -24    2    5    5    0    0 -0.16103976275E+03 -0.29581751879E+02  0.60672617780E+03  0.63457923590E+03  0.88120749959E+02 0.  0.
          5    1    3    3  502    0  0.14768118723E+03  0.28274800790E+01  0.19914413760E+03  0.24798831675E+03  0.47000000000E+01 0. -1.
        -11    1    4    4    0    0 -0.20093953655E+02 -0.12395221760E+02  0.14857873161E+02  0.27895607017E+02  0.00000000000E+00 0.  1.
         12    1    4    4    0    0  0.21829758008E+02  0.66447390134E+02  0.10677117037E+03  0.12763963653E+03  0.00000000000E+00 0. -1.
         -5    1    5    5    0  501  0.11622771166E+02 -0.27297896574E+02  0.23044892862E+02  0.37860547460E+02  0.47000000000E+01 0.  1.
         13    1    6    6    0    0 -0.11508482883E+02 -0.17461043291E+02  0.19855745375E+02  0.28837195347E+02  0.00000000000E+00 0. -1.
        -14    1    6    6    0    0 -0.14953127987E+03 -0.12120708588E+02  0.58687043242E+03  0.60574204055E+03  0.00000000000E+00 0.  1.
<mgrwt>
<rscale>  2 0.24022563E+03</rscale>
<asrwt>0</asrwt>
<pdfrwt beam="1">  1        1 0.15588519E+00 0.24022563E+03</pdfrwt>
<pdfrwt beam="2">  1       -1 0.96476232E-02 0.24022563E+03</pdfrwt>
<totfact> 0.10098859E+03</totfact>
</mgrwt>
</event>
<event>
12    1  0.4154313E-002  0.2297953E+03  0.7546771E-02  0.1126784E+00
         -2   -1    0    0    0  501 -0.00000000000E+00  0.00000000000E+00  0.30256596351E+03  0.30256596351E+03  0.00000000000E+00 0. -1.
          2   -1    0    0  502    0  0.00000000000E+00 -0.00000000000E+00 -0.46115444981E+03  0.46115444981E+03  0.00000000000E+00 0.  1.
          6    2    1    2  502    0 -0.10143254553E+03  0.11678581110E+03  0.22122113591E+03  0.32173948114E+03  0.17507145907E+03 0.  0.
         24    2    3    3    0    0 -0.26687811671E+02  0.52207505858E+02  0.26074079655E+02  0.10296654791E+03  0.80525706449E+02 0.  0.
         -6    2    1    2    0  501  0.10143254553E+03 -0.11678581110E+03 -0.37980962221E+03  0.44198093218E+03  0.16481598319E+03 0.  0.
        -24    2    5    5    0    0  0.98736542004E+02 -0.62055565037E+02 -0.15202746624E+03  0.20765323674E+03  0.80048225208E+02 0.  0.
          5    1    3    3  502    0 -0.74744733861E+02  0.64578305242E+02  0.19514705625E+03  0.21877293323E+03  0.47000000000E+01 0. -1.
        -11    1    4    4    0    0 -0.46162086475E+02  0.13885338954E+02 -0.70239253271E+01  0.48714231931E+02  0.00000000000E+00 0.  1.
         12    1    4    4    0    0  0.19474274804E+02  0.38322166904E+02  0.33098004982E+02  0.54252315980E+02  0.00000000000E+00 0. -1.
         -5    1    5    5    0  501  0.26960035278E+01 -0.54730246063E+02 -0.22778215597E+03  0.23432769543E+03  0.47000000000E+01 0.  1.
         11    1    6    6    0    0  0.39022150858E+02 -0.68200813814E+02 -0.10631236549E+03  0.13219832949E+03  0.00000000000E+00 0. -1.
        -12    1    6    6    0    0  0.59714391146E+02  0.61452487771E+01 -0.45715100749E+02  0.75454907256E+02  0.00000000000E+00 0.  1.
<mgrwt>
<rscale>  2 0.22979533E+03</rscale>
<asrwt>0</asrwt>
<pdfrwt beam="2">  1        2 0.70946839E-01 0.22979533E+03</pdfrwt>
<pdfrwt beam="1">  1       -2 0.46548610E-01 0.22979533E+03</pdfrwt>
<totfact> 0.30509547E+02</totfact>
</mgrwt>
</event>
<event>
12    1  0.4154313E-002  0.2273414E+03  0.7546771E-02  0.1128525E+00
          1   -1    0    0  502    0  0.00000000000E+00  0.00000000000E+00  0.14518196615E+03  0.14518196615E+03  0.00000000000E+00 0.  1.
         -1   -1    0    0    0  501 -0.00000000000E+00 -0.00000000000E+00 -0.48253193795E+03  0.48253193795E+03  0.00000000000E+00 0. -1.
          6    2    1    2  502    0 -0.12184296574E+03  0.61911317818E+02 -0.32517052328E+03  0.39274677342E+03  0.17272938156E+03 0.  0.
         24    2    3    3    0    0 -0.49089079705E+02 -0.30528983321E+02 -0.18554841905E+03  0.21011391988E+03  0.79861673812E+02 0.  0.
         -6    2    1    2    0  501  0.12184296574E+03 -0.61911317818E+02 -0.12179448531E+02  0.23496713068E+03  0.19074195647E+03 0.  0.
        -24    2    5    5    0    0  0.41621281916E+02 -0.86228478521E+02  0.45134227379E+02  0.13331187845E+03  0.81038736646E+02 0.  0.
          5    1    3    3  502    0 -0.72753886033E+02  0.92440301139E+02 -0.13962210422E+03  0.18263285355E+03  0.47000000000E+01 0. -1.
        -13    1    4    4    0    0  0.98722265816E+01 -0.87927115139E+01 -0.11450775554E+03  0.11526837689E+03  0.00000000000E+00 0.  1.
         14    1    4    4    0    0 -0.58961306287E+02 -0.21736271807E+02 -0.71040663517E+02  0.94845542985E+02  0.00000000000E+00 0. -1.
         -5    1    5    5    0  501  0.80221683822E+02  0.24317160703E+02 -0.57313675910E+02  0.10165525223E+03  0.47000000000E+01 0.  1.
         13    1    6    6    0    0  0.19851440001E+02 -0.47440444495E+02  0.66419737189E+02  0.84001529345E+02  0.00000000000E+00 0. -1.
        -14    1    6    6    0    0  0.21769841915E+02 -0.38788034026E+02 -0.21285509809E+02  0.49310349101E+02  0.00000000000E+00 0.  1.
<mgrwt>
<rscale>  2 0.22734142E+03</rscale>
<asrwt>0</asrwt>
<pdfrwt beam="1">  1        1 0.22335687E-01 0.22734142E+03</pdfrwt>
<pdfrwt beam="2">  1       -1 0.74235684E-01 0.22734142E+03</pdfrwt>
<totfact> 0.42310694E+02</totfact>
</mgrwt>
</event>
<event>
12    1  0.4154313E-002  0.1893399E+03  0.7546771E-02  0.1159058E+00
          2   -1    0    0  502    0  0.00000000000E+00  0.00000000000E+00  0.31955393385E+03  0.31955393385E+03  0.00000000000E+00 0.  1.
         -2   -1    0    0    0  501 -0.00000000000E+00 -0.00000000000E+00 -0.13681712825E+03  0.13681712825E+03  0.00000000000E+00 0. -1.
          6    2    1    2  502    0  0.75892368473E+02  0.19141189372E+02  0.18775904870E+03  0.26590232675E+03  0.17124412481E+03 0.  0.
         24    2    3    3    0    0  0.25931563177E+02  0.42983450967E+02  0.18814192747E+03  0.21034360017E+03  0.79542581267E+02 0.  0.
         -6    2    1    2    0  501 -0.75892368473E+02 -0.19141189372E+02 -0.50222431008E+01  0.19046873534E+03  0.17357153999E+03 0.  0.
        -24    2    5    5    0    0 -0.98750748510E+02  0.32090353375E+02 -0.15881280611E+02  0.13313475584E+03  0.81799431707E+02 0.  0.
          5    1    3    3  502    0  0.49960805296E+02 -0.23842261595E+02 -0.38287876458E+00  0.55558726587E+02  0.47000000000E+01 0. -1.
        -11    1    4    4    0    0  0.13763649224E+02 -0.47764205739E+01  0.14226946531E+03  0.14301347137E+03  0.00000000000E+00 0.  1.
         12    1    4    4    0    0  0.12167913953E+02  0.47759871541E+02  0.45872462155E+02  0.67330128796E+02  0.00000000000E+00 0. -1.
         -5    1    5    5    0  501  0.22858380037E+02 -0.51231542747E+02  0.10859037510E+02  0.57333979505E+02  0.47000000000E+01 0.  1.
         13    1    6    6    0    0 -0.47588476085E+02 -0.26252544529E+02 -0.26276502797E+01  0.54412900091E+02  0.00000000000E+00 0. -1.
        -14    1    6    6    0    0 -0.51162272425E+02  0.58342897904E+02 -0.13253630332E+02  0.78721855749E+02  0.00000000000E+00 0.  1.
<mgrwt>
<rscale>  2 0.18933992E+03</rscale>
<asrwt>0</asrwt>
<pdfrwt beam="1">  1        2 0.49162143E-01 0.18933992E+03</pdfrwt>
<pdfrwt beam="2">  1       -2 0.21048789E-01 0.18933992E+03</pdfrwt>
<totfact> 0.19408827E+03</totfact>
</mgrwt>
</event>
<event>
12    1  0.4154313E-002  0.4047287E+03  0.7546771E-02  0.1042154E+00
          1   -1    0    0  502    0  0.00000000000E+00  0.00000000000E+00  0.33884579146E+03  0.33884579146E+03  0.00000000000E+00 0. -1.
         -1   -1    0    0    0  501 -0.00000000000E+00 -0.00000000000E+00 -0.50298996778E+03  0.50298996778E+03  0.00000000000E+00 0.  1.
          6    2    1    2  502    0  0.31895824992E+03  0.17625125786E+03  0.71131766400E+00  0.40591287194E+03  0.17879005158E+03 0.  0.
         24    2    3    3    0    0  0.10574542652E+03  0.40943869237E+02 -0.50327309965E+02  0.14824093131E+03  0.81142097146E+02 0.  0.
         -6    2    1    2    0  501 -0.31895824992E+03 -0.17625125786E+03 -0.16485549399E+03  0.43592288730E+03  0.17335673823E+03 0.  0.
        -24    2    5    5    0    0 -0.26998577886E+03 -0.20101041648E+03 -0.12759033917E+03  0.36942401046E+03  0.83049964116E+02 0.  0.
          5    1    3    3  502    0  0.21321282340E+03  0.13530738862E+03  0.51038627629E+02  0.25767194063E+03  0.47000000000E+01 0. -1.
        -13    1    4    4    0    0  0.62222741368E+02  0.52999735373E+02 -0.60814624753E+02  0.10187767212E+03  0.00000000000E+00 0.  1.
         14    1    4    4    0    0  0.43522685149E+02 -0.12055866136E+02  0.10487314788E+02  0.46363259186E+02  0.00000000000E+00 0. -1.
         -5    1    5    5    0  501 -0.48972471059E+02  0.24759158621E+02 -0.37265154818E+02  0.66498876840E+02  0.47000000000E+01 0.  1.
         13    1    6    6    0    0 -0.22035409018E+03 -0.12288394480E+03 -0.76209836751E+02  0.26356086236E+03  0.00000000000E+00 0. -1.
        -14    1    6    6    0    0 -0.49631688674E+02 -0.78126471682E+02 -0.51380502416E+02  0.10586314810E+03  0.00000000000E+00 0.  1.
<mgrwt>
<rscale>  2 0.40472867E+03</rscale>
<asrwt>0</asrwt>
<pdfrwt beam="1">  1        1 0.52130122E-01 0.40472867E+03</pdfrwt>
<pdfrwt beam="2">  1       -1 0.77383072E-01 0.40472867E+03</pdfrwt>
<totfact> 0.13035208E+02</totfact>
</mgrwt>
</event>
<event>
12    1  0.4154313E-002  0.1933394E+03  0.7546771E-02  0.1155483E+00
         -2   -1    0    0    0  501 -0.00000000000E+00  0.00000000000E+00  0.18709008990E+02  0.18709008990E+02  0.00000000000E+00 0.  1.
          2   -1    0    0  502    0  0.00000000000E+00 -0.00000000000E+00 -0.24051709092E+04  0.24051709092E+04  0.00000000000E+00 0. -1.
          6    2    1    2  502    0 -0.86761979939E+02 -0.48605687125E+01 -0.16953455107E+04  0.17064111089E+04  0.17346816859E+03 0.  0.
         24    2    3    3    0    0 -0.12162359152E+03 -0.27962101471E+02 -0.12355352307E+04  0.12446789393E+04  0.84286289566E+02 0.  0.
         -6    2    1    2    0  501  0.86761979939E+02  0.48605687125E+01 -0.69111638950E+03  0.71746880932E+03  0.17195453531E+03 0.  0.
        -24    2    5    5    0    0  0.66242634154E+02 -0.60804270474E+01 -0.68420187156E+03  0.69275748604E+03  0.85765233334E+02 0.  0.
          5    1    3    3  502    0  0.34861611582E+02  0.23101532759E+02 -0.45981028006E+03  0.46173216958E+03  0.47000000000E+01 0. -1.
        -13    1    4    4    0    0 -0.80406395212E+02  0.24291605184E+02 -0.70435129695E+03  0.70934196266E+03  0.00000000000E+00 0.  1.
         14    1    4    4    0    0 -0.41217196309E+02 -0.52253706655E+02 -0.53118393372E+03  0.53533697665E+03  0.00000000000E+00 0. -1.
         -5    1    5    5    0  501  0.20519345785E+02  0.10940995760E+02 -0.69145179439E+01  0.24711323276E+02  0.47000000000E+01 0.  1.
         11    1    6    6    0    0  0.50778150302E+02  0.33796495829E+02 -0.29689148274E+03  0.30309268583E+03  0.00000000000E+00 0. -1.
        -12    1    6    6    0    0  0.15464483852E+02 -0.39876922876E+02 -0.38731038882E+03  0.38966480021E+03  0.00000000000E+00 0.  1.
<mgrwt>
<rscale>  2 0.19333943E+03</rscale>
<asrwt>0</asrwt>
<pdfrwt beam="2">  1        2 0.37002626E+00 0.19333943E+03</pdfrwt>
<pdfrwt beam="1">  1       -2 0.28783093E-02 0.19333943E+03</pdfrwt>
<totfact> 0.20498666E+03</totfact>
</mgrwt>
</event>
<event>
12    1  0.4154313E-002  0.2340829E+03  0.7546771E-02  0.1123799E+00
          2   -1    0    0  502    0  0.00000000000E+00  0.00000000000E+00  0.37187594627E+03  0.37187594627E+03  0.00000000000E+00 0. -1.
         -2   -1    0    0    0  501 -0.00000000000E+00 -0.00000000000E+00 -0.18674581916E+03  0.18674581916E+03  0.00000000000E+00 0.  1.
          6    2    1    2  502    0 -0.25003923161E+02  0.15500865870E+03  0.22083993584E+03  0.32177238192E+03  0.17353474597E+03 0.  0.
         24    2    3    3    0    0  0.20721401081E+02  0.24875208117E+02  0.13195464051E+03  0.15761329456E+03  0.79885987676E+02 0.  0.
         -6    2    1    2    0  501  0.25003923161E+02 -0.15500865870E+03 -0.35709808733E+02  0.23684938351E+03  0.17369386743E+03 0.  0.
        -24    2    5    5    0    0 -0.28681235430E+02 -0.41330432396E+02 -0.52035273661E+02  0.10998943635E+03  0.82820217917E+02 0.  0.
          5    1    3    3  502    0 -0.45725324242E+02  0.13013345059E+03  0.88885295330E+02  0.16415908736E+03  0.47000000000E+01 0. -1.
        -11    1    4    4    0    0 -0.21301178865E+02  0.36733649263E+02  0.68241972830E+02  0.80374548614E+02  0.00000000000E+00 0.  1.
         12    1    4    4    0    0  0.42022579946E+02 -0.11858441146E+02  0.63712667680E+02  0.77238745942E+02  0.00000000000E+00 0. -1.
         -5    1    5    5    0  501  0.53685158591E+02 -0.11367822631E+03  0.16325464928E+02  0.12685994716E+03  0.47000000000E+01 0.  1.
         13    1    6    6    0    0 -0.44326991655E+01  0.20348876138E+02 -0.36335346250E+02  0.41880579856E+02  0.00000000000E+00 0. -1.
        -14    1    6    6    0    0 -0.24248536265E+02 -0.61679308534E+02 -0.15699927410E+02  0.68108856494E+02  0.00000000000E+00 0.  1.
<mgrwt>
<rscale>  2 0.23408291E+03</rscale>
<asrwt>0</asrwt>
<pdfrwt beam="1">  1        2 0.57211684E-01 0.23408291E+03</pdfrwt>
<pdfrwt beam="2">  1       -2 0.28730126E-01 0.23408291E+03</pdfrwt>
<totfact> 0.95747153E+02</totfact>
</mgrwt>
</event>
<event>
12    1  0.4154313E-002  0.2161067E+03  0.7546771E-02  0.1136819E+00
          2   -1    0    0  502    0  0.00000000000E+00  0.00000000000E+00  0.51381045656E+03  0.51381045656E+03  0.00000000000E+00 0. -1.
         -2   -1    0    0    0  501 -0.00000000000E+00 -0.00000000000E+00 -0.90933245912E+02  0.90933245912E+02  0.00000000000E+00 0.  1.
          6    2    1    2  502    0  0.12864954600E+03  0.11756588651E+02  0.21772710163E+03  0.30675383361E+03  0.17321634042E+03 0.  0.
         24    2    3    3    0    0  0.66154121419E+02 -0.25452703223E+02  0.51587227994E+02  0.12532958742E+03  0.89565928273E+02 0.  0.
         -6    2    1    2    0  501 -0.12864954600E+03 -0.11756588651E+02  0.20515010902E+03  0.29798986886E+03  0.17326993869E+03 0.  0.
        -24    2    5    5    0    0  0.13614443947E+01  0.15239185269E+02  0.84875748794E+02  0.11877033544E+03  0.81660354818E+02 0.  0.
          5    1    3    3  502    0  0.62495424580E+02  0.37209291874E+02  0.16613987364E+03  0.18142424620E+03  0.47000000000E+01 0. -1.
        -13    1    4    4    0    0  0.28112394020E+01  0.23780234591E+01 -0.23174978511E+02  0.23465670490E+02  0.00000000000E+00 0.  1.
         14    1    4    4    0    0  0.63342882017E+02 -0.27830726682E+02  0.74762206505E+02  0.10186391693E+03  0.00000000000E+00 0. -1.
         -5    1    5    5    0  501 -0.13001099039E+03 -0.26995773920E+02  0.12027436023E+03  0.17921953342E+03  0.47000000000E+01 0.  1.
         13    1    6    6    0    0  0.13758654028E+02 -0.49682904953E+01  0.92667894756E+02  0.93815367556E+02  0.00000000000E+00 0. -1.
        -14    1    6    6    0    0 -0.12397209633E+02  0.20207475764E+02 -0.77921459625E+01  0.24954967885E+02  0.00000000000E+00 0.  1.
<mgrwt>
<rscale>  2 0.21610671E+03</rscale>
<asrwt>0</asrwt>
<pdfrwt beam="1">  1        2 0.79047761E-01 0.21610671E+03</pdfrwt>
<pdfrwt beam="2">  1       -2 0.13989730E-01 0.21610671E+03</pdfrwt>
<totfact> 0.23021917E+03</totfact>
</mgrwt>
</event>
<event>
12    1  0.4154313E-002  0.1745552E+03  0.7546771E-02  0.1173179E+00
         -2   -1    0    0    0  501 -0.00000000000E+00  0.00000000000E+00  0.49426264382E+02  0.49426264382E+02  0.00000000000E+00 0.  1.
          2   -1    0    0  502    0  0.00000000000E+00 -0.00000000000E+00 -0.61647362696E+03  0.61647362696E+03  0.00000000000E+00 0. -1.
          6    2    1    2  502    0  0.41440593847E+01 -0.16577222468E+02 -0.28388143325E+03  0.33303963662E+03  0.17330537754E+03 0.  0.
         24    2    3    3    0    0  0.19788551090E+02  0.54309970600E+02 -0.18553350878E+03  0.21071160014E+03  0.81458798746E+02 0.  0.
         -6    2    1    2    0  501 -0.41440593847E+01  0.16577222468E+02 -0.28316592932E+03  0.33286025471E+03  0.17412934304E+03 0.  0.
        -24    2    5    5    0    0  0.37611782632E+02  0.62444212134E+02 -0.21433909624E+03  0.24008873950E+03  0.79921391595E+02 0.  0.
          5    1    3    3  502    0 -0.15644491705E+02 -0.70887193068E+02 -0.98347924475E+02  0.12232803649E+03  0.47000000000E+01 0. -1.
        -11    1    4    4    0    0  0.72845381820E+00  0.45557138699E+02 -0.31821086754E+02  0.55574860266E+02  0.00000000000E+00 0.  1.
         12    1    4    4    0    0  0.19060097272E+02  0.87528319015E+01 -0.15371242202E+03  0.15513673987E+03  0.00000000000E+00 0. -1.
         -5    1    5    5    0  501 -0.41755842017E+02 -0.45866989666E+02 -0.68826833079E+02  0.92771515215E+02  0.47000000000E+01 0.  1.
         11    1    6    6    0    0 -0.68246435764E+01  0.62760911196E+02 -0.11310479981E+03  0.12953070475E+03  0.00000000000E+00 0. -1.
        -12    1    6    6    0    0  0.44436426209E+02 -0.31669906161E+00 -0.10123429643E+03  0.11055803475E+03  0.00000000000E+00 0.  1.
<mgrwt>
<rscale>  2 0.17455524E+03</rscale>
<asrwt>0</asrwt>
<pdfrwt beam="2">  1        2 0.94842090E-01 0.17455524E+03</pdfrwt>
<pdfrwt beam="1">  1       -2 0.76040412E-02 0.17455524E+03</pdfrwt>
<totfact> 0.48984605E+03</totfact>
</mgrwt>
</event>
<event>
12    1  0.4154313E-002  0.1815019E+03  0.7546771E-02  0.1166357E+00
         -1   -1    0    0    0  501 -0.00000000000E+00  0.00000000000E+00  0.79833546279E+03  0.79833546279E+03  0.00000000000E+00 0.  1.
          1   -1    0    0  502    0  0.00000000000E+00 -0.00000000000E+00 -0.43783564259E+02  0.43783564259E+02  0.00000000000E+00 0. -1.
          6    2    1    2  502    0 -0.59029480771E+02 -0.19033495643E+02  0.27175030634E+03  0.32547680985E+03  0.16804812168E+03 0.  0.
         24    2    3    3    0    0 -0.66395013910E+02  0.38895370812E+02  0.21935811340E+03  0.24688268457E+03  0.83138019494E+02 0.  0.
         -6    2    1    2    0  501  0.59029480771E+02  0.19033495643E+02  0.48280159219E+03  0.51664221720E+03  0.17313304021E+03 0.  0.
        -24    2    5    5    0    0  0.10766897823E+03  0.13143744707E+02  0.33718270881E+03  0.36293002159E+03  0.79124298142E+02 0.  0.
          5    1    3    3  502    0  0.73655331387E+01 -0.57928866455E+02  0.52392192942E+02  0.78594125279E+02  0.47000000000E+01 0. -1.
        -13    1    4    4    0    0 -0.34014646316E+02 -0.92724203193E+01  0.16010042337E+03  0.16393632760E+03  0.00000000000E+00 0.  1.
         14    1    4    4    0    0 -0.32380367594E+02  0.48167791131E+02  0.59257690025E+02  0.82946356973E+02  0.00000000000E+00 0. -1.
         -5    1    5    5    0  501 -0.48639497462E+02  0.58897509360E+01  0.14561888339E+03  0.15371219561E+03  0.47000000000E+01 0.  1.
         11    1    6    6    0    0  0.90956354744E+02 -0.61936457260E+01  0.31844643421E+03  0.33123941670E+03  0.00000000000E+00 0. -1.
        -12    1    6    6    0    0  0.16712623489E+02  0.19337390433E+02  0.18736274599E+02  0.31690604893E+02  0.00000000000E+00 0.  1.
<mgrwt>
<rscale>  2 0.18150192E+03</rscale>
<asrwt>0</asrwt>
<pdfrwt beam="2">  1        1 0.67359336E-02 0.18150192E+03</pdfrwt>
<pdfrwt beam="1">  1       -1 0.12282083E+00 0.18150192E+03</pdfrwt>
<totfact> 0.68543882E+02</totfact>
</mgrwt>
</event>
<event>
12    1  0.4154313E-002  0.2016744E+03  0.7546771E-02  0.1148334E+00
          2   -1    0    0  502    0  0.00000000000E+00  0.00000000000E+00  0.10694800698E+03  0.10694800698E+03  0.00000000000E+00 0.  1.
         -2   -1    0    0    0  501 -0.00000000000E+00 -0.00000000000E+00 -0.38401303078E+03  0.38401303078E+03  0.00000000000E+00 0. -1.
          6    2    1    2  502    0  0.74040232868E+01 -0.96023296431E+02 -0.11709498633E+03  0.23619691648E+03  0.18111447903E+03 0.  0.
         24    2    3    3    0    0  0.16669652976E+02 -0.13815108464E+03 -0.82012246321E+02  0.18039825091E+03  0.80336298574E+02 0.  0.
         -6    2    1    2    0  501 -0.74040232868E+01  0.96023296431E+02 -0.15997003747E+03  0.25476412128E+03  0.17331777631E+03 0.  0.
        -24    2    5    5    0    0 -0.21628787033E+02  0.13248663101E+03 -0.10592336405E+03  0.18786829495E+03  0.77808902910E+02 0.  0.
          5    1    3    3  502    0 -0.92656296890E+01  0.42127788208E+02 -0.35082740010E+02  0.55798665570E+02  0.47000000000E+01 0. -1.
        -13    1    4    4    0    0 -0.10092943102E+02 -0.11533368524E+03 -0.33584143388E+02  0.12054717391E+03  0.00000000000E+00 0.  1.
         14    1    4    4    0    0  0.26762596078E+02 -0.22817399398E+02 -0.48428102933E+02  0.59851076998E+02  0.00000000000E+00 0. -1.
         -5    1    5    5    0  501  0.14224763747E+02 -0.36463334579E+02 -0.54046673420E+02  0.66895826327E+02  0.47000000000E+01 0.  1.
         13    1    6    6    0    0  0.20058028941E+02  0.33108508500E+02 -0.58453484924E+02  0.70109255879E+02  0.00000000000E+00 0. -1.
        -14    1    6    6    0    0 -0.41686815974E+02  0.99378122509E+02 -0.47469879129E+02  0.11775903908E+03  0.00000000000E+00 0.  1.
<mgrwt>
<rscale>  2 0.20167445E+03</rscale>
<asrwt>0</asrwt>
<pdfrwt beam="1">  1        2 0.16453540E-01 0.20167445E+03</pdfrwt>
<pdfrwt beam="2">  1       -2 0.59078927E-01 0.20167445E+03</pdfrwt>
<totfact> 0.94666750E+02</totfact>
</mgrwt>
</event>
<event>
12    1  0.4154313E-002  0.2201175E+03  0.7546771E-02  0.1133795E+00
         -2   -1    0    0    0  501 -0.00000000000E+00  0.00000000000E+00  0.16036615757E+02  0.16036615757E+02  0.00000000000E+00 0.  1.
          2   -1    0    0  502    0  0.00000000000E+00 -0.00000000000E+00 -0.37405918202E+04  0.37405918202E+04  0.00000000000E+00 0. -1.
          6    2    1    2  502    0 -0.13283114355E+03  0.18910811641E+02 -0.10397532927E+04  0.10628317867E+04  0.17470765784E+03 0.  0.
         24    2    3    3    0    0 -0.11866198580E+03  0.56839177708E+02 -0.54303192793E+03  0.56444084560E+03  0.79990214598E+02 0.  0.
         -6    2    1    2    0  501  0.13283114355E+03 -0.18910811641E+02 -0.26848019118E+04  0.26937966493E+04  0.17429099400E+03 0.  0.
        -24    2    5    5    0    0  0.13556897830E+03  0.28678586030E+02 -0.16026027925E+04  0.16105380143E+04  0.79344664061E+02 0.  0.
          5    1    3    3  502    0 -0.14169157750E+02 -0.37928366066E+02 -0.49672136473E+03  0.49839094110E+03  0.47000000000E+01 0. -1.
        -11    1    4    4    0    0  0.93625170062E+01 -0.43426237250E+01 -0.20028869271E+02  0.22531549209E+02  0.00000000000E+00 0.  1.
         12    1    4    4    0    0 -0.12802450281E+03  0.61181801432E+02 -0.52300305866E+03  0.54190929639E+03  0.00000000000E+00 0. -1.
         -5    1    5    5    0  501 -0.27378347493E+01 -0.47589397671E+02 -0.10821991193E+04  0.10832586350E+04  0.47000000000E+01 0.  1.
         11    1    6    6    0    0  0.10363770522E+03 -0.92831381129E+01 -0.12701265190E+04  0.12743815461E+04  0.00000000000E+00 0. -1.
        -12    1    6    6    0    0  0.31931273086E+02  0.37961724143E+02 -0.33247627349E+03  0.33615646823E+03  0.00000000000E+00 0.  1.
<mgrwt>
<rscale>  2 0.22011755E+03</rscale>
<asrwt>0</asrwt>
<pdfrwt beam="2">  1        2 0.57547562E+00 0.22011755E+03</pdfrwt>
<pdfrwt beam="1">  1       -2 0.24671719E-02 0.22011755E+03</pdfrwt>
<totfact> 0.40013764E+02</totfact>
</mgrwt>
</event>
<event>
12    1  0.4154313E-002  0.1861005E+03  0.7546771E-02  0.1162026E+00
         -1   -1    0    0    0  501 -0.00000000000E+00  0.00000000000E+00  0.14991717505E+02  0.14991717505E+02  0.00000000000E+00 0.  1.
          1   -1    0    0  502    0  0.00000000000E+00 -0.00000000000E+00 -0.23654327705E+04  0.23654327705E+04  0.00000000000E+00 0. -1.
          6    2    1    2  502    0 -0.36095111073E+02 -0.58225159809E+02 -0.99292614438E+03  0.10102046002E+04  0.17296814675E+03 0.  0.
         24    2    3    3    0    0  0.45535621711E+02 -0.20749471041E+02 -0.57725754781E+03  0.58491590301E+03  0.79976894758E+02 0.  0.
         -6    2    1    2    0  501  0.36095111073E+02  0.58225159809E+02 -0.13575149086E+04  0.13702198878E+04  0.17309762434E+03 0.  0.
        -24    2    5    5    0    0 -0.21731575138E+02  0.99861500114E+01 -0.10668245831E+04  0.10698969232E+04  0.77412858644E+02 0.  0.
          5    1    3    3  502    0 -0.81630732784E+02 -0.37475688768E+02 -0.41566859657E+03  0.42528869719E+03  0.47000000000E+01 0. -1.
        -13    1    4    4    0    0  0.15707395957E+02  0.22080105635E+02 -0.71333125433E+02  0.76306409538E+02  0.00000000000E+00 0.  1.
         14    1    4    4    0    0  0.29828225754E+02 -0.42829576677E+02 -0.50592442237E+03  0.50860949347E+03  0.00000000000E+00 0. -1.
         -5    1    5    5    0  501  0.57826686211E+02  0.48239009798E+02 -0.29069032557E+03  0.30032296463E+03  0.47000000000E+01 0.  1.
         13    1    6    6    0    0  0.26624860919E+02  0.17424895651E+02 -0.46445251825E+03  0.46554124620E+03  0.00000000000E+00 0. -1.
        -14    1    6    6    0    0 -0.48356436058E+02 -0.74387456398E+01 -0.60237206480E+03  0.60435567698E+03  0.00000000000E+00 0.  1.
<mgrwt>
<rscale>  2 0.18610052E+03</rscale>
<asrwt>0</asrwt>
<pdfrwt beam="2">  1        1 0.36391298E+00 0.18610052E+03</pdfrwt>
<pdfrwt beam="1">  1       -1 0.23064165E-02 0.18610052E+03</pdfrwt>
<totfact> 0.10921269E+03</totfact>
</mgrwt>
</event>
<event>
12    1  0.4154313E-002  0.1883423E+03  0.7546771E-02  0.1159965E+00
          1   -1    0    0  502    0  0.00000000000E+00  0.00000000000E+00  0.42134602924E+03  0.42134602924E+03  0.00000000000E+00 0. -1.
         -1   -1    0    0    0  501 -0.00000000000E+00 -0.00000000000E+00 -0.94073852818E+02  0.94073852818E+02  0.00000000000E+00 0.  1.
          6    2    1    2  502    0  0.58930241101E+02  0.45929824998E+02  0.24715048830E+03  0.31071775703E+03  0.17285785642E+03 0.  0.
         24    2    3    3    0    0  0.97129826740E+02  0.36806324768E+02  0.23431616275E+03  0.26913342690E+03  0.82096458921E+02 0.  0.
         -6    2    1    2    0  501 -0.58930241101E+02 -0.45929824998E+02  0.80121688124E+02  0.20470212503E+03  0.17291949845E+03 0.  0.
        -24    2    5    5    0    0 -0.47412762319E+02 -0.92519180785E+02  0.29851084792E+02  0.13504263932E+03  0.80855787224E+02 0.  0.
          5    1    3    3  502    0 -0.38199585639E+02  0.91235002305E+01  0.12834325554E+02  0.41584330124E+02  0.47000000000E+01 0. -1.
        -11    1    4    4    0    0  0.14229553561E+02 -0.19800559883E+02  0.16915973288E+02  0.29676464050E+02  0.00000000000E+00 0.  1.
         12    1    4    4    0    0  0.82900273179E+02  0.56606884650E+02  0.21740018946E+03  0.23945696285E+03  0.00000000000E+00 0. -1.
         -5    1    5    5    0  501 -0.11517478782E+02  0.46589355787E+02  0.50270603332E+02  0.69659485711E+02  0.47000000000E+01 0.  1.
         11    1    6    6    0    0  0.12106447840E+02  0.48584627566E+01  0.15119008483E+02  0.19968854678E+02  0.00000000000E+00 0. -1.
        -12    1    6    6    0    0 -0.59519210159E+02 -0.97377643541E+02  0.14732076309E+02  0.11507378464E+03  0.00000000000E+00 0.  1.
<mgrwt>
<rscale>  2 0.18834228E+03</rscale>
<asrwt>0</asrwt>
<pdfrwt beam="1">  1        1 0.64822465E-01 0.18834228E+03</pdfrwt>
<pdfrwt beam="2">  1       -1 0.14472901E-01 0.18834228E+03</pdfrwt>
<totfact> 0.19086698E+03</totfact>
</mgrwt>
</event>
<event>
12    1  0.4154313E-002  0.1850790E+03  0.7546771E-02  0.1162976E+00
         -1   -1    0    0    0  501 -0.00000000000E+00  0.00000000000E+00  0.61285971494E+02  0.61285971494E+02  0.00000000000E+00 0. -1.
          1   -1    0    0  502    0  0.00000000000E+00 -0.00000000000E+00 -0.56570398539E+03  0.56570398539E+03  0.00000000000E+00 0.  1.
          6    2    1    2  502    0  0.26158426728E+02  0.63101950727E+02 -0.21848648019E+03  0.28662318842E+03  0.17248301552E+03 0.  0.
         24    2    3    3    0    0  0.52669671655E+02  0.64106925481E+02 -0.22998295877E+03  0.25732958670E+03  0.80265575818E+02 0.  0.
         -6    2    1    2    0  501 -0.26158426728E+02 -0.63101950727E+02 -0.28593153371E+03  0.34036676847E+03  0.17154176060E+03 0.  0.
        -24    2    5    5    0    0 -0.66830155673E+02 -0.66202754538E+02 -0.26984580179E+03  0.29626863595E+03  0.78161841667E+02 0.  0.
          5    1    3    3  502    0 -0.26511244927E+02 -0.10049747538E+01  0.11496478582E+02  0.29293601718E+02  0.47000000000E+01 0. -1.
        -11    1    4    4    0    0  0.58546149079E+01  0.66761603440E+02 -0.11420449116E+03  0.13241621506E+03  0.00000000000E+00 0.  1.
         12    1    4    4    0    0  0.46815056747E+02 -0.26546779595E+01 -0.11577846760E+03  0.12491337164E+03  0.00000000000E+00 0. -1.
         -5    1    5    5    0  501  0.40671728944E+02  0.31008038116E+01 -0.16085731929E+02  0.44098132515E+02  0.47000000000E+01 0.  1.
         13    1    6    6    0    0 -0.10818033897E+01  0.81014568271E+01 -0.94069965694E+02  0.94424373691E+02  0.00000000000E+00 0. -1.
        -14    1    6    6    0    0 -0.65748352283E+02 -0.74304211366E+02 -0.17577583609E+03  0.20184426226E+03  0.00000000000E+00 0.  1.
<mgrwt>
<rscale>  2 0.18507896E+03</rscale>
<asrwt>0</asrwt>
<pdfrwt beam="2">  1        1 0.87031384E-01 0.18507896E+03</pdfrwt>
<pdfrwt beam="1">  1       -1 0.94286108E-02 0.18507896E+03</pdfrwt>
<totfact> 0.25197927E+03</totfact>
</mgrwt>
</event>
<event>
12    1  0.4154313E-002  0.1827995E+03  0.7546771E-02  0.1165121E+00
          2   -1    0    0  502    0  0.00000000000E+00  0.00000000000E+00  0.22374056861E+03  0.22374056861E+03  0.00000000000E+00 0.  1.
         -2   -1    0    0    0  501 -0.00000000000E+00 -0.00000000000E+00 -0.15026249864E+03  0.15026249864E+03  0.00000000000E+00 0. -1.
          6    2    1    2  502    0  0.42767470499E+02 -0.51577790443E+02  0.21898615565E+02  0.18185847606E+03  0.16764137601E+03 0.  0.
         24    2    3    3    0    0  0.55796166268E+02  0.42643616444E+01  0.51241942421E+02  0.11727354210E+03  0.89420076405E+02 0.  0.
         -6    2    1    2    0  501 -0.42767470499E+02  0.51577790443E+02  0.51579454403E+02  0.19214459119E+03  0.17253920948E+03 0.  0.
        -24    2    5    5    0    0 -0.10758688775E+02 -0.30066920143E+02 -0.81162702808E+01  0.85955653818E+02  0.79389744357E+02 0.  0.
          5    1    3    3  502    0 -0.13028695768E+02 -0.55842152087E+02 -0.29343326856E+02  0.64584933957E+02  0.47000000000E+01 0. -1.
        -13    1    4    4    0    0  0.75666788609E+02  0.37882950406E+01  0.16945172415E+02  0.77633452492E+02  0.00000000000E+00 0.  1.
         14    1    4    4    0    0 -0.19870622341E+02  0.47606660385E+00  0.34296770006E+02  0.39640089613E+02  0.00000000000E+00 0. -1.
         -5    1    5    5    0  501 -0.32008781724E+02  0.81644710586E+02  0.59695724684E+02  0.10618893737E+03  0.47000000000E+01 0.  1.
         11    1    6    6    0    0 -0.32192219827E+02 -0.16401072178E+02 -0.34046780325E+02  0.49643906338E+02  0.00000000000E+00 0. -1.
        -12    1    6    6    0    0  0.21433531052E+02 -0.13665847964E+02  0.25930510044E+02  0.36311747480E+02  0.00000000000E+00 0.  1.
<mgrwt>
<rscale>  2 0.18279947E+03</rscale>
<asrwt>0</asrwt>
<pdfrwt beam="1">  1        2 0.34421626E-01 0.18279947E+03</pdfrwt>
<pdfrwt beam="2">  1       -2 0.23117307E-01 0.18279947E+03</pdfrwt>
<totfact> 0.24177364E+03</totfact>
</mgrwt>
</event>
<event>
12    1  0.4154313E-002  0.2386390E+03  0.7546771E-02  0.1120703E+00
          3   -1    0    0  502    0  0.00000000000E+00  0.00000000000E+00  0.46368787170E+03  0.46368787170E+03  0.00000000000E+00 0.  1.
         -3   -1    0    0    0  501 -0.00000000000E+00 -0.00000000000E+00 -0.12676530576E+03  0.12676530576E+03  0.00000000000E+00 0. -1.
          6    2    1    2  502    0 -0.83918542377E+02 -0.13996120831E+03  0.11599716469E+03  0.26486106182E+03  0.17339140195E+03 0.  0.
         24    2    3    3    0    0 -0.11423787223E+03 -0.87434671895E+02  0.12037346414E+03  0.20387302376E+03  0.79870680777E+02 0.  0.
         -6    2    1    2    0  501  0.83918542377E+02  0.13996120831E+03  0.22092540126E+03  0.32559211563E+03  0.17484487769E+03 0.  0.
        -24    2    5    5    0    0  0.12348279246E+03  0.90971618976E+02  0.14402344670E+03  0.22608678732E+03  0.82756550843E+02 0.  0.
          5    1    3    3  502    0  0.30319329848E+02 -0.52526536417E+02 -0.43762994511E+01  0.60988038067E+02  0.47000000000E+01 0. -1.
        -11    1    4    4    0    0 -0.68710969809E+01 -0.47469275716E+02  0.21579782935E+02  0.52594972595E+02  0.00000000000E+00 0.  1.
         12    1    4    4    0    0 -0.10736677524E+03 -0.39965396178E+02  0.98793681202E+02  0.15127805116E+03  0.00000000000E+00 0. -1.
         -5    1    5    5    0  501 -0.39564250084E+02  0.48989589336E+02  0.76901954559E+02  0.99505328314E+02  0.47000000000E+01 0.  1.
         11    1    6    6    0    0  0.80070878900E+02  0.50122821844E+02  0.32981852862E+02  0.10005721131E+03  0.00000000000E+00 0. -1.
        -12    1    6    6    0    0  0.43411913562E+02  0.40848797132E+02  0.11104159384E+03  0.12602957601E+03  0.00000000000E+00 0.  1.
<mgrwt>
<rscale>  2 0.23863896E+03</rscale>
<asrwt>0</asrwt>
<pdfrwt beam="1">  1        3 0.71336595E-01 0.23863896E+03</pdfrwt>
<pdfrwt beam="2">  1       -3 0.19502355E-01 0.23863896E+03</pdfrwt>
<totfact> 0.11134464E+02</totfact>
</mgrwt>
</event>
<event>
12    1  0.4154313E-002  0.1769229E+03  0.7546771E-02  0.1170815E+00
          1   -1    0    0  502    0  0.00000000000E+00  0.00000000000E+00  0.67174189804E+02  0.67174189804E+02  0.00000000000E+00 0.  1.
         -1   -1    0    0    0  501 -0.00000000000E+00 -0.00000000000E+00 -0.63107390307E+03  0.63107390307E+03  0.00000000000E+00 0. -1.
          6    2    1    2  502    0 -0.22537595376E+02 -0.43535777571E+02 -0.10509620385E+03  0.20702829815E+03  0.17149984559E+03 0.  0.
         24    2    3    3    0    0 -0.59929286807E+02 -0.15654158274E+02 -0.14228301989E+02  0.10478061421E+03  0.83306425014E+02 0.  0.
         -6    2    1    2    0  501  0.22537595376E+02  0.43535777571E+02 -0.45880350942E+03  0.49121979472E+03  0.16850198616E+03 0.  0.
        -24    2    5    5    0    0 -0.15211934649E+02  0.53766133935E+02 -0.14567294281E+03  0.17562111134E+03  0.80622381304E+02 0.  0.
          5    1    3    3  502    0  0.37391691430E+02 -0.27881619298E+02 -0.90867901862E+02  0.10224768394E+03  0.47000000000E+01 0. -1.
        -13    1    4    4    0    0 -0.11571307922E+02  0.33144310322E+02 -0.52047456232E+01  0.35489855603E+02  0.00000000000E+00 0.  1.
         14    1    4    4    0    0 -0.48357978885E+02 -0.48798468595E+02 -0.90235563659E+01  0.69290758609E+02  0.00000000000E+00 0. -1.
         -5    1    5    5    0  501  0.37749530026E+02 -0.10230356364E+02 -0.31313056661E+03  0.31559868339E+03  0.47000000000E+01 0.  1.
         11    1    6    6    0    0 -0.26688689364E+02  0.69267505637E+02 -0.13368521668E+03  0.15291177402E+03  0.00000000000E+00 0. -1.
        -12    1    6    6    0    0  0.11476754715E+02 -0.15501371702E+02 -0.11987726129E+02  0.22709337313E+02  0.00000000000E+00 0.  1.
<mgrwt>
<rscale>  2 0.17692291E+03</rscale>
<asrwt>0</asrwt>
<pdfrwt beam="1">  1        1 0.10334490E-01 0.17692291E+03</pdfrwt>
<pdfrwt beam="2">  1       -1 0.97088297E-01 0.17692291E+03</pdfrwt>
<totfact> 0.65838323E+02</totfact>
</mgrwt>
</event>
<event>
12    1  0.4154313E-002  0.1754924E+03  0.7546771E-02  0.1172238E+00
         -3   -1    0    0    0  501 -0.00000000000E+00  0.00000000000E+00  0.34962024617E+02  0.34962024617E+02  0.00000000000E+00 0.  1.
          3   -1    0    0  502    0  0.00000000000E+00 -0.00000000000E+00 -0.10092872174E+04  0.10092872174E+04  0.00000000000E+00 0. -1.
          6    2    1    2  502    0 -0.12667439043E+02  0.20723142977E+02 -0.67372189941E+03  0.69623738977E+03  0.17394077299E+03 0.  0.
         24    2    3    3    0    0  0.13994876905E+02  0.68817210790E+02 -0.53868625847E+03  0.55035856069E+03  0.88204280961E+02 0.  0.
         -6    2    1    2    0  501  0.12667439043E+02 -0.20723142977E+02 -0.30060329342E+03  0.34801185229E+03  0.17366633713E+03 0.  0.
        -24    2    5    5    0    0  0.23806466354E+02  0.47116829779E+02 -0.11349570290E+03  0.14861857190E+03  0.80121544228E+02 0.  0.
          5    1    3    3  502    0 -0.26662315948E+02 -0.48094067813E+02 -0.13503564093E+03  0.14587882908E+03  0.47000000000E+01 0. -1.
        -13    1    4    4    0    0  0.16826599566E+02  0.12693741056E+01 -0.15790400383E+02  0.23110225179E+02  0.00000000000E+00 0.  1.
         14    1    4    4    0    0 -0.28317226619E+01  0.67547836685E+02 -0.52289585809E+03  0.52724833551E+03  0.00000000000E+00 0. -1.
         -5    1    5    5    0  501 -0.11139027310E+02 -0.67839972756E+02 -0.18710759052E+03  0.19939328039E+03  0.47000000000E+01 0.  1.
         13    1    6    6    0    0  0.44790578204E+02  0.46404782792E+02 -0.10974031043E+03  0.12728918059E+03  0.00000000000E+00 0. -1.
        -14    1    6    6    0    0 -0.20984111851E+02  0.71204698659E+00 -0.37553924634E+01  0.21329391310E+02  0.00000000000E+00 0.  1.
<mgrwt>
<rscale>  2 0.17549237E+03</rscale>
<asrwt>0</asrwt>
<pdfrwt beam="2">  1        3 0.15527497E+00 0.17549237E+03</pdfrwt>
<pdfrwt beam="1">  1       -3 0.53787725E-02 0.17549237E+03</pdfrwt>
<totfact> 0.15426106E+02</totfact>
</mgrwt>
</event>
<event>
12    1  0.4154313E-002  0.1905722E+03  0.7546771E-02  0.1157946E+00
          3   -1    0    0  502    0  0.00000000000E+00  0.00000000000E+00  0.87766220190E+03  0.87766220190E+03  0.00000000000E+00 0.  1.
         -3   -1    0    0    0  501 -0.00000000000E+00 -0.00000000000E+00 -0.42522983297E+02  0.42522983297E+02  0.00000000000E+00 0. -1.
          6    2    1    2  502    0 -0.74828162796E+02 -0.32674106049E+02  0.49619242146E+03  0.53208746318E+03  0.17390600392E+03 0.  0.
         24    2    3    3    0    0 -0.67359742790E+02  0.42401671970E+02  0.24992155452E+03  0.27447616752E+03  0.80877354012E+02 0.  0.
         -6    2    1    2    0  501  0.74828162796E+02  0.32674106049E+02  0.33894679714E+03  0.38809772202E+03  0.17049357580E+03 0.  0.
        -24    2    5    5    0    0  0.66946572886E+02 -0.41065276783E+01  0.94751038143E+02  0.14097711748E+03  0.79988006801E+02 0.  0.
          5    1    3    3  502    0 -0.74684200059E+01 -0.75075778019E+02  0.24627086695E+03  0.25761129566E+03  0.47000000000E+01 0. -1.
        -13    1    4    4    0    0 -0.24513851355E+02  0.61093552084E+02  0.12880069793E+03  0.14464774731E+03  0.00000000000E+00 0.  1.
         14    1    4    4    0    0 -0.42845891435E+02 -0.18691880114E+02  0.12112085658E+03  0.12982842021E+03  0.00000000000E+00 0. -1.
         -5    1    5    5    0  501  0.78815899096E+01  0.36780633727E+02  0.24419575900E+03  0.24712060454E+03  0.47000000000E+01 0.  1.
         13    1    6    6    0    0  0.35673552657E+02  0.23790446104E+02  0.88850823233E+02  0.98656254106E+02  0.00000000000E+00 0. -1.
        -14    1    6    6    0    0  0.31273020229E+02 -0.27896973782E+02  0.59002149097E+01  0.42320863370E+02  0.00000000000E+00 0.  1.
<mgrwt>
<rscale>  2 0.19057223E+03</rscale>
<asrwt>0</asrwt>
<pdfrwt beam="1">  1        3 0.13502494E+00 0.19057223E+03</pdfrwt>
<pdfrwt beam="2">  1       -3 0.65419981E-02 0.19057223E+03</pdfrwt>
<totfact> 0.16065209E+02</totfact>
</mgrwt>
</event>
<event>
12    1  0.4154313E-002  0.1758243E+03  0.7546771E-02  0.1171907E+00
          2   -1    0    0  502    0  0.00000000000E+00  0.00000000000E+00  0.11073242585E+03  0.11073242585E+03  0.00000000000E+00 0.  1.
         -2   -1    0    0    0  501 -0.00000000000E+00 -0.00000000000E+00 -0.30836403430E+03  0.30836403430E+03  0.00000000000E+00 0. -1.
          6    2    1    2  502    0 -0.26378670604E+01  0.13600155627E+02 -0.16232136127E+03  0.23797093360E+03  0.17346474667E+03 0.  0.
         24    2    3    3    0    0  0.10455341457E+02  0.21127543948E+02 -0.10206723990E+02  0.85036154826E+02  0.81063451288E+02 0.  0.
         -6    2    1    2    0  501  0.26378670604E+01 -0.13600155627E+02 -0.35310247184E+02  0.18112552656E+03  0.17710934543E+03 0.  0.
        -24    2    5    5    0    0  0.44207561054E+02 -0.33996230186E+02  0.28939850731E+02  0.10178950449E+03  0.80084556204E+02 0.  0.
          5    1    3    3  502    0 -0.13093208518E+02 -0.75273883216E+01 -0.15211463728E+03  0.15293477877E+03  0.47000000000E+01 0. -1.
        -11    1    4    4    0    0  0.35478761330E+01 -0.29761499895E+02 -0.14890489883E+02  0.33467312261E+02  0.00000000000E+00 0.  1.
         12    1    4    4    0    0  0.69074653241E+01  0.50889043843E+02  0.46837658931E+01  0.51568842564E+02  0.00000000000E+00 0. -1.
         -5    1    5    5    0  501 -0.41569693993E+02  0.20396074560E+02 -0.64250097915E+02  0.79336022072E+02  0.47000000000E+01 0.  1.
         11    1    6    6    0    0  0.48146330745E+02 -0.49292478804E+02  0.96551625858E-01  0.68904477018E+02  0.00000000000E+00 0. -1.
        -12    1    6    6    0    0 -0.39387696917E+01  0.15296248617E+02  0.28843299105E+02  0.32885027470E+02  0.00000000000E+00 0.  1.
<mgrwt>
<rscale>  2 0.17582432E+03</rscale>
<asrwt>0</asrwt>
<pdfrwt beam="1">  1        2 0.17035758E-01 0.17582432E+03</pdfrwt>
<pdfrwt beam="2">  1       -2 0.47440621E-01 0.17582432E+03</pdfrwt>
<totfact> 0.14081794E+03</totfact>
</mgrwt>
</event>
<event>
12    1  0.4154313E-002  0.1758101E+03  0.7546771E-02  0.1171921E+00
         -2   -1    0    0    0  501 -0.00000000000E+00  0.00000000000E+00  0.33919395045E+02  0.33919395045E+02  0.00000000000E+00 0. -1.
          2   -1    0    0  502    0  0.00000000000E+00 -0.00000000000E+00 -0.94908825194E+03  0.94908825194E+03  0.00000000000E+00 0.  1.
          6    2    1    2  502    0 -0.25275544095E+02  0.19732182803E+02 -0.55388472980E+03  0.58089898613E+03  0.17212532067E+03 0.  0.
         24    2    3    3    0    0 -0.60513562388E+02  0.43602874384E+02 -0.50016196751E+03  0.51219852734E+03  0.81377120742E+02 0.  0.
         -6    2    1    2    0  501  0.25275544095E+02 -0.19732182803E+02 -0.36128412710E+03  0.40210866086E+03  0.17359994952E+03 0.  0.
        -24    2    5    5    0    0  0.12174138406E+02 -0.10578138085E+02 -0.37325386739E+03  0.38159505443E+03  0.77693174711E+02 0.  0.
          5    1    3    3  502    0  0.35238018293E+02 -0.23870691580E+02 -0.53722762284E+02  0.68700458784E+02  0.47000000000E+01 0. -1.
        -13    1    4    4    0    0 -0.73411699817E+01 -0.76990295040E+01 -0.27536502127E+03  0.27557043160E+03  0.00000000000E+00 0.  1.
         14    1    4    4    0    0 -0.53172392406E+02  0.51301903888E+02 -0.22479694625E+03  0.23662809575E+03  0.00000000000E+00 0. -1.
         -5    1    5    5    0  501  0.13101405690E+02 -0.91540447186E+01  0.11969740291E+02  0.20513606421E+02  0.47000000000E+01 0.  1.
         13    1    6    6    0    0  0.44612571348E+02 -0.13932423362E+02 -0.21914624077E+03  0.22407469466E+03  0.00000000000E+00 0. -1.
        -14    1    6    6    0    0 -0.32438432943E+02  0.33542852769E+01 -0.15410762662E+03  0.15752035978E+03  0.00000000000E+00 0.  1.
<mgrwt>
<rscale>  2 0.17581011E+03</rscale>
<asrwt>0</asrwt>
<pdfrwt beam="2">  1        2 0.14601358E+00 0.17581011E+03</pdfrwt>
<pdfrwt beam="1">  1       -2 0.52183683E-02 0.17581011E+03</pdfrwt>
<totfact> 0.50999853E+03</totfact>
</mgrwt>
</event>
<event>
12    1  0.4154313E-002  0.1860523E+03  0.7546771E-02  0.1162071E+00
         -2   -1    0    0    0  501 -0.00000000000E+00  0.00000000000E+00  0.34034862806E+02  0.34034862806E+02  0.00000000000E+00 0.  1.
          2   -1    0    0  502    0  0.00000000000E+00 -0.00000000000E+00 -0.10171285177E+04  0.10171285177E+04  0.00000000000E+00 0. -1.
          6    2    1    2  502    0  0.31882232596E+02  0.60518047671E+02 -0.48764619352E+03  0.52198884989E+03  0.17318960277E+03 0.  0.
         24    2    3    3    0    0  0.73264374202E+02  0.37322761669E+02 -0.43971903774E+03  0.45438999489E+03  0.79729406348E+02 0.  0.
         -6    2    1    2    0  501 -0.31882232596E+02 -0.60518047671E+02 -0.49544746138E+03  0.52917453062E+03  0.17285423345E+03 0.  0.
        -24    2    5    5    0    0 -0.71634345621E+02 -0.41791165849E+02 -0.45505286765E+03  0.46930183405E+03  0.79329175376E+02 0.  0.
          5    1    3    3  502    0 -0.41382141607E+02  0.23195286003E+02 -0.47927155782E+02  0.67598855005E+02  0.47000000000E+01 0. -1.
        -11    1    4    4    0    0  0.64594584981E+02  0.31621563542E+01 -0.37647060780E+03  0.38198504968E+03  0.00000000000E+00 0.  1.
         12    1    4    4    0    0  0.86697892212E+01  0.34160605314E+02 -0.63248429941E+02  0.72404945208E+02  0.00000000000E+00 0. -1.
         -5    1    5    5    0  501  0.39752113025E+02 -0.18726881823E+02 -0.40394593728E+02  0.59872696575E+02  0.47000000000E+01 0.  1.
         11    1    6    6    0    0 -0.60727582013E+02 -0.39247550239E+02 -0.17942428448E+03  0.19344581484E+03  0.00000000000E+00 0. -1.
        -12    1    6    6    0    0 -0.10906763608E+02 -0.25436156093E+01 -0.27562858317E+03  0.27585601921E+03  0.00000000000E+00 0.  1.
<mgrwt>
<rscale>  2 0.18605234E+03</rscale>
<asrwt>0</asrwt>
<pdfrwt beam="2">  1        2 0.15648130E+00 0.18605234E+03</pdfrwt>
<pdfrwt beam="1">  1       -2 0.52361331E-02 0.18605234E+03</pdfrwt>
<totfact> 0.46197219E+03</totfact>
</mgrwt>
</event>
<event>
12    1  0.4154313E-002  0.2626915E+03  0.7546771E-02  0.1105537E+00
          2   -1    0    0  502    0  0.00000000000E+00  0.00000000000E+00  0.89044949454E+03  0.89044949454E+03  0.00000000000E+00 0.  1.
         -2   -1    0    0    0  501 -0.00000000000E+00 -0.00000000000E+00 -0.93419549094E+02  0.93419549094E+02  0.00000000000E+00 0. -1.
          6    2    1    2  502    0  0.69754544125E+02 -0.18699256035E+03  0.19657717276E+03  0.32883343079E+03  0.17221186458E+03 0.  0.
         24    2    3    3    0    0  0.84229603967E+02 -0.15293126796E+03  0.21412084121E+03  0.28760759787E+03  0.79923693664E+02 0.  0.
         -6    2    1    2    0  501 -0.69754544125E+02  0.18699256035E+03  0.60045277269E+03  0.65503561285E+03  0.16939955081E+03 0.  0.
        -24    2    5    5    0    0 -0.81933894736E+02  0.15348282792E+03  0.31070577223E+03  0.36306531809E+03  0.70768684635E+02 0.  0.
          5    1    3    3  502    0 -0.14475059843E+02 -0.34061292392E+02 -0.17543668453E+02  0.41225832916E+02  0.47000000000E+01 0. -1.
        -13    1    4    4    0    0 -0.11749524868E+02 -0.41767673613E+02  0.66272690983E+02  0.79212748114E+02  0.00000000000E+00 0.  1.
         14    1    4    4    0    0  0.95979128835E+02 -0.11116359435E+03  0.14784815023E+03  0.20839484976E+03  0.00000000000E+00 0. -1.
         -5    1    5    5    0  501  0.12179350612E+02  0.33509732430E+02  0.28974700046E+03  0.29197029476E+03  0.47000000000E+01 0.  1.
         13    1    6    6    0    0 -0.75336207883E+02  0.66403580784E+02  0.16114943281E+03  0.18987922333E+03  0.00000000000E+00 0. -1.
        -14    1    6    6    0    0 -0.65976868529E+01  0.87079247138E+02  0.14955633942E+03  0.17318609475E+03  0.00000000000E+00 0.  1.
<mgrwt>
<rscale>  2 0.26269147E+03</rscale>
<asrwt>0</asrwt>
<pdfrwt beam="1">  1        2 0.13699222E+00 0.26269147E+03</pdfrwt>
<pdfrwt beam="2">  1       -2 0.14372239E-01 0.26269147E+03</pdfrwt>
<totfact> 0.11343921E+03</totfact>
</mgrwt>
</event>
<event>
12    1  0.4154313E-002  0.2146736E+03  0.7546771E-02  0.1137918E+00
         -2   -1    0    0    0  501 -0.00000000000E+00  0.00000000000E+00  0.33939420124E+02  0.33939420124E+02  0.00000000000E+00 0.  1.
          2   -1    0    0  502    0  0.00000000000E+00 -0.00000000000E+00 -0.13816879971E+04  0.13816879971E+04  0.00000000000E+00 0. -1.
          6    2    1    2  502    0 -0.44089521408E+02 -0.11970604331E+03 -0.58175172583E+03  0.62019067225E+03  0.17299704255E+03 0.  0.
         24    2    3    3    0    0  0.59883456229E+00 -0.13849253246E+03 -0.38179637544E+03  0.41438927895E+03  0.82276740679E+02 0.  0.
         -6    2    1    2    0  501  0.44089521408E+02  0.11970604331E+03 -0.76599685113E+03  0.79543674496E+03  0.17232242047E+03 0.  0.
        -24    2    5    5    0    0  0.34277487134E+02  0.23281818620E+02 -0.47476959322E+03  0.48846881036E+03  0.10713833511E+03 0.  0.
          5    1    3    3  502    0 -0.44688355971E+02  0.18786489151E+02 -0.19995535039E+03  0.20580139330E+03  0.47000000000E+01 0. -1.
        -13    1    4    4    0    0  0.37958521216E+02 -0.95351157519E+02 -0.27048809530E+03  0.28930347781E+03  0.00000000000E+00 0.  1.
         14    1    4    4    0    0 -0.37359686654E+02 -0.43141374938E+02 -0.11130828014E+03  0.12508580114E+03  0.00000000000E+00 0. -1.
         -5    1    5    5    0  501  0.98120342748E+01  0.96424224686E+02 -0.29122725791E+03  0.30696793460E+03  0.47000000000E+01 0.  1.
         13    1    6    6    0    0  0.22180205253E+02  0.65834157085E+02 -0.25517122670E+03  0.26445879202E+03  0.00000000000E+00 0. -1.
        -14    1    6    6    0    0  0.12097281880E+02 -0.42552338465E+02 -0.21959836652E+03  0.22401001834E+03  0.00000000000E+00 0.  1.
<mgrwt>
<rscale>  2 0.21467364E+03</rscale>
<asrwt>0</asrwt>
<pdfrwt beam="2">  1        2 0.21256743E+00 0.21467364E+03</pdfrwt>
<pdfrwt beam="1">  1       -2 0.52214481E-02 0.21467364E+03</pdfrwt>
<totfact> 0.28933243E+03</totfact>
</mgrwt>
</event>
<event>
12    1  0.4154313E-002  0.1903359E+03  0.7546771E-02  0.1158159E+00
          1   -1    0    0  502    0  0.00000000000E+00  0.00000000000E+00  0.11695730964E+03  0.11695730964E+03  0.00000000000E+00 0. -1.
         -1   -1    0    0    0  501 -0.00000000000E+00 -0.00000000000E+00 -0.66301357224E+03  0.66301357224E+03  0.00000000000E+00 0.  1.
          6    2    1    2  502    0  0.38662825021E+02 -0.74648375750E+02 -0.55936464440E+03  0.59169073377E+03  0.17361429949E+03 0.  0.
         24    2    3    3    0    0  0.30097167091E+02 -0.11881931913E+03 -0.45842192405E+03  0.48107443513E+03  0.79108037608E+02 0.  0.
         -6    2    1    2    0  501 -0.38662825021E+02  0.74648375750E+02  0.13308381798E+02  0.18828014811E+03  0.16794376173E+03 0.  0.
        -24    2    5    5    0    0 -0.14566252934E+02  0.99207614938E+02 -0.32469224354E+02  0.13082163924E+03  0.77496607524E+02 0.  0.
          5    1    3    3  502    0  0.85656579293E+01  0.44170943382E+02 -0.10094272035E+03  0.11061629865E+03  0.47000000000E+01 0. -1.
        -13    1    4    4    0    0 -0.99581405856E+01 -0.75615731759E+02 -0.16469842832E+03  0.18150062189E+03  0.00000000000E+00 0.  1.
         14    1    4    4    0    0  0.40055307677E+02 -0.43203587373E+02 -0.29372349573E+03  0.29957381324E+03  0.00000000000E+00 0. -1.
         -5    1    5    5    0  501 -0.24096572086E+02 -0.24559239188E+02  0.45777606153E+02  0.57458508864E+02  0.47000000000E+01 0.  1.
         13    1    6    6    0    0 -0.30731248745E+02  0.45646594275E+02  0.15452899507E+02  0.57156043613E+02  0.00000000000E+00 0. -1.
        -14    1    6    6    0    0  0.16164995811E+02  0.53561020663E+02 -0.47922123862E+02  0.73665595629E+02  0.00000000000E+00 0.  1.
<mgrwt>
<rscale>  2 0.19033594E+03</rscale>
<asrwt>0</asrwt>
<pdfrwt beam="1">  1        1 0.17993432E-01 0.19033594E+03</pdfrwt>
<pdfrwt beam="2">  1       -1 0.10200209E+00 0.19033594E+03</pdfrwt>
<totfact> 0.28501915E+02</totfact>
</mgrwt>
</event>
<event>
12    1  0.4154313E-002  0.2064338E+03  0.7546771E-02  0.1144422E+00
          1   -1    0    0  502    0  0.00000000000E+00  0.00000000000E+00  0.76015874044E+02  0.76015874044E+02  0.00000000000E+00 0. -1.
         -1   -1    0    0    0  501 -0.00000000000E+00 -0.00000000000E+00 -0.64807521145E+03  0.64807521145E+03  0.00000000000E+00 0.  1.
          6    2    1    2  502    0  0.11265074557E+03 -0.71782144768E+01 -0.15329351952E+03  0.25730821757E+03  0.17310949848E+03 0.  0.
         24    2    3    3    0    0  0.99219143720E+02 -0.66468456874E+02 -0.86723130027E+02  0.16703392705E+03  0.78210851329E+02 0.  0.
         -6    2    1    2    0  501 -0.11265074557E+03  0.71782144768E+01 -0.41876581789E+03  0.46678286792E+03  0.17256801069E+03 0.  0.
        -24    2    5    5    0    0 -0.68729543555E+02 -0.15621592791E+02 -0.10777269432E+03  0.15184205427E+03  0.80456643513E+02 0.  0.
          5    1    3    3  502    0  0.13431601846E+02  0.59290242397E+02 -0.66570389489E+02  0.90274290517E+02  0.47000000000E+01 0. -1.
        -11    1    4    4    0    0  0.56642674722E+01  0.75721214989E+01 -0.36293664591E+02  0.37505346811E+02  0.00000000000E+00 0.  1.
         12    1    4    4    0    0  0.93554876248E+02 -0.74040578372E+02 -0.50429465436E+02  0.12952858024E+03  0.00000000000E+00 0. -1.
         -5    1    5    5    0  501 -0.43921202011E+02  0.22799807268E+02 -0.31099312357E+03  0.31494081365E+03  0.47000000000E+01 0.  1.
         11    1    6    6    0    0 -0.19102263442E+02  0.90409623995E+00  0.11000136365E+02  0.22061660379E+02  0.00000000000E+00 0. -1.
        -12    1    6    6    0    0 -0.49627280113E+02 -0.16525689031E+02 -0.11877283069E+03  0.12978039389E+03  0.00000000000E+00 0.  1.
<mgrwt>
<rscale>  2 0.20643382E+03</rscale>
<asrwt>0</asrwt>
<pdfrwt beam="1">  1        1 0.11694749E-01 0.20643382E+03</pdfrwt>
<pdfrwt beam="2">  1       -1 0.99703884E-01 0.20643382E+03</pdfrwt>
<totfact> 0.52728638E+02</totfact>
</mgrwt>
</event>
<event>
12    1  0.4154313E-002  0.1928887E+03  0.7546771E-02  0.1155881E+00
         -2   -1    0    0    0  501 -0.00000000000E+00  0.00000000000E+00  0.15633004118E+02  0.15633004118E+02  0.00000000000E+00 0.  1.
          2   -1    0    0  502    0  0.00000000000E+00 -0.00000000000E+00 -0.28549869195E+04  0.28549869195E+04  0.00000000000E+00 0. -1.
          6    2    1    2  502    0  0.73098694174E+01 -0.65714296099E+02 -0.19588578129E+04  0.19676560770E+04  0.17370867414E+03 0.  0.
         24    2    3    3    0    0  0.57736741408E+02 -0.79503113876E+02 -0.11154425163E+04  0.11226090645E+04  0.79905119035E+02 0.  0.
         -6    2    1    2    0  501 -0.73098694174E+01  0.65714296099E+02 -0.88049610254E+03  0.90296384663E+03  0.18894051665E+03 0.  0.
        -24    2    5    5    0    0 -0.69717839258E+02 -0.11317602837E+01 -0.53691781121E+03  0.54739207859E+03  0.80594625860E+02 0.  0.
          5    1    3    3  502    0 -0.50426871990E+02  0.13788817777E+02 -0.84341529655E+03  0.84504701252E+03  0.47000000000E+01 0. -1.
        -11    1    4    4    0    0  0.31302813876E+02  0.89402345332E+01 -0.21554869773E+03  0.21799319954E+03  0.00000000000E+00 0.  1.
         12    1    4    4    0    0  0.26433927532E+02 -0.88443348409E+02 -0.89989381857E+03  0.90461586494E+03  0.00000000000E+00 0. -1.
         -5    1    5    5    0  501  0.62407969840E+02  0.66846056383E+02 -0.34357829133E+03  0.35557176804E+03  0.47000000000E+01 0.  1.
         13    1    6    6    0    0  0.10772282087E+02 -0.20431422216E+02 -0.14511048414E+03  0.14693718958E+03  0.00000000000E+00 0. -1.
        -14    1    6    6    0    0 -0.80490121345E+02  0.19299661932E+02 -0.39180732707E+03  0.40045488900E+03  0.00000000000E+00 0.  1.
<mgrwt>
<rscale>  2 0.19288868E+03</rscale>
<asrwt>0</asrwt>
<pdfrwt beam="2">  1        2 0.43922833E+00 0.19288868E+03</pdfrwt>
<pdfrwt beam="1">  1       -2 0.24050799E-02 0.19288868E+03</pdfrwt>
<totfact> 0.15093693E+03</totfact>
</mgrwt>
</event>
<event>
12    1  0.4154313E-002  0.2831709E+03  0.7546771E-02  0.1093970E+00
         -2   -1    0    0    0  501 -0.00000000000E+00  0.00000000000E+00  0.11449091197E+03  0.11449091197E+03  0.00000000000E+00 0.  1.
          2   -1    0    0  502    0  0.00000000000E+00 -0.00000000000E+00 -0.75443490373E+03  0.75443490373E+03  0.00000000000E+00 0. -1.
          6    2    1    2  502    0 -0.21575914095E+03  0.26853435558E+01 -0.44129749463E+03  0.52709239573E+03  0.19111173929E+03 0.  0.
         24    2    3    3    0    0 -0.78147611618E+02  0.84315497688E+01 -0.74537097663E+02  0.13529495996E+03  0.81060514612E+02 0.  0.
         -6    2    1    2    0  501  0.21575914095E+03 -0.26853435558E+01 -0.19864649713E+03  0.34183341997E+03  0.17558598524E+03 0.  0.
        -24    2    5    5    0    0  0.51734206453E+02 -0.40668068020E+02 -0.49313046123E+02  0.11673469478E+03  0.82854647261E+02 0.  0.
          5    1    3    3  502    0 -0.13761152933E+03 -0.57462062129E+01 -0.36676039697E+03  0.39179743577E+03  0.47000000000E+01 0. -1.
        -13    1    4    4    0    0 -0.21113873713E+02  0.77066449048E+01  0.16488013921E+02  0.27875484604E+02  0.00000000000E+00 0.  1.
         14    1    4    4    0    0 -0.57033737905E+02  0.72490486396E+00 -0.91025111584E+02  0.10741947535E+03  0.00000000000E+00 0. -1.
         -5    1    5    5    0  501  0.16402493450E+03  0.37982724464E+02 -0.14933345101E+03  0.22509872520E+03  0.47000000000E+01 0.  1.
         11    1    6    6    0    0  0.89232111298E+01 -0.56381674317E+02 -0.41239875059E+02  0.70421901355E+02  0.00000000000E+00 0. -1.
        -12    1    6    6    0    0  0.42810995323E+02  0.15713606297E+02 -0.80731710643E+01  0.46312793421E+02  0.00000000000E+00 0.  1.
<mgrwt>
<rscale>  2 0.28317093E+03</rscale>
<asrwt>0</asrwt>
<pdfrwt beam="2">  1        2 0.11606691E+00 0.28317093E+03</pdfrwt>
<pdfrwt beam="1">  1       -2 0.17613987E-01 0.28317093E+03</pdfrwt>
<totfact> 0.10003745E+03</totfact>
</mgrwt>
</event>
<event>
12    1  0.4154313E-002  0.1788877E+03  0.7546771E-02  0.1168884E+00
          2   -1    0    0  502    0  0.00000000000E+00  0.00000000000E+00  0.21262594780E+03  0.21262594780E+03  0.00000000000E+00 0. -1.
         -2   -1    0    0    0  501 -0.00000000000E+00 -0.00000000000E+00 -0.17646275632E+03  0.17646275632E+03  0.00000000000E+00 0.  1.
          6    2    1    2  502    0  0.41567008460E+02 -0.14401596264E+02 -0.56616630619E+02  0.18666075771E+03  0.17234144434E+03 0.  0.
         24    2    3    3    0    0  0.91542490179E+02  0.19677210188E+01 -0.56062319578E+02  0.13386018402E+03  0.79947893997E+02 0.  0.
         -6    2    1    2    0  501 -0.41567008460E+02  0.14401596264E+02  0.92779822098E+02  0.20242794640E+03  0.17445273265E+03 0.  0.
        -24    2    5    5    0    0  0.79810985017E+01  0.36488652379E+02  0.11367960707E+03  0.14410347501E+03  0.80297190245E+02 0.  0.
          5    1    3    3  502    0 -0.49975481719E+02 -0.16369317283E+02 -0.55431104104E+00  0.52800573691E+02  0.47000000000E+01 0. -1.
        -11    1    4    4    0    0  0.30740627456E+02  0.38220953520E+02 -0.34114253021E+02  0.59746210955E+02  0.00000000000E+00 0.  1.
         12    1    4    4    0    0  0.60801862724E+02 -0.36253232501E+02 -0.21948066557E+02  0.74113973062E+02  0.00000000000E+00 0. -1.
         -5    1    5    5    0  501 -0.49548106961E+02 -0.22087056115E+02 -0.20899784971E+02  0.58324471392E+02  0.47000000000E+01 0.  1.
         11    1    6    6    0    0 -0.20102443007E+02  0.31249263281E+02  0.12867500643E+02  0.39321714653E+02  0.00000000000E+00 0. -1.
        -12    1    6    6    0    0  0.28083541508E+02  0.52393890978E+01  0.10081210643E+03  0.10478176036E+03  0.00000000000E+00 0.  1.
<mgrwt>
<rscale>  2 0.17888765E+03</rscale>
<asrwt>0</asrwt>
<pdfrwt beam="1">  1        2 0.32711684E-01 0.17888765E+03</pdfrwt>
<pdfrwt beam="2">  1       -2 0.27148116E-01 0.17888765E+03</pdfrwt>
<totfact> 0.19246174E+03</totfact>
</mgrwt>
</event>
<event>
12    1  0.4154313E-002  0.3034595E+03  0.7546771E-02  0.1083524E+00
          2   -1    0    0  502    0  0.00000000000E+00  0.00000000000E+00  0.24925518691E+04  0.24925518691E+04  0.00000000000E+00 0.  1.
         -2   -1    0    0    0  501 -0.00000000000E+00 -0.00000000000E+00 -0.37870895959E+02  0.37870895959E+02  0.00000000000E+00 0. -1.
          6    2    1    2  502    0  0.16431544298E+03 -0.18837852748E+03  0.14219910434E+04  0.14538448772E+04  0.17064690134E+03 0.  0.
         24    2    3    3    0    0  0.25852747650E+02 -0.46856437932E+02  0.30952741890E+03  0.32389008796E+03  0.78953629981E+02 0.  0.
         -6    2    1    2    0  501 -0.16431544298E+03  0.18837852748E+03  0.10326899297E+04  0.10765778878E+04  0.17345150126E+03 0.  0.
        -24    2    5    5    0    0 -0.12925691555E+03  0.53294746959E+02  0.63030076217E+03  0.65064848026E+03  0.80726165534E+02 0.  0.
          5    1    3    3  502    0  0.13846269533E+03 -0.14152208955E+03  0.11124636245E+04  0.11299547892E+04  0.47000000000E+01 0. -1.
        -11    1    4    4    0    0  0.45986623137E+02 -0.24782742268E+01  0.16851252544E+03  0.17469225106E+03  0.00000000000E+00 0.  1.
         12    1    4    4    0    0 -0.20133875487E+02 -0.44378163705E+02  0.14101489347E+03  0.14919783690E+03  0.00000000000E+00 0. -1.
         -5    1    5    5    0  501 -0.35058527432E+02  0.13508378053E+03  0.40238916753E+03  0.42592940759E+03  0.47000000000E+01 0.  1.
         11    1    6    6    0    0 -0.26029773833E+02  0.51492213688E+02  0.20186896885E+03  0.20995256079E+03  0.00000000000E+00 0. -1.
        -12    1    6    6    0    0 -0.10322714172E+03  0.18025332709E+01  0.42843179331E+03  0.44069591947E+03  0.00000000000E+00 0.  1.
<mgrwt>
<rscale>  2 0.30345949E+03</rscale>
<asrwt>0</asrwt>
<pdfrwt beam="1">  1        2 0.38346939E+00 0.30345949E+03</pdfrwt>
<pdfrwt beam="2">  1       -2 0.58262937E-02 0.30345949E+03</pdfrwt>
<totfact> 0.62345256E+02</totfact>
</mgrwt>
</event>
<event>
12    1  0.4154313E-002  0.1852962E+03  0.7546771E-02  0.1162774E+00
         -2   -1    0    0    0  501 -0.00000000000E+00  0.00000000000E+00  0.39374324240E+02  0.39374324240E+02  0.00000000000E+00 0. -1.
          2   -1    0    0  502    0  0.00000000000E+00 -0.00000000000E+00 -0.94367294159E+03  0.94367294159E+03  0.00000000000E+00 0.  1.
          6    2    1    2  502    0 -0.51104121034E+00  0.65262482274E+02 -0.58776076651E+03  0.61629812869E+03  0.17349700868E+03 0.  0.
         24    2    3    3    0    0 -0.22368796328E+02 -0.25482771732E+02 -0.31288500185E+03  0.32596859422E+03  0.84904448264E+02 0.  0.
         -6    2    1    2    0  501  0.51104121034E+00 -0.65262482274E+02 -0.31653785084E+03  0.36674913714E+03  0.17334724060E+03 0.  0.
        -24    2    5    5    0    0 -0.55216282135E+02 -0.88243406873E+01 -0.13970412994E+03  0.17288564589E+03  0.85120478330E+02 0.  0.
          5    1    3    3  502    0  0.21857755117E+02  0.90745254006E+02 -0.27487576466E+03  0.29032953446E+03  0.47000000000E+01 0. -1.
        -13    1    4    4    0    0 -0.22509835006E+02  0.18382902731E+02 -0.23323056593E+03  0.23503429679E+03  0.00000000000E+00 0.  1.
         14    1    4    4    0    0  0.14103867779E+00 -0.43865674463E+02 -0.79654435917E+02  0.90934297431E+02  0.00000000000E+00 0. -1.
         -5    1    5    5    0  501  0.55727323345E+02 -0.56438141587E+02 -0.17683372090E+03  0.19386349125E+03  0.47000000000E+01 0.  1.
         13    1    6    6    0    0 -0.41820190001E+02 -0.32508122920E+02 -0.32192867569E+02  0.61984571225E+02  0.00000000000E+00 0. -1.
        -14    1    6    6    0    0 -0.13396092133E+02  0.23683782233E+02 -0.10751126237E+03  0.11090107467E+03  0.00000000000E+00 0.  1.
<mgrwt>
<rscale>  2 0.18529620E+03</rscale>
<asrwt>0</asrwt>
<pdfrwt beam="2">  1        2 0.14518045E+00 0.18529620E+03</pdfrwt>
<pdfrwt beam="1">  1       -2 0.60575883E-02 0.18529620E+03</pdfrwt>
<totfact> 0.41032900E+03</totfact>
</mgrwt>
</event>
<event>
12    1  0.4154313E-002  0.2079298E+03  0.7546771E-02  0.1143216E+00
          1   -1    0    0  502    0  0.00000000000E+00  0.00000000000E+00  0.19204578125E+03  0.19204578125E+03  0.00000000000E+00 0.  1.
         -1   -1    0    0    0  501 -0.00000000000E+00 -0.00000000000E+00 -0.23140419424E+03  0.23140419424E+03  0.00000000000E+00 0. -1.
          6    2    1    2  502    0 -0.34797028188E+02 -0.10639290590E+03  0.15167078545E+02  0.20872455191E+03  0.17551528338E+03 0.  0.
         24    2    3    3    0    0 -0.32169789470E+02 -0.65014909485E+02  0.77184034501E+02  0.13397675062E+03  0.82039994613E+02 0.  0.
         -6    2    1    2    0  501  0.34797028188E+02  0.10639290590E+03 -0.54525491539E+02  0.21472542358E+03  0.17493911715E+03 0.  0.
        -24    2    5    5    0    0  0.51488295397E+02  0.43290473438E+02  0.27410631837E+02  0.10986297226E+03  0.82422207461E+02 0.  0.
          5    1    3    3  502    0 -0.26272387174E+01 -0.41377996415E+02 -0.62016955956E+02  0.74747801283E+02  0.47000000000E+01 0. -1.
        -11    1    4    4    0    0  0.20731063956E+02 -0.29922189328E+02  0.56497055188E+02  0.67208866021E+02  0.00000000000E+00 0.  1.
         12    1    4    4    0    0 -0.52900853427E+02 -0.35092720157E+02  0.20686979313E+02  0.66767884603E+02  0.00000000000E+00 0. -1.
         -5    1    5    5    0  501 -0.16691267210E+02  0.63102432462E+02 -0.81936123376E+02  0.10486245132E+03  0.47000000000E+01 0.  1.
         13    1    6    6    0    0  0.71735358511E+02  0.19757712117E+02  0.12595845469E+02  0.75465118908E+02  0.00000000000E+00 0. -1.
        -14    1    6    6    0    0 -0.20247063113E+02  0.23532761321E+02  0.14814786368E+02  0.34397853352E+02  0.00000000000E+00 0.  1.
<mgrwt>
<rscale>  2 0.20792984E+03</rscale>
<asrwt>0</asrwt>
<pdfrwt beam="1">  1        1 0.29545505E-01 0.20792984E+03</pdfrwt>
<pdfrwt beam="2">  1       -1 0.35600645E-01 0.20792984E+03</pdfrwt>
<totfact> 0.11677290E+03</totfact>
</mgrwt>
</event>
<event>
12    1  0.4154313E-002  0.2659088E+03  0.7546771E-02  0.1103644E+00
         -3   -1    0    0    0  501 -0.00000000000E+00  0.00000000000E+00  0.77824557457E+02  0.77824557457E+02  0.00000000000E+00 0.  1.
          3   -1    0    0  502    0  0.00000000000E+00 -0.00000000000E+00 -0.12100066869E+04  0.12100066869E+04  0.00000000000E+00 0. -1.
          6    2    1    2  502    0 -0.20149850504E+03 -0.21357912254E+02 -0.88872881093E+03  0.92787970341E+03  0.17338984017E+03 0.  0.
         24    2    3    3    0    0 -0.16735681782E+03  0.92857136707E+01 -0.84201720800E+03  0.86223863041E+03  0.79799425166E+02 0.  0.
         -6    2    1    2    0  501  0.20149850504E+03  0.21357912254E+02 -0.24345331852E+03  0.35995154096E+03  0.17099060088E+03 0.  0.
        -24    2    5    5    0    0  0.87878285065E+02  0.54040575117E+01 -0.20348069311E+03  0.23836214730E+03  0.87523276746E+02 0.  0.
          5    1    3    3  502    0 -0.34141687219E+02 -0.30643625925E+02 -0.46711602928E+02  0.65641072996E+02  0.47000000000E+01 0. -1.
        -13    1    4    4    0    0 -0.14858191918E+03  0.12207062421E+02 -0.55754576180E+03  0.57713332566E+03  0.00000000000E+00 0.  1.
         14    1    4    4    0    0 -0.18774898641E+02 -0.29213487504E+01 -0.28447144620E+03  0.28510530475E+03  0.00000000000E+00 0. -1.
         -5    1    5    5    0  501  0.11362021998E+03  0.15953854742E+02 -0.39972625415E+02  0.12158939366E+03  0.47000000000E+01 0.  1.
         13    1    6    6    0    0  0.96048582603E+02  0.26839207967E+02 -0.14951333837E+03  0.17972176177E+03  0.00000000000E+00 0. -1.
        -14    1    6    6    0    0 -0.81702975377E+01 -0.21435150455E+02 -0.53967354738E+02  0.58640385523E+02  0.00000000000E+00 0.  1.
<mgrwt>
<rscale>  2 0.26590884E+03</rscale>
<asrwt>0</asrwt>
<pdfrwt beam="2">  1        3 0.18615487E+00 0.26590884E+03</pdfrwt>
<pdfrwt beam="1">  1       -3 0.11973009E-01 0.26590884E+03</pdfrwt>
<totfact> 0.26488607E+01</totfact>
</mgrwt>
</event>
<event>
12    1  0.4154313E-002  0.2542502E+03  0.7546771E-02  0.1110648E+00
         -1   -1    0    0    0  501 -0.00000000000E+00  0.00000000000E+00  0.13911230738E+03  0.13911230738E+03  0.00000000000E+00 0. -1.
          1   -1    0    0  502    0  0.00000000000E+00 -0.00000000000E+00 -0.48768737481E+03  0.48768737481E+03  0.00000000000E+00 0.  1.
          6    2    1    2  502    0 -0.35190711090E+02  0.18338294323E+03 -0.24250012201E+03  0.35151657358E+03  0.17288696398E+03 0.  0.
         24    2    3    3    0    0 -0.68976764924E+02  0.91005029945E+02 -0.20517671409E+03  0.24620606567E+03  0.74028597146E+02 0.  0.
         -6    2    1    2    0  501  0.35190711090E+02 -0.18338294323E+03 -0.10607494543E+03  0.27528310861E+03  0.17222428929E+03 0.  0.
        -24    2    5    5    0    0  0.76769375697E+02 -0.65075371801E+02 -0.57583507708E+02  0.14075067259E+03  0.79790666216E+02 0.  0.
          5    1    3    3  502    0  0.33786053834E+02  0.92377913288E+02 -0.37323407915E+02  0.10531050791E+03  0.47000000000E+01 0. -1.
        -11    1    4    4    0    0 -0.27424446665E+02  0.90460697174E+02 -0.14355799810E+03  0.17188407962E+03  0.00000000000E+00 0.  1.
         12    1    4    4    0    0 -0.41552318260E+02  0.54433277100E+00 -0.61618715994E+02  0.74321986058E+02  0.00000000000E+00 0. -1.
         -5    1    5    5    0  501 -0.41578664607E+02 -0.11830757143E+03 -0.48491437718E+02  0.13453243602E+03  0.47000000000E+01 0.  1.
         13    1    6    6    0    0  0.64328930571E+02 -0.72584757631E+02 -0.18079899260E+02  0.98659217035E+02  0.00000000000E+00 0. -1.
        -14    1    6    6    0    0  0.12440445126E+02  0.75093858299E+01 -0.39503608448E+02  0.42091455557E+02  0.00000000000E+00 0.  1.
<mgrwt>
<rscale>  2 0.25425016E+03</rscale>
<asrwt>0</asrwt>
<pdfrwt beam="2">  1        1 0.75028826E-01 0.25425016E+03</pdfrwt>
<pdfrwt beam="1">  1       -1 0.21401894E-01 0.25425016E+03</pdfrwt>
<totfact> 0.84434465E+02</totfact>
</mgrwt>
</event>
<event>
12    1  0.4154313E-002  0.1785355E+03  0.7546771E-02  0.1169228E+00
          3   -1    0    0  502    0  0.00000000000E+00  0.00000000000E+00  0.17520827639E+03  0.17520827639E+03  0.00000000000E+00 0.  1.
         -3   -1    0    0    0  501 -0.00000000000E+00 -0.00000000000E+00 -0.18362977893E+03  0.18362977893E+03  0.00000000000E+00 0. -1.
          6    2    1    2  502    0 -0.37831170660E+02  0.24621507702E+02  0.13072979156E+02  0.17899146376E+03  0.17271255078E+03 0.  0.
         24    2    3    3    0    0 -0.21238453473E+02  0.55375698520E+02 -0.47007917903E+02  0.10932839816E+03  0.78901295343E+02 0.  0.
         -6    2    1    2    0  501  0.37831170660E+02 -0.24621507702E+02 -0.21494481702E+02  0.17984659157E+03  0.17275811888E+03 0.  0.
        -24    2    5    5    0    0  0.45905232423E+02 -0.33496425349E+02 -0.83429249327E+02  0.11658554449E+03  0.58330512298E+02 0.  0.
          5    1    3    3  502    0 -0.16592717187E+02 -0.30754190817E+02  0.60080897059E+02  0.69663065594E+02  0.47000000000E+01 0. -1.
        -13    1    4    4    0    0 -0.37406720055E+02  0.31425366147E-01 -0.44606037337E+01  0.37671749077E+02  0.00000000000E+00 0.  1.
         14    1    4    4    0    0  0.16168266583E+02  0.55344273153E+02 -0.42547314169E+02  0.71656649086E+02  0.00000000000E+00 0. -1.
         -5    1    5    5    0  501 -0.80740617629E+01  0.88749176468E+01  0.61934767626E+02  0.63261047078E+02  0.47000000000E+01 0.  1.
         11    1    6    6    0    0  0.56724169743E+02 -0.24639345342E+02 -0.47342604711E+02  0.77884857275E+02  0.00000000000E+00 0. -1.
        -12    1    6    6    0    0 -0.10818937320E+02 -0.88570800072E+01 -0.36086644617E+02  0.38700687212E+02  0.00000000000E+00 0.  1.
<mgrwt>
<rscale>  2 0.17853546E+03</rscale>
<asrwt>0</asrwt>
<pdfrwt beam="1">  1        3 0.26955119E-01 0.17853546E+03</pdfrwt>
<pdfrwt beam="2">  1       -3 0.28250735E-01 0.17853546E+03</pdfrwt>
<totfact> 0.37848119E+02</totfact>
</mgrwt>
</event>
<event>
12    1  0.4154313E-002  0.5811109E+03  0.7546771E-02  0.9945389E-01
          2   -1    0    0  502    0  0.00000000000E+00  0.00000000000E+00  0.58769298416E+03  0.58769298416E+03  0.00000000000E+00 0.  1.
         -2   -1    0    0    0  501 -0.00000000000E+00 -0.00000000000E+00 -0.57523963524E+03  0.57523963524E+03  0.00000000000E+00 0. -1.
          6    2    1    2  502    0 -0.55494696963E+03  0.10641649365E+02 -0.13126496985E+02  0.58092469637E+03  0.17094389176E+03 0.  0.
         24    2    3    3    0    0 -0.18508093485E+03 -0.32259231560E+02 -0.38363432833E+02  0.20769505901E+03  0.79811491002E+02 0.  0.
         -6    2    1    2    0  501  0.55494696963E+03 -0.10641649365E+02  0.25579845902E+02  0.58200792303E+03  0.17320366669E+03 0.  0.
        -24    2    5    5    0    0  0.39694874256E+03  0.51987366756E+02 -0.11144924107E+02  0.40806358668E+03  0.78234844655E+02 0.  0.
          5    1    3    3  502    0 -0.36986603478E+03  0.42900880924E+02  0.25236935849E+02  0.37322963736E+03  0.47000000000E+01 0. -1.
        -13    1    4    4    0    0 -0.68107036474E+02 -0.48018189744E+02  0.80080323922E+00  0.83336404106E+02  0.00000000000E+00 0.  1.
         14    1    4    4    0    0 -0.11697389837E+03  0.15758958184E+02 -0.39164236072E+02  0.12435865491E+03  0.00000000000E+00 0. -1.
         -5    1    5    5    0  501  0.15799822707E+03 -0.62629016121E+02  0.36724770009E+02  0.17394433636E+03  0.47000000000E+01 0.  1.
         11    1    6    6    0    0  0.33672304160E+02  0.26381522871E+02 -0.97948270753E+01  0.43883339138E+02  0.00000000000E+00 0. -1.
        -12    1    6    6    0    0  0.36327643840E+03  0.25605843885E+02 -0.13500970317E+01  0.36418024754E+03  0.00000000000E+00 0.  1.
<mgrwt>
<rscale>  2 0.58111085E+03</rscale>
<asrwt>0</asrwt>
<pdfrwt beam="1">  1        2 0.90414306E-01 0.58111085E+03</pdfrwt>
<pdfrwt beam="2">  1       -2 0.88498405E-01 0.58111085E+03</pdfrwt>
<totfact> 0.57282712E+01</totfact>
</mgrwt>
</event>
<event>
12    1  0.4154313E-002  0.2386190E+03  0.7546771E-02  0.1120716E+00
         -2   -1    0    0    0  501 -0.00000000000E+00  0.00000000000E+00  0.67832930328E+02  0.67832930328E+02  0.00000000000E+00 0.  1.
          2   -1    0    0  502    0  0.00000000000E+00 -0.00000000000E+00 -0.11355933964E+04  0.11355933964E+04  0.00000000000E+00 0. -1.
          6    2    1    2  502    0 -0.15815449227E+03 -0.44796798419E+02 -0.22676406444E+03  0.32926360754E+03  0.17312707978E+03 0.  0.
         24    2    3    3    0    0 -0.55300928778E+02  0.31445746896E+02 -0.63322263974E+02  0.12159297076E+03  0.82025079712E+02 0.  0.
         -6    2    1    2    0  501  0.15815449227E+03  0.44796798419E+02 -0.84099640162E+03  0.87416271918E+03  0.17281757866E+03 0.  0.
        -24    2    5    5    0    0  0.15701460347E+03  0.31648667971E+02 -0.84140139429E+03  0.86014748819E+03  0.79007412603E+02 0.  0.
          5    1    3    3  502    0 -0.10285356349E+03 -0.76242545315E+02 -0.16344180047E+03  0.20767063678E+03  0.47000000000E+01 0. -1.
        -13    1    4    4    0    0 -0.11850979372E+02 -0.17527811542E+02  0.99084872986E+01  0.23363390381E+02  0.00000000000E+00 0.  1.
         14    1    4    4    0    0 -0.43449949406E+02  0.48973558438E+02 -0.73230751273E+02  0.98229580379E+02  0.00000000000E+00 0. -1.
         -5    1    5    5    0  501  0.11398888014E+01  0.13148130449E+02  0.40499266183E+00  0.14015230994E+02  0.47000000000E+01 0.  1.
         13    1    6    6    0    0  0.11418903896E+03  0.55404689007E+02 -0.66861752469E+03  0.68055727937E+03  0.00000000000E+00 0. -1.
        -14    1    6    6    0    0  0.42825564512E+02 -0.23756021036E+02 -0.17278386960E+03  0.17959020882E+03  0.00000000000E+00 0.  1.
<mgrwt>
<rscale>  2 0.23861899E+03</rscale>
<asrwt>0</asrwt>
<pdfrwt beam="2">  1        2 0.17470666E+00 0.23861899E+03</pdfrwt>
<pdfrwt beam="1">  1       -2 0.10435837E-01 0.23861899E+03</pdfrwt>
<totfact> 0.13511293E+03</totfact>
</mgrwt>
</event>
<event>
12    1  0.4154313E-002  0.3535189E+03  0.7546771E-02  0.1061180E+00
          1   -1    0    0  502    0  0.00000000000E+00  0.00000000000E+00  0.20079241796E+04  0.20079241796E+04  0.00000000000E+00 0.  1.
         -1   -1    0    0    0  501 -0.00000000000E+00 -0.00000000000E+00 -0.76109125295E+02  0.76109125295E+02  0.00000000000E+00 0. -1.
          6    2    1    2  502    0  0.22001639035E+03  0.21393284773E+03  0.52222828599E+03  0.63091319248E+03  0.17650665257E+03 0.  0.
         24    2    3    3    0    0  0.16626293297E+03  0.88162990063E+02  0.37413548262E+03  0.42926731554E+03  0.94217796312E+02 0.  0.
         -6    2    1    2    0  501 -0.22001639035E+03 -0.21393284773E+03  0.14095867683E+04  0.14531201124E+04  0.17449563987E+03 0.  0.
        -24    2    5    5    0    0 -0.46860553641E+02 -0.12664831613E+03  0.56492904242E+03  0.58647699258E+03  0.81084723529E+02 0.  0.
          5    1    3    3  502    0  0.53753457380E+02  0.12576985767E+03  0.14809280337E+03  0.20164587694E+03  0.47000000000E+01 0. -1.
        -11    1    4    4    0    0  0.51637368074E+02  0.66507879726E+02  0.22287467678E+03  0.23824952759E+03  0.00000000000E+00 0.  1.
         12    1    4    4    0    0  0.11462556489E+03  0.21655110337E+02  0.15126080584E+03  0.19101778795E+03  0.00000000000E+00 0. -1.
         -5    1    5    5    0  501 -0.17315583671E+03 -0.87284531602E+02  0.84465772593E+03  0.86664311987E+03  0.47000000000E+01 0.  1.
         11    1    6    6    0    0 -0.30499648012E+02 -0.42328237052E+02  0.36733925289E+03  0.37102565261E+03  0.00000000000E+00 0. -1.
        -12    1    6    6    0    0 -0.16360905629E+02 -0.84320079074E+02  0.19758978953E+03  0.21545133997E+03  0.00000000000E+00 0.  1.
<mgrwt>
<rscale>  2 0.35351894E+03</rscale>
<asrwt>0</asrwt>
<pdfrwt beam="1">  1        1 0.30891137E+00 0.35351894E+03</pdfrwt>
<pdfrwt beam="2">  1       -1 0.11709098E-01 0.35351894E+03</pdfrwt>
<totfact> 0.15646111E+02</totfact>
</mgrwt>
</event>
<event>
12    1  0.4154313E-002  0.2026806E+03  0.7546771E-02  0.1147497E+00
          3   -1    0    0  502    0  0.00000000000E+00  0.00000000000E+00  0.34407840052E+03  0.34407840052E+03  0.00000000000E+00 0.  1.
         -3   -1    0    0    0  501 -0.00000000000E+00 -0.00000000000E+00 -0.14359555823E+03  0.14359555823E+03  0.00000000000E+00 0. -1.
          6    2    1    2  502    0  0.73512293207E+02  0.77139658870E+02  0.24675491656E+00  0.20296635429E+03  0.17274459721E+03 0.  0.
         24    2    3    3    0    0  0.10298588524E+03  0.79632004885E+02 -0.34617501198E+02  0.15700429635E+03  0.80651279721E+02 0.  0.
         -6    2    1    2    0  501 -0.73512293207E+02 -0.77139658870E+02  0.20023608737E+03  0.28470760446E+03  0.17207366192E+03 0.  0.
        -24    2    5    5    0    0 -0.30940811826E+02  0.27672520703E+02  0.99552735872E+02  0.13319142947E+03  0.78141585765E+02 0.  0.
          5    1    3    3  502    0 -0.29473592038E+02 -0.24923460149E+01  0.34864256115E+02  0.45962057947E+02  0.47000000000E+01 0. -1.
        -13    1    4    4    0    0  0.63040893626E+01 -0.90906162099E+01 -0.22688401793E+02  0.25241719864E+02  0.00000000000E+00 0.  1.
         14    1    4    4    0    0  0.96681795882E+02  0.88722621094E+02 -0.11929099405E+02  0.13176257648E+03  0.00000000000E+00 0. -1.
         -5    1    5    5    0  501 -0.42571481381E+02 -0.10481217957E+03  0.10068335150E+03  0.15151617499E+03  0.47000000000E+01 0.  1.
         13    1    6    6    0    0  0.25836341064E+02  0.32047401079E+01  0.37002158358E+02  0.45243193984E+02  0.00000000000E+00 0. -1.
        -14    1    6    6    0    0 -0.56777152890E+02  0.24467780595E+02  0.62550577514E+02  0.87948235485E+02  0.00000000000E+00 0.  1.
<mgrwt>
<rscale>  2 0.20268064E+03</rscale>
<asrwt>0</asrwt>
<pdfrwt beam="1">  1        3 0.52935138E-01 0.20268064E+03</pdfrwt>
<pdfrwt beam="2">  1       -3 0.22091624E-01 0.20268064E+03</pdfrwt>
<totfact> 0.16366043E+02</totfact>
</mgrwt>
</event>
<event>
12    1  0.4154313E-002  0.2862664E+03  0.7546771E-02  0.1092315E+00
         -2   -1    0    0    0  501 -0.00000000000E+00  0.00000000000E+00  0.11627522919E+03  0.11627522919E+03  0.00000000000E+00 0.  1.
          2   -1    0    0  502    0  0.00000000000E+00 -0.00000000000E+00 -0.71869655758E+03  0.71869655758E+03  0.00000000000E+00 0. -1.
          6    2    1    2  502    0 -0.21666644757E+03 -0.71281701228E+02 -0.24254184202E+03  0.37477163737E+03  0.17205174981E+03 0.  0.
         24    2    3    3    0    0 -0.21647350278E+03 -0.27137485676E+02 -0.16513928548E+03  0.28554162699E+03  0.81644452332E+02 0.  0.
         -6    2    1    2    0  501  0.21666644757E+03  0.71281701228E+02 -0.35987948637E+03  0.46020014940E+03  0.17391234104E+03 0.  0.
        -24    2    5    5    0    0  0.94062087896E+02  0.17017259259E+02 -0.79100717390E+02  0.14901649658E+03  0.82533201008E+02 0.  0.
          5    1    3    3  502    0 -0.19294478969E+00 -0.44144215552E+02 -0.77402556538E+02  0.89230010383E+02  0.47000000000E+01 0. -1.
        -13    1    4    4    0    0 -0.79020996583E+02  0.18666545064E+02 -0.27565563548E+02  0.85747408703E+02  0.00000000000E+00 0.  1.
         14    1    4    4    0    0 -0.13745250620E+03 -0.45804030740E+02 -0.13757372193E+03  0.19979421828E+03  0.00000000000E+00 0. -1.
         -5    1    5    5    0  501  0.12260435968E+03  0.54264441969E+02 -0.28077876898E+03  0.31118365282E+03  0.47000000000E+01 0.  1.
         13    1    6    6    0    0  0.47181748638E+02 -0.43637808662E+01 -0.84836898694E+02  0.97172317910E+02  0.00000000000E+00 0. -1.
        -14    1    6    6    0    0  0.46880339258E+02  0.21381040125E+02  0.57361813040E+01  0.51844178668E+02  0.00000000000E+00 0.  1.
<mgrwt>
<rscale>  2 0.28626640E+03</rscale>
<asrwt>0</asrwt>
<pdfrwt beam="2">  1        2 0.11056870E+00 0.28626640E+03</pdfrwt>
<pdfrwt beam="1">  1       -2 0.17888497E-01 0.28626640E+03</pdfrwt>
<totfact> 0.10350658E+03</totfact>
</mgrwt>
</event>
<event>
12    1  0.4154313E-002  0.1964641E+03  0.7546771E-02  0.1152757E+00
          3   -1    0    0  502    0  0.00000000000E+00  0.00000000000E+00  0.37053307816E+02  0.37053307816E+02  0.00000000000E+00 0.  1.
         -3   -1    0    0    0  501 -0.00000000000E+00 -0.00000000000E+00 -0.10431675720E+04  0.10431675720E+04  0.00000000000E+00 0. -1.
          6    2    1    2  502    0 -0.84452218738E+02  0.43082236661E+02 -0.47911935456E+03  0.51722973551E+03  0.17024390447E+03 0.  0.
         24    2    3    3    0    0 -0.41768795108E+02 -0.46838471784E+02 -0.22289848812E+03  0.24231369222E+03  0.71370265123E+02 0.  0.
         -6    2    1    2    0  501  0.84452218738E+02 -0.43082236661E+02 -0.52699490967E+03  0.56299114435E+03  0.17391704184E+03 0.  0.
        -24    2    5    5    0    0 -0.18755793732E+02 -0.42416667836E+02 -0.28970284257E+03  0.30418242749E+03  0.80301050363E+02 0.  0.
          5    1    3    3  502    0 -0.42683423630E+02  0.89920708445E+02 -0.25622086644E+03  0.27491604329E+03  0.47000000000E+01 0. -1.
        -11    1    4    4    0    0  0.87182500961E+01 -0.29118949236E+02 -0.32325554419E+02  0.44371866738E+02  0.00000000000E+00 0.  1.
         12    1    4    4    0    0 -0.50487045204E+02 -0.17719522549E+02 -0.19057293370E+03  0.19794182548E+03  0.00000000000E+00 0. -1.
         -5    1    5    5    0  501  0.10320801247E+03 -0.66556882520E+00 -0.23729206709E+03  0.25880871687E+03  0.47000000000E+01 0.  1.
         13    1    6    6    0    0 -0.15199657168E+01  0.21120734281E+02 -0.33297448547E+02  0.39460306539E+02  0.00000000000E+00 0. -1.
        -14    1    6    6    0    0 -0.17235828016E+02 -0.63537402117E+02 -0.25640539403E+03  0.26472212095E+03  0.00000000000E+00 0.  1.
<mgrwt>
<rscale>  2 0.19646410E+03</rscale>
<asrwt>0</asrwt>
<pdfrwt beam="1">  1        3 0.57005097E-02 0.19646410E+03</pdfrwt>
<pdfrwt beam="2">  1       -3 0.16048729E+00 0.19646410E+03</pdfrwt>
<totfact> 0.13004385E+02</totfact>
</mgrwt>
</event>
<event>
12    1  0.4154313E-002  0.2165204E+03  0.7546771E-02  0.1136504E+00
         -2   -1    0    0    0  501 -0.00000000000E+00  0.00000000000E+00  0.21540597971E+02  0.21540597971E+02  0.00000000000E+00 0. -1.
          2   -1    0    0  502    0  0.00000000000E+00 -0.00000000000E+00 -0.22044996310E+04  0.22044996310E+04  0.00000000000E+00 0.  1.
          6    2    1    2  502    0 -0.10060822354E+03  0.78843769050E+02 -0.12285346673E+04  0.12478927449E+04  0.17776534908E+03 0.  0.
         24    2    3    3    0    0  0.79862592737E+01  0.15206276862E+02 -0.31273945891E+03  0.32347647184E+03  0.80845825357E+02 0.  0.
         -6    2    1    2    0  501  0.10060822354E+03 -0.78843769050E+02 -0.95442436570E+03  0.97814748409E+03  0.17177973172E+03 0.  0.
        -24    2    5    5    0    0  0.10442677621E+02 -0.64496065382E+02 -0.29962882731E+03  0.31700077619E+03  0.80269956928E+02 0.  0.
          5    1    3    3  502    0 -0.10859448281E+03  0.63637492189E+02 -0.91579520842E+03  0.92441627304E+03  0.47000000000E+01 0. -1.
        -11    1    4    4    0    0 -0.25161982613E+02  0.92858699725E+01 -0.25670841824E+03  0.25810572397E+03  0.00000000000E+00 0.  1.
         12    1    4    4    0    0  0.33148241887E+02  0.59204068890E+01 -0.56031040674E+02  0.65370747869E+02  0.00000000000E+00 0. -1.
         -5    1    5    5    0  501  0.90165545916E+02 -0.14347703668E+02 -0.65479553840E+03  0.66114670791E+03  0.47000000000E+01 0.  1.
         13    1    6    6    0    0 -0.19395563668E+02 -0.18594872708E+02 -0.21185985761E+03  0.21355691618E+03  0.00000000000E+00 0. -1.
        -14    1    6    6    0    0  0.29838241290E+02 -0.45901192674E+02 -0.87768969697E+02  0.10344386001E+03  0.00000000000E+00 0.  1.
<mgrwt>
<rscale>  2 0.21652040E+03</rscale>
<asrwt>0</asrwt>
<pdfrwt beam="2">  1        2 0.33915371E+00 0.21652040E+03</pdfrwt>
<pdfrwt beam="1">  1       -2 0.33139389E-02 0.21652040E+03</pdfrwt>
<totfact> 0.21205672E+03</totfact>
</mgrwt>
</event>
<event>
12    1  0.4154313E-002  0.2045988E+03  0.7546771E-02  0.1145916E+00
         -2   -1    0    0    0  501 -0.00000000000E+00  0.00000000000E+00  0.60409951206E+02  0.60409951206E+02  0.00000000000E+00 0.  1.
          2   -1    0    0  502    0  0.00000000000E+00 -0.00000000000E+00 -0.86142465512E+03  0.86142465512E+03  0.00000000000E+00 0. -1.
          6    2    1    2  502    0  0.33242173257E+02  0.10293175934E+03 -0.60425973034E+03  0.63794015204E+03  0.17360249628E+03 0.  0.
         24    2    3    3    0    0  0.85972374040E+02  0.53631265935E+02 -0.31018983420E+03  0.33510322143E+03  0.76215969394E+02 0.  0.
         -6    2    1    2    0  501 -0.33242173257E+02 -0.10293175934E+03 -0.19675497358E+03  0.28389445429E+03  0.17373414283E+03 0.  0.
        -24    2    5    5    0    0  0.23154732363E+02 -0.10157134680E+03 -0.18335256521E+03  0.22572078124E+03  0.80491165925E+02 0.  0.
          5    1    3    3  502    0 -0.52730200783E+02  0.49300493400E+02 -0.29406989614E+03  0.30283693061E+03  0.47000000000E+01 0. -1.
        -13    1    4    4    0    0  0.17700775328E+02  0.48728605101E+02 -0.18833508204E+03  0.19534046567E+03  0.00000000000E+00 0.  1.
         14    1    4    4    0    0  0.68271598712E+02  0.49026608341E+01 -0.12185475216E+03  0.13976275576E+03  0.00000000000E+00 0. -1.
         -5    1    5    5    0  501 -0.56396905620E+02 -0.13604125367E+01 -0.13402408364E+02  0.58173673047E+02  0.47000000000E+01 0.  1.
         11    1    6    6    0    0 -0.24667559889E+02 -0.37969414839E+02 -0.10358388052E+03  0.11304771239E+03  0.00000000000E+00 0. -1.
        -12    1    6    6    0    0  0.47822292252E+02 -0.63601931960E+02 -0.79768684693E+02  0.11267306884E+03  0.00000000000E+00 0.  1.
<mgrwt>
<rscale>  2 0.20459881E+03</rscale>
<asrwt>0</asrwt>
<pdfrwt beam="2">  1        2 0.13252689E+00 0.20459881E+03</pdfrwt>
<pdfrwt beam="1">  1       -2 0.92938375E-02 0.20459881E+03</pdfrwt>
<totfact> 0.23892932E+03</totfact>
</mgrwt>
</event>
<event>
12    1  0.4154313E-002  0.1736638E+03  0.7546771E-02  0.1174080E+00
         -2   -1    0    0    0  501 -0.00000000000E+00  0.00000000000E+00  0.48534625264E+02  0.48534625264E+02  0.00000000000E+00 0. -1.
          2   -1    0    0  502    0  0.00000000000E+00 -0.00000000000E+00 -0.86360900794E+03  0.86360900794E+03  0.00000000000E+00 0.  1.
          6    2    1    2  502    0  0.17308486561E+02  0.13820189402E+02 -0.16458044765E+03  0.23864685899E+03  0.17139141815E+03 0.  0.
         24    2    3    3    0    0 -0.27169493876E+02 -0.39228136685E+02 -0.13289346179E+03  0.16236730264E+03  0.80158846519E+02 0.  0.
         -6    2    1    2    0  501 -0.17308486561E+02 -0.13820189402E+02 -0.65049393503E+03  0.67349677421E+03  0.17310391107E+03 0.  0.
        -24    2    5    5    0    0 -0.20580586404E+02  0.22213732050E+02 -0.62011940277E+03  0.62602201942E+03  0.80240168774E+02 0.  0.
          5    1    3    3  502    0  0.44477980437E+02  0.53048326087E+02 -0.31686985865E+02  0.76279556354E+02  0.47000000000E+01 0. -1.
        -11    1    4    4    0    0  0.18036303981E+02 -0.39550628803E+02 -0.40066542284E+02  0.59117580385E+02  0.00000000000E+00 0.  1.
         12    1    4    4    0    0 -0.45205797857E+02  0.32249211785E+00 -0.92826919503E+02  0.10324972225E+03  0.00000000000E+00 0. -1.
         -5    1    5    5    0  501  0.32720998430E+01 -0.36033921452E+02 -0.30374532261E+02  0.47474754794E+02  0.47000000000E+01 0.  1.
         11    1    6    6    0    0 -0.41637172937E+02  0.38900427147E+02 -0.35489945744E+03  0.35944474164E+03  0.00000000000E+00 0. -1.
        -12    1    6    6    0    0  0.21056586533E+02 -0.16686695097E+02 -0.26521994532E+03  0.26657727778E+03  0.00000000000E+00 0.  1.
<mgrwt>
<rscale>  2 0.17366384E+03</rscale>
<asrwt>0</asrwt>
<pdfrwt beam="2">  1        2 0.13286293E+00 0.17366384E+03</pdfrwt>
<pdfrwt beam="1">  1       -2 0.74668653E-02 0.17366384E+03</pdfrwt>
<totfact> 0.33397021E+03</totfact>
</mgrwt>
</event>
<event>
12    1  0.4154313E-002  0.1980568E+03  0.7546771E-02  0.1151389E+00
          2   -1    0    0  502    0  0.00000000000E+00  0.00000000000E+00  0.18650080347E+03  0.18650080347E+03  0.00000000000E+00 0.  1.
         -2   -1    0    0    0  501 -0.00000000000E+00 -0.00000000000E+00 -0.23154865845E+03  0.23154865845E+03  0.00000000000E+00 0. -1.
          6    2    1    2  502    0 -0.95504365880E+02  0.38142114259E+01 -0.85821284285E+02  0.21603291660E+03  0.17369310898E+03 0.  0.
         24    2    3    3    0    0  0.18097496452E+02 -0.95950216205E+01  0.10413986837E+02  0.66471865305E+02  0.62373663814E+02 0.  0.
         -6    2    1    2    0  501  0.95504365880E+02 -0.38142114259E+01  0.40773429308E+02  0.20201654533E+03  0.17324139210E+03 0.  0.
        -24    2    5    5    0    0  0.11590970550E+03  0.89616378844E+01 -0.15201694486E+02  0.14090267870E+03  0.78147953050E+02 0.  0.
          5    1    3    3  502    0 -0.11360186233E+03  0.13409233046E+02 -0.96235271122E+02  0.14956105129E+03  0.47000000000E+01 0. -1.
        -11    1    4    4    0    0  0.35578086032E+02 -0.22640535479E+02 -0.29695753194E+00  0.42172055158E+02  0.00000000000E+00 0.  1.
         12    1    4    4    0    0 -0.17480589580E+02  0.13045513858E+02  0.10710944369E+02  0.24299810147E+02  0.00000000000E+00 0. -1.
         -5    1    5    5    0  501 -0.20405339621E+02 -0.12775849310E+02  0.55975123794E+02  0.61113866630E+02  0.47000000000E+01 0.  1.
         13    1    6    6    0    0  0.98837230014E+01 -0.26439997261E+02 -0.12417073026E+01  0.28254261140E+02  0.00000000000E+00 0. -1.
        -14    1    6    6    0    0  0.10602598250E+03  0.35401635146E+02 -0.13959987184E+02  0.11264841756E+03  0.00000000000E+00 0.  1.
<mgrwt>
<rscale>  2 0.19805679E+03</rscale>
<asrwt>0</asrwt>
<pdfrwt beam="1">  1        2 0.28692431E-01 0.19805679E+03</pdfrwt>
<pdfrwt beam="2">  1       -2 0.35622871E-01 0.19805679E+03</pdfrwt>
<totfact> 0.13579883E+03</totfact>
</mgrwt>
</event>
<event>
12    1  0.4154313E-002  0.2375265E+03  0.7546771E-02  0.1121452E+00
          1   -1    0    0  502    0  0.00000000000E+00  0.00000000000E+00  0.83946334457E+03  0.83946334457E+03  0.00000000000E+00 0. -1.
         -1   -1    0    0    0  501 -0.00000000000E+00 -0.00000000000E+00 -0.67819135518E+02  0.67819135518E+02  0.00000000000E+00 0.  1.
          6    2    1    2  502    0  0.14043522782E+03 -0.82881560277E+02  0.34304130585E+03  0.41734495194E+03  0.17293948403E+03 0.  0.
         24    2    3    3    0    0  0.17083495362E+03 -0.65008194341E+02  0.26170806281E+03  0.32857115534E+03  0.77828319215E+02 0.  0.
         -6    2    1    2    0  501 -0.14043522782E+03  0.82881560277E+02  0.42860290320E+03  0.48993752815E+03  0.17247297357E+03 0.  0.
        -24    2    5    5    0    0 -0.15979056152E+03  0.29957471797E+02  0.28669346033E+03  0.33717638107E+03  0.71163881883E+02 0.  0.
          5    1    3    3  502    0 -0.30399725795E+02 -0.17873365936E+02  0.81333243041E+02  0.88773796595E+02  0.47000000000E+01 0. -1.
        -13    1    4    4    0    0  0.10705390647E+03 -0.31533827252E+02  0.93512952749E+02  0.14560080180E+03  0.00000000000E+00 0.  1.
         14    1    4    4    0    0  0.63781047149E+02 -0.33474367088E+02  0.16819511006E+03  0.18297035354E+03  0.00000000000E+00 0. -1.
         -5    1    5    5    0  501  0.19355333696E+02  0.52924088479E+02  0.14190944286E+03  0.15276114708E+03  0.47000000000E+01 0.  1.
         13    1    6    6    0    0 -0.18022062775E+02 -0.12418872619E+02  0.80258658247E+02  0.83189394561E+02  0.00000000000E+00 0. -1.
        -14    1    6    6    0    0 -0.14176849874E+03  0.42376344417E+02  0.20643480209E+03  0.25398698651E+03  0.00000000000E+00 0.  1.
<mgrwt>
<rscale>  2 0.23752651E+03</rscale>
<asrwt>0</asrwt>
<pdfrwt beam="1">  1        1 0.12914820E+00 0.23752651E+03</pdfrwt>
<pdfrwt beam="2">  1       -1 0.10433714E-01 0.23752651E+03</pdfrwt>
<totfact> 0.12200375E+03</totfact>
</mgrwt>
</event>
<event>
12    1  0.4154313E-002  0.1894346E+03  0.7546771E-02  0.1158972E+00
         -1   -1    0    0    0  501 -0.00000000000E+00  0.00000000000E+00  0.66640976460E+02  0.66640976460E+02  0.00000000000E+00 0. -1.
          1   -1    0    0  502    0  0.00000000000E+00 -0.00000000000E+00 -0.73670021950E+03  0.73670021950E+03  0.00000000000E+00 0.  1.
          6    2    1    2  502    0  0.77342680950E+02  0.29161604856E+01 -0.12815852925E+03  0.22965531945E+03  0.17414523492E+03 0.  0.
         24    2    3    3    0    0 -0.57262988061E+01  0.14785562098E+01 -0.52824839395E+01  0.81253383431E+02  0.80865512154E+02 0.  0.
         -6    2    1    2    0  501 -0.77342680950E+02 -0.29161604856E+01 -0.54190071379E+03  0.57368587651E+03  0.17166451879E+03 0.  0.
        -24    2    5    5    0    0 -0.47115063141E+02 -0.57345004762E+02 -0.21930219810E+03  0.24510087945E+03  0.80453143311E+02 0.  0.
          5    1    3    3  502    0  0.83068979756E+02  0.14376042758E+01 -0.12287604531E+03  0.14840193602E+03  0.47000000000E+01 0. -1.
        -11    1    4    4    0    0  0.30252347621E+02  0.23809431002E+02  0.59168158895E+00  0.38502514571E+02  0.00000000000E+00 0.  1.
         12    1    4    4    0    0 -0.35978646427E+02 -0.22330874792E+02 -0.58741655284E+01  0.42750868860E+02  0.00000000000E+00 0. -1.
         -5    1    5    5    0  501 -0.30227617809E+02  0.54428844277E+02 -0.32259851569E+03  0.32858499706E+03  0.47000000000E+01 0.  1.
         13    1    6    6    0    0 -0.35671338449E+00 -0.36886951313E+02 -0.17064158525E+03  0.17458328968E+03  0.00000000000E+00 0. -1.
        -14    1    6    6    0    0 -0.46758349757E+02 -0.20458053449E+02 -0.48660612859E+02  0.70517589768E+02  0.00000000000E+00 0.  1.
<mgrwt>
<rscale>  2 0.18943460E+03</rscale>
<asrwt>0</asrwt>
<pdfrwt beam="2">  1        1 0.11333850E+00 0.18943460E+03</pdfrwt>
<pdfrwt beam="1">  1       -1 0.10252457E-01 0.18943460E+03</pdfrwt>
<totfact> 0.15272394E+03</totfact>
</mgrwt>
</event>
<event>
12    1  0.4154313E-002  0.1819931E+03  0.7546771E-02  0.1165888E+00
         -1   -1    0    0    0  501 -0.00000000000E+00  0.00000000000E+00  0.30395132773E+02  0.30395132773E+02  0.00000000000E+00 0.  1.
          1   -1    0    0  502    0  0.00000000000E+00 -0.00000000000E+00 -0.13736338246E+04  0.13736338246E+04  0.00000000000E+00 0. -1.
          6    2    1    2  502    0 -0.53575511202E+02 -0.27976715131E+02 -0.98706953858E+03  0.10034803879E+04  0.17033373999E+03 0.  0.
         24    2    3    3    0    0 -0.77835116918E+02 -0.69736700382E+02 -0.72415161904E+03  0.73612229986E+03  0.80987407658E+02 0.  0.
         -6    2    1    2    0  501  0.53575511202E+02  0.27976715131E+02 -0.35616915324E+03  0.40054856943E+03  0.17300190394E+03 0.  0.
        -24    2    5    5    0    0  0.78922773245E+02  0.70443081424E+02 -0.26739729732E+03  0.29882144246E+03  0.81252126138E+02 0.  0.
          5    1    3    3  502    0  0.24259605716E+02  0.41759985251E+02 -0.26291791955E+03  0.26735808807E+03  0.47000000000E+01 0. -1.
        -13    1    4    4    0    0 -0.12786996641E+02  0.14046593475E+02 -0.22634476915E+03  0.22714041603E+03  0.00000000000E+00 0.  1.
         14    1    4    4    0    0 -0.65048120277E+02 -0.83783293857E+02 -0.49780684989E+03  0.50898188384E+03  0.00000000000E+00 0. -1.
         -5    1    5    5    0  501 -0.25347262043E+02 -0.42466366293E+02 -0.88771855914E+02  0.10172712697E+03  0.47000000000E+01 0.  1.
         11    1    6    6    0    0  0.29393131648E+02  0.60866726659E+02 -0.21791665797E+03  0.22815868255E+03  0.00000000000E+00 0. -1.
        -12    1    6    6    0    0  0.49529641597E+02  0.95763547644E+01 -0.49480639348E+02  0.70662759907E+02  0.00000000000E+00 0.  1.
<mgrwt>
<rscale>  2 0.18199309E+03</rscale>
<asrwt>0</asrwt>
<pdfrwt beam="2">  1        1 0.21132832E+00 0.18199309E+03</pdfrwt>
<pdfrwt beam="1">  1       -1 0.46761734E-02 0.18199309E+03</pdfrwt>
<totfact> 0.16940509E+03</totfact>
</mgrwt>
</event>
<event>
12    1  0.4154313E-002  0.3061323E+03  0.7546771E-02  0.1082215E+00
          1   -1    0    0  502    0  0.00000000000E+00  0.00000000000E+00  0.23248621912E+03  0.23248621912E+03  0.00000000000E+00 0.  1.
         -1   -1    0    0    0  501 -0.00000000000E+00 -0.00000000000E+00 -0.40318196174E+03  0.40318196174E+03  0.00000000000E+00 0. -1.
          6    2    1    2  502    0 -0.24745192262E+03  0.57080804642E+02 -0.89813979966E+02  0.32020061239E+03  0.17312194809E+03 0.  0.
         24    2    3    3    0    0 -0.10405680159E+03 -0.15681519991E+02  0.71599615753E+01  0.13236410913E+03  0.79970396449E+02 0.  0.
         -6    2    1    2    0  501  0.24745192262E+03 -0.57080804642E+02 -0.80881762647E+02  0.31546756847E+03  0.16878167839E+03 0.  0.
        -24    2    5    5    0    0  0.14595701527E+03 -0.43222341296E+00 -0.10483471482E+03  0.19669841468E+03  0.79976945329E+02 0.  0.
          5    1    3    3  502    0 -0.14339512103E+03  0.72762324633E+02 -0.96973941542E+02  0.18783650326E+03  0.47000000000E+01 0. -1.
        -11    1    4    4    0    0  0.12903257883E+02  0.38274312040E+01  0.25513520085E+01  0.13698638279E+02  0.00000000000E+00 0.  1.
         12    1    4    4    0    0 -0.11696005948E+03 -0.19508951195E+02  0.46086095668E+01  0.11866547085E+03  0.00000000000E+00 0. -1.
         -5    1    5    5    0  501  0.10149490735E+03 -0.56648581229E+02  0.23952952172E+02  0.11876915378E+03  0.47000000000E+01 0.  1.
         11    1    6    6    0    0  0.96166322536E+02 -0.24565718369E+02 -0.30115490900E+02  0.10372260555E+03  0.00000000000E+00 0. -1.
        -12    1    6    6    0    0  0.49790692734E+02  0.24133494956E+02 -0.74719223919E+02  0.92975809137E+02  0.00000000000E+00 0.  1.
<mgrwt>
<rscale>  2 0.30613227E+03</rscale>
<asrwt>0</asrwt>
<pdfrwt beam="1">  1        1 0.35767111E-01 0.30613227E+03</pdfrwt>
<pdfrwt beam="2">  1       -1 0.62027994E-01 0.30613227E+03</pdfrwt>
<totfact> 0.33116979E+02</totfact>
</mgrwt>
</event>
<event>
12    1  0.4154313E-002  0.1860132E+03  0.7546771E-02  0.1162107E+00
          2   -1    0    0  502    0  0.00000000000E+00  0.00000000000E+00  0.29964108206E+03  0.29964108206E+03  0.00000000000E+00 0.  1.
         -2   -1    0    0    0  501 -0.00000000000E+00 -0.00000000000E+00 -0.47782786142E+03  0.47782786142E+03  0.00000000000E+00 0. -1.
          6    2    1    2  502    0 -0.63853576893E+02 -0.29300204625E+02  0.24945560015E+03  0.31101958261E+03  0.17195727099E+03 0.  0.
         24    2    3    3    0    0 -0.10133630269E+02 -0.73117572902E+02  0.19314582491E+03  0.22158426958E+03  0.79658075038E+02 0.  0.
         -6    2    1    2    0  501  0.63853576893E+02  0.29300204625E+02 -0.42764237952E+03  0.46644936086E+03  0.17251440582E+03 0.  0.
        -24    2    5    5    0    0 -0.35675661517E+01 -0.42960764106E+02 -0.23073400302E+03  0.24608090380E+03  0.73886915532E+02 0.  0.
          5    1    3    3  502    0 -0.53719946624E+02  0.43817368277E+02  0.56309775246E+02  0.89435313027E+02  0.47000000000E+01 0. -1.
        -13    1    4    4    0    0 -0.20737570002E+02 -0.82040521265E+02  0.11820233678E+03  0.14537017012E+03  0.00000000000E+00 0.  1.
         14    1    4    4    0    0  0.10603939734E+02  0.89229483631E+01  0.74943488124E+02  0.76214099467E+02  0.00000000000E+00 0. -1.
         -5    1    5    5    0  501  0.67421143045E+02  0.72260968731E+02 -0.19690837650E+03  0.22036845706E+03  0.47000000000E+01 0.  1.
         11    1    6    6    0    0  0.60569390740E+01 -0.50647529732E+02 -0.80219716589E+02  0.95063461480E+02  0.00000000000E+00 0. -1.
        -12    1    6    6    0    0 -0.96245052257E+01  0.76867656257E+01 -0.15051428643E+03  0.15101744232E+03  0.00000000000E+00 0.  1.
<mgrwt>
<rscale>  2 0.18601320E+03</rscale>
<asrwt>0</asrwt>
<pdfrwt beam="1">  1        2 0.46098628E-01 0.18601320E+03</pdfrwt>
<pdfrwt beam="2">  1       -2 0.73511979E-01 0.18601320E+03</pdfrwt>
<totfact> 0.19035502E+02</totfact>
</mgrwt>
</event>
<event>
12    1  0.4154313E-002  0.2299261E+03  0.7546771E-02  0.1126692E+00
          2   -1    0    0  502    0  0.00000000000E+00  0.00000000000E+00  0.74886088690E+03  0.74886088690E+03  0.00000000000E+00 0.  1.
         -2   -1    0    0    0  501 -0.00000000000E+00 -0.00000000000E+00 -0.70609727730E+02  0.70609727730E+02  0.00000000000E+00 0. -1.
          6    2    1    2  502    0  0.36693912247E+02 -0.14692985733E+03  0.34482305571E+03  0.41438475405E+03  0.17284952552E+03 0.  0.
         24    2    3    3    0    0 -0.30846853476E+02 -0.90246964805E+02  0.11855759079E+03  0.17150030425E+03  0.79122746408E+02 0.  0.
         -6    2    1    2    0  501 -0.36693912247E+02  0.14692985733E+03  0.33342810346E+03  0.40508586058E+03  0.17316301018E+03 0.  0.
        -24    2    5    5    0    0 -0.47494652640E+02  0.17793465884E+02  0.10994823439E+03  0.14670976751E+03  0.82841971130E+02 0.  0.
          5    1    3    3  502    0  0.67540765722E+02 -0.56682892522E+02  0.22626546492E+03  0.24288444980E+03  0.47000000000E+01 0. -1.
        -11    1    4    4    0    0 -0.36201215986E+02 -0.66250093054E+02  0.12504849554E+03  0.14607097284E+03  0.00000000000E+00 0.  1.
         12    1    4    4    0    0  0.53543625104E+01 -0.23996871750E+02 -0.64909047515E+01  0.25429331415E+02  0.00000000000E+00 0. -1.
         -5    1    5    5    0  501  0.10800740394E+02  0.12913639144E+03  0.22347986907E+03  0.25837609306E+03  0.47000000000E+01 0.  1.
         11    1    6    6    0    0  0.18199561146E+02  0.20112104685E+02  0.14333824184E+02  0.30678645611E+02  0.00000000000E+00 0. -1.
        -12    1    6    6    0    0 -0.65694213786E+02 -0.23186388015E+01  0.95614410206E+02  0.11603112190E+03  0.00000000000E+00 0.  1.
<mgrwt>
<rscale>  2 0.22992606E+03</rscale>
<asrwt>0</asrwt>
<pdfrwt beam="1">  1        2 0.11520936E+00 0.22992606E+03</pdfrwt>
<pdfrwt beam="2">  1       -2 0.10863036E-01 0.22992606E+03</pdfrwt>
<totfact> 0.22320083E+03</totfact>
</mgrwt>
</event>
<event>
12    1  0.4154313E-002  0.2085126E+03  0.7546771E-02  0.1142749E+00
          3   -1    0    0  502    0  0.00000000000E+00  0.00000000000E+00  0.28519826492E+02  0.28519826492E+02  0.00000000000E+00 0. -1.
         -3   -1    0    0    0  501 -0.00000000000E+00 -0.00000000000E+00 -0.17083808312E+04  0.17083808312E+04  0.00000000000E+00 0.  1.
          6    2    1    2  502    0  0.89720597780E+02 -0.74839492982E+02 -0.55477267213E+03  0.59264283651E+03  0.17263278528E+03 0.  0.
         24    2    3    3    0    0  0.56870672688E+02 -0.84065326911E+02 -0.22742462347E+03  0.26348775369E+03  0.86038272771E+02 0.  0.
         -6    2    1    2    0  501 -0.89720597780E+02  0.74839492982E+02 -0.11250883326E+04  0.11442578212E+04  0.17277577912E+03 0.  0.
        -24    2    5    5    0    0 -0.51175148828E+02  0.11663297605E+03 -0.86184062494E+03  0.87489952367E+03  0.80360231194E+02 0.  0.
          5    1    3    3  502    0  0.32849925092E+02  0.92258339296E+01 -0.32734804865E+03  0.32915508282E+03  0.47000000000E+01 0. -1.
        -11    1    4    4    0    0 -0.20365671107E+02 -0.12167624905E+02 -0.70498898769E+02  0.74383508812E+02  0.00000000000E+00 0.  1.
         12    1    4    4    0    0  0.77236343795E+02 -0.71897702006E+02 -0.15692572470E+03  0.18910424488E+03  0.00000000000E+00 0. -1.
         -5    1    5    5    0  501 -0.38545448951E+02 -0.41793483065E+02 -0.26324770765E+03  0.26935829752E+03  0.47000000000E+01 0.  1.
         11    1    6    6    0    0 -0.53780546321E+02  0.25757551352E+02 -0.32985416666E+03  0.33520079039E+03  0.00000000000E+00 0. -1.
        -12    1    6    6    0    0  0.26053974927E+01  0.90875424695E+02 -0.53198645828E+03  0.53969873328E+03  0.00000000000E+00 0.  1.
<mgrwt>
<rscale>  2 0.20851260E+03</rscale>
<asrwt>0</asrwt>
<pdfrwt beam="1">  1        3 0.43876651E-02 0.20851260E+03</pdfrwt>
<pdfrwt beam="2">  1       -3 0.26282785E+00 0.20851260E+03</pdfrwt>
<totfact> 0.48309714E+01</totfact>
</mgrwt>
</event>
<event>
12    1  0.4154313E-002  0.2126250E+03  0.7546771E-02  0.1139504E+00
         -2   -1    0    0    0  501 -0.00000000000E+00  0.00000000000E+00  0.24700770916E+02  0.24700770916E+02  0.00000000000E+00 0.  1.
          2   -1    0    0  502    0  0.00000000000E+00 -0.00000000000E+00 -0.18508702028E+04  0.18508702028E+04  0.00000000000E+00 0. -1.
          6    2    1    2  502    0  0.11190888586E+03  0.54012705765E+02 -0.10143499969E+04  0.10365111111E+04  0.17322931623E+03 0.  0.
         24    2    3    3    0    0  0.14561739448E+03  0.63035993777E+02 -0.80454550130E+03  0.82377253991E+03  0.78292858879E+02 0.  0.
         -6    2    1    2    0  501 -0.11190888586E+03 -0.54012705765E+02 -0.81181943499E+03  0.83905986267E+03  0.17184204084E+03 0.  0.
        -24    2    5    5    0    0 -0.11341242802E+03 -0.22740630031E+02 -0.37029168138E+03  0.39639853551E+03  0.81463823687E+02 0.  0.
          5    1    3    3  502    0 -0.33708508618E+02 -0.90232880117E+01 -0.20980449560E+03  0.21273857114E+03  0.47000000000E+01 0. -1.
        -13    1    4    4    0    0 -0.87863460306E+01  0.14559164836E+01 -0.75081913821E+02  0.75608288913E+02  0.00000000000E+00 0.  1.
         14    1    4    4    0    0  0.15440374051E+03  0.61580077293E+02 -0.72946358748E+03  0.74816425099E+03  0.00000000000E+00 0. -1.
         -5    1    5    5    0  501  0.15035421608E+01 -0.31272075734E+02 -0.44152775360E+03  0.44266132716E+03  0.47000000000E+01 0.  1.
         13    1    6    6    0    0  0.23874860942E+01  0.80904463131E+01 -0.10452099964E+03  0.10486083529E+03  0.00000000000E+00 0. -1.
        -14    1    6    6    0    0 -0.11579991411E+03 -0.30831076344E+02 -0.26577068174E+03  0.29153770022E+03  0.00000000000E+00 0.  1.
<mgrwt>
<rscale>  2 0.21262497E+03</rscale>
<asrwt>0</asrwt>
<pdfrwt beam="2">  1        2 0.28474913E+00 0.21262497E+03</pdfrwt>
<pdfrwt beam="1">  1       -2 0.38001204E-02 0.21262497E+03</pdfrwt>
<totfact> 0.26456803E+03</totfact>
</mgrwt>
</event>
<event>
12    1  0.4154313E-002  0.2252405E+03  0.7546771E-02  0.1130035E+00
          2   -1    0    0  502    0  0.00000000000E+00  0.00000000000E+00  0.61654125652E+02  0.61654125652E+02  0.00000000000E+00 0.  1.
         -2   -1    0    0    0  501 -0.00000000000E+00 -0.00000000000E+00 -0.99182907677E+03  0.99182907677E+03  0.00000000000E+00 0. -1.
          6    2    1    2  502    0  0.12669683576E+03  0.68207544587E+02 -0.24713968456E+03  0.33416862971E+03  0.17287652261E+03 0.  0.
         24    2    3    3    0    0  0.62076480637E+01  0.57665883515E+02 -0.13610836008E+03  0.16991633602E+03  0.83559479083E+02 0.  0.
         -6    2    1    2    0  501 -0.12669683576E+03 -0.68207544587E+02 -0.68303526656E+03  0.71931457271E+03  0.17370066730E+03 0.  0.
        -24    2    5    5    0    0 -0.16034321758E+03 -0.65961894503E+02 -0.57247707550E+03  0.60363257081E+03  0.81125579295E+02 0.  0.
          5    1    3    3  502    0  0.12048918770E+03  0.10541661072E+02 -0.11103132448E+03  0.16425229370E+03  0.47000000000E+01 0. -1.
        -13    1    4    4    0    0  0.40315692639E+02  0.12856679975E+02 -0.38402244896E+02  0.57143518495E+02  0.00000000000E+00 0.  1.
         14    1    4    4    0    0 -0.34108044575E+02  0.44809203540E+02 -0.97706115189E+02  0.11277281752E+03  0.00000000000E+00 0. -1.
         -5    1    5    5    0  501  0.33646381822E+02 -0.22456500840E+01 -0.11055819106E+03  0.11568200190E+03  0.47000000000E+01 0.  1.
         11    1    6    6    0    0 -0.92449499773E+02 -0.18682196309E+02 -0.41677936759E+03  0.42731835406E+03  0.00000000000E+00 0. -1.
        -12    1    6    6    0    0 -0.67893717807E+02 -0.47279698194E+02 -0.15569770791E+03  0.17631421675E+03  0.00000000000E+00 0.  1.
<mgrwt>
<rscale>  2 0.22524046E+03</rscale>
<asrwt>0</asrwt>
<pdfrwt beam="1">  1        2 0.94852499E-02 0.22524046E+03</pdfrwt>
<pdfrwt beam="2">  1       -2 0.15258909E+00 0.22524046E+03</pdfrwt>
<totfact> 0.20780482E+02</totfact>
</mgrwt>
</event>
<event>
12    1  0.4154313E-002  0.2231187E+03  0.7546771E-02  0.1131579E+00
          2   -1    0    0  502    0  0.00000000000E+00  0.00000000000E+00  0.34072415863E+04  0.34072415863E+04  0.00000000000E+00 0.  1.
         -2   -1    0    0    0  501 -0.00000000000E+00 -0.00000000000E+00 -0.15815303658E+02  0.15815303658E+02  0.00000000000E+00 0. -1.
          6    2    1    2  502    0 -0.91680259203E+02 -0.10532377933E+03  0.21752737412E+04  0.21867924728E+04  0.17534851423E+03 0.  0.
         24    2    3    3    0    0 -0.19350637905E+02 -0.10661717873E+02  0.13975523408E+04  0.13999855419E+04  0.79491210627E+02 0.  0.
         -6    2    1    2    0  501  0.91680259203E+02  0.10532377933E+03  0.12161525415E+04  0.12362644172E+04  0.17269724000E+03 0.  0.
        -24    2    5    5    0    0 -0.30116706480E+01  0.10066355724E+03  0.57430821256E+03  0.58743893080E+03  0.71500716736E+02 0.  0.
          5    1    3    3  502    0 -0.72329621298E+02 -0.94662061455E+02  0.77772140036E+03  0.78680693094E+03  0.47000000000E+01 0. -1.
        -13    1    4    4    0    0 -0.10956954004E+01 -0.13197912533E+02  0.13269872322E+04  0.13270533146E+04  0.00000000000E+00 0.  1.
         14    1    4    4    0    0 -0.18254942505E+02  0.25361946600E+01  0.70565108653E+02  0.72932227228E+02  0.00000000000E+00 0. -1.
         -5    1    5    5    0  501  0.94691929851E+02  0.46602220871E+01  0.64184432892E+03  0.64882548641E+03  0.47000000000E+01 0.  1.
         13    1    6    6    0    0 -0.41636782627E+01  0.28488650238E+02  0.46317070887E+02  0.54536322434E+02  0.00000000000E+00 0. -1.
        -14    1    6    6    0    0  0.11520076148E+01  0.72174907003E+02  0.52799114167E+03  0.53290260837E+03  0.00000000000E+00 0.  1.
<mgrwt>
<rscale>  2 0.22311869E+03</rscale>
<asrwt>0</asrwt>
<pdfrwt beam="1">  1        2 0.52419043E+00 0.22311869E+03</pdfrwt>
<pdfrwt beam="2">  1       -2 0.24331264E-02 0.22311869E+03</pdfrwt>
<totfact> 0.68320364E+02</totfact>
</mgrwt>
</event>
<event>
12    1  0.4154313E-002  0.2145609E+03  0.7546771E-02  0.1138004E+00
          2   -1    0    0  502    0  0.00000000000E+00  0.00000000000E+00  0.61991179717E+02  0.61991179717E+02  0.00000000000E+00 0.  1.
         -2   -1    0    0    0  501 -0.00000000000E+00 -0.00000000000E+00 -0.89736109628E+03  0.89736109628E+03  0.00000000000E+00 0. -1.
          6    2    1    2  502    0  0.38602109217E+02  0.12053494515E+03 -0.22056769560E+03  0.30860204304E+03  0.17483225328E+03 0.  0.
         24    2    3    3    0    0  0.25314399919E+02  0.13447452043E+02 -0.30778755624E+02  0.90230281735E+02  0.79828059820E+02 0.  0.
         -6    2    1    2    0  501 -0.38602109217E+02 -0.12053494515E+03 -0.61480222096E+03  0.65075023296E+03  0.17168371780E+03 0.  0.
        -24    2    5    5    0    0 -0.47082724410E+02 -0.19601111404E+02 -0.16980354943E+03  0.19434529511E+03  0.79598127020E+02 0.  0.
          5    1    3    3  502    0  0.13287709299E+02  0.10708749311E+03 -0.18978893998E+03  0.21837176130E+03  0.47000000000E+01 0. -1.
        -11    1    4    4    0    0  0.29835407817E+02 -0.12400126680E+02 -0.48708019620E+02  0.58449857798E+02  0.00000000000E+00 0.  1.
         12    1    4    4    0    0 -0.45210078980E+01  0.25847578723E+02  0.17929263996E+02  0.31780423938E+02  0.00000000000E+00 0. -1.
         -5    1    5    5    0  501  0.84806151926E+01 -0.10093383375E+03 -0.44499867154E+03  0.45640493785E+03  0.47000000000E+01 0.  1.
         11    1    6    6    0    0  0.99618515634E+01 -0.10063832369E+02 -0.11087798606E+03  0.11177856235E+03  0.00000000000E+00 0. -1.
        -12    1    6    6    0    0 -0.57044575973E+02 -0.95372790349E+01 -0.58925563365E+02  0.82566732752E+02  0.00000000000E+00 0.  1.
<mgrwt>
<rscale>  2 0.21456088E+03</rscale>
<asrwt>0</asrwt>
<pdfrwt beam="1">  1        2 0.95371053E-02 0.21456088E+03</pdfrwt>
<pdfrwt beam="2">  1       -2 0.13805554E+00 0.21456088E+03</pdfrwt>
<totfact> 0.26653331E+02</totfact>
</mgrwt>
</event>
<event>
12    1  0.4154313E-002  0.2145462E+03  0.7546771E-02  0.1138016E+00
          1   -1    0    0  502    0  0.00000000000E+00  0.00000000000E+00  0.10504244800E+04  0.10504244800E+04  0.00000000000E+00 0. -1.
         -1   -1    0    0    0  501 -0.00000000000E+00 -0.00000000000E+00 -0.44752616876E+02  0.44752616876E+02  0.00000000000E+00 0.  1.
          6    2    1    2  502    0  0.12128530379E+03 -0.32997202120E+02  0.58289844873E+03  0.62128551278E+03  0.17443092213E+03 0.  0.
         24    2    3    3    0    0 -0.53463981937E+01 -0.58644249960E+01  0.15420954227E+03  0.17343727502E+03  0.78974236215E+02 0.  0.
         -6    2    1    2    0  501 -0.12128530379E+03  0.32997202120E+02  0.42277341438E+03  0.47389158408E+03  0.17331166519E+03 0.  0.
        -24    2    5    5    0    0 -0.70347117581E+01  0.53138534890E+02  0.18092128066E+03  0.20561296836E+03  0.81676140357E+02 0.  0.
          5    1    3    3  502    0  0.12663170199E+03 -0.27132777124E+02  0.42868890646E+03  0.44784823776E+03  0.47000000000E+01 0. -1.
        -13    1    4    4    0    0 -0.23249227557E+02 -0.36076060116E+02  0.68790519690E+02  0.81081097024E+02  0.00000000000E+00 0.  1.
         14    1    4    4    0    0  0.17902829363E+02  0.30211635120E+02  0.85419022582E+02  0.92356178000E+02  0.00000000000E+00 0. -1.
         -5    1    5    5    0  501 -0.11425059203E+03 -0.20141332771E+02  0.24185213371E+03  0.26827861571E+03  0.47000000000E+01 0.  1.
         11    1    6    6    0    0  0.27884823168E+02  0.16207295104E+02  0.22731001574E+02  0.39458056342E+02  0.00000000000E+00 0. -1.
        -12    1    6    6    0    0 -0.34919534926E+02  0.36931239787E+02  0.15819027909E+03  0.16615491202E+03  0.00000000000E+00 0.  1.
<mgrwt>
<rscale>  2 0.21454619E+03</rscale>
<asrwt>0</asrwt>
<pdfrwt beam="1">  1        1 0.16160375E+00 0.21454619E+03</pdfrwt>
<pdfrwt beam="2">  1       -1 0.68850188E-02 0.21454619E+03</pdfrwt>
<totfact> 0.15889031E+03</totfact>
</mgrwt>
</event>
<event>
12    1  0.4154313E-002  0.1864481E+03  0.7546771E-02  0.1161704E+00
         -3   -1    0    0    0  501 -0.00000000000E+00  0.00000000000E+00  0.97616515676E+03  0.97616515676E+03  0.00000000000E+00 0.  1.
          3   -1    0    0  502    0  0.00000000000E+00 -0.00000000000E+00 -0.73433702784E+02  0.73433702784E+02  0.00000000000E+00 0. -1.
          6    2    1    2  502    0  0.47438964422E+01  0.68838608203E+02  0.82747671268E+03  0.84812485541E+03  0.17273332567E+03 0.  0.
         24    2    3    3    0    0 -0.46883339941E+01  0.10101757063E+02  0.17500386971E+03  0.19292878898E+03  0.80443379038E+02 0.  0.
         -6    2    1    2    0  501 -0.47438964422E+01 -0.68838608203E+02  0.75254741293E+02  0.20147400413E+03  0.17368718929E+03 0.  0.
        -24    2    5    5    0    0  0.17622793657E+02 -0.10884590192E+03  0.36090377871E+02  0.14100260809E+03  0.80132558256E+02 0.  0.
          5    1    3    3  502    0  0.94322304364E+01  0.58736851140E+02  0.65247284297E+03  0.65519606643E+03  0.47000000000E+01 0. -1.
        -13    1    4    4    0    0  0.27985609395E+02  0.25604872447E+02  0.12871081411E+03  0.13418374527E+03  0.00000000000E+00 0.  1.
         14    1    4    4    0    0 -0.32673943389E+02 -0.15503115384E+02  0.46293055604E+02  0.58745043709E+02  0.00000000000E+00 0. -1.
         -5    1    5    5    0  501 -0.22366690099E+02  0.40007293720E+02  0.39164363422E+02  0.60471396041E+02  0.47000000000E+01 0. -1.
         11    1    6    6    0    0 -0.31272949230E+02 -0.31772306424E+02  0.17258272485E+02  0.47805070632E+02  0.00000000000E+00 0. -1.
        -12    1    6    6    0    0  0.48895742886E+02 -0.77073595500E+02  0.18832105386E+02  0.93197537462E+02  0.00000000000E+00 0.  1.
<mgrwt>
<rscale>  2 0.18644808E+03</rscale>
<asrwt>0</asrwt>
<pdfrwt beam="2">  1        3 0.11297493E-01 0.18644808E+03</pdfrwt>
<pdfrwt beam="1">  1       -3 0.15017925E+00 0.18644808E+03</pdfrwt>
<totfact> 0.49910819E+01</totfact>
</mgrwt>
</event>
<event>
12    1  0.4154313E-002  0.1949279E+03  0.7546771E-02  0.1154090E+00
          1   -1    0    0  502    0  0.00000000000E+00  0.00000000000E+00  0.17296753740E+04  0.17296753740E+04  0.00000000000E+00 0. -1.
         -1   -1    0    0    0  501 -0.00000000000E+00 -0.00000000000E+00 -0.22002523085E+02  0.22002523085E+02  0.00000000000E+00 0.  1.
          6    2    1    2  502    0  0.79667880070E+02  0.38916775502E+02  0.89479057207E+03  0.91610944120E+03  0.17534210521E+03 0.  0.
         24    2    3    3    0    0 -0.23956624735E+02  0.44284397242E+02  0.37263072534E+03  0.38371875299E+03  0.76494419525E+02 0.  0.
         -6    2    1    2    0  501 -0.79667880070E+02 -0.38916775502E+02  0.81288227882E+03  0.83556845586E+03  0.17185912451E+03 0.  0.
        -24    2    5    5    0    0 -0.76970250166E+02 -0.89231456517E+02  0.58491030914E+03  0.60204725063E+03  0.80337724690E+02 0.  0.
          5    1    3    3  502    0  0.10362450480E+03 -0.53676217399E+01  0.52215984673E+03  0.53239068822E+03  0.47000000000E+01 0. -1.
        -13    1    4    4    0    0 -0.16786768803E+02  0.32350894405E+02  0.56211100084E+02  0.66993012683E+02  0.00000000000E+00 0.  1.
         14    1    4    4    0    0 -0.71698559316E+01  0.11933502837E+02  0.31641962525E+03  0.31672574030E+03  0.00000000000E+00 0. -1.
         -5    1    5    5    0  501 -0.26976299038E+01  0.50314681015E+02  0.22797196968E+03  0.23352120523E+03  0.47000000000E+01 0.  1.
         13    1    6    6    0    0 -0.48471193232E+02 -0.86661509862E+02  0.53809122699E+03  0.54717624439E+03  0.00000000000E+00 0. -1.
        -14    1    6    6    0    0 -0.28499056934E+02 -0.25699466555E+01  0.46819082154E+02  0.54871006239E+02  0.00000000000E+00 0.  1.
<mgrwt>
<rscale>  2 0.19492789E+03</rscale>
<asrwt>0</asrwt>
<pdfrwt beam="1">  1        1 0.26610380E+00 0.19492789E+03</pdfrwt>
<pdfrwt beam="2">  1       -1 0.33850049E-02 0.19492789E+03</pdfrwt>
<totfact> 0.15988992E+03</totfact>
</mgrwt>
</event>
<event>
12    1  0.4154313E-002  0.1900937E+03  0.7546771E-02  0.1158377E+00
         -2   -1    0    0    0  501 -0.00000000000E+00  0.00000000000E+00  0.77214002667E+02  0.77214002667E+02  0.00000000000E+00 0.  1.
          2   -1    0    0  502    0  0.00000000000E+00 -0.00000000000E+00 -0.47460798638E+03  0.47460798638E+03  0.00000000000E+00 0. -1.
          6    2    1    2  502    0  0.54405601234E+02  0.55913420050E+02 -0.23102119015E+03  0.29902408116E+03  0.17308475042E+03 0.  0.
         24    2    3    3    0    0  0.83778686765E+02  0.30687680890E+02 -0.23056222067E+03  0.26001873892E+03  0.80561807796E+02 0.  0.
         -6    2    1    2    0  501 -0.54405601234E+02 -0.55913420050E+02 -0.16637279357E+03  0.25279790789E+03  0.17361047148E+03 0.  0.
        -24    2    5    5    0    0 -0.27537333475E+02 -0.34919591467E+01 -0.17228185120E+03  0.19341002750E+03  0.83402062134E+02 0.  0.
          5    1    3    3  502    0 -0.29373085532E+02  0.25225739160E+02 -0.45896947763E+00  0.39005342234E+02  0.47000000000E+01 0. -1.
        -13    1    4    4    0    0  0.16454768191E+02  0.31795658031E+02 -0.24884498914E+02  0.43600017799E+02  0.00000000000E+00 0.  1.
         14    1    4    4    0    0  0.67323918575E+02 -0.11079771413E+01 -0.20567772176E+03  0.21641872112E+03  0.00000000000E+00 0. -1.
         -5    1    5    5    0  501 -0.26868267759E+02 -0.52421460904E+02  0.59090576385E+01  0.59387880395E+02  0.47000000000E+01 0.  1.
         11    1    6    6    0    0  0.26408181764E+02  0.15189232861E+02 -0.68328803886E+02  0.74812634625E+02  0.00000000000E+00 0. -1.
        -12    1    6    6    0    0 -0.53945515239E+02 -0.18681192008E+02 -0.10395304732E+03  0.11859739287E+03  0.00000000000E+00 0.  1.
<mgrwt>
<rscale>  2 0.19009374E+03</rscale>
<asrwt>0</asrwt>
<pdfrwt beam="2">  1        2 0.73016615E-01 0.19009374E+03</pdfrwt>
<pdfrwt beam="1">  1       -2 0.11879077E-01 0.19009374E+03</pdfrwt>
<totfact> 0.32666740E+03</totfact>
</mgrwt>
</event>
<event>
12    1  0.4154313E-002  0.2203294E+03  0.7546771E-02  0.1133638E+00
          2   -1    0    0  502    0  0.00000000000E+00  0.00000000000E+00  0.24320787048E+04  0.24320787048E+04  0.00000000000E+00 0.  1.
         -2   -1    0    0    0  501 -0.00000000000E+00 -0.00000000000E+00 -0.24363493517E+02  0.24363493517E+02  0.00000000000E+00 0. -1.
          6    2    1    2  502    0  0.33730463294E+02  0.12659480047E+03  0.17258854540E+04  0.17398891210E+04  0.17711455413E+03 0.  0.
         24    2    3    3    0    0 -0.25890513801E+02  0.32648851700E+02  0.44008648170E+03  0.44927624742E+03  0.80229476512E+02 0.  0.
         -6    2    1    2    0  501 -0.33730463294E+02 -0.12659480047E+03  0.68182975728E+03  0.71655307735E+03  0.17717930771E+03 0.  0.
        -24    2    5    5    0    0  0.20551409901E+02 -0.11432990249E+03  0.30092067295E+03  0.33157155830E+03  0.76764313408E+02 0.  0.
          5    1    3    3  502    0  0.59620977095E+02  0.93945948766E+02  0.12857989723E+04  0.12906128736E+04  0.47000000000E+01 0. -1.
        -13    1    4    4    0    0 -0.11523979540E+02 -0.19317129099E+02  0.26798159916E+03  0.26892395035E+03  0.00000000000E+00 0.  1.
         14    1    4    4    0    0 -0.14366534262E+02  0.51965980799E+02  0.17210488253E+03  0.18035229707E+03  0.00000000000E+00 0. -1.
         -5    1    5    5    0  501 -0.54281873194E+02 -0.12264897978E+02  0.38090908434E+03  0.38498151905E+03  0.47000000000E+01 0.  1.
         11    1    6    6    0    0  0.22185680276E+02 -0.14492256151E+01  0.25038215342E+02  0.33484576922E+02  0.00000000000E+00 0. -1.
        -12    1    6    6    0    0 -0.16342703746E+01 -0.11288067687E+03  0.27588245760E+03  0.29808698137E+03  0.00000000000E+00 0.  1.
<mgrwt>
<rscale>  2 0.22032935E+03</rscale>
<asrwt>0</asrwt>
<pdfrwt beam="1">  1        2 0.37416576E+00 0.22032935E+03</pdfrwt>
<pdfrwt beam="2">  1       -2 0.37482317E-02 0.22032935E+03</pdfrwt>
<totfact> 0.13331866E+03</totfact>
</mgrwt>
</event>
<event>
12    1  0.4154313E-002  0.3012992E+03  0.7546771E-02  0.1084593E+00
          2   -1    0    0  502    0  0.00000000000E+00  0.00000000000E+00  0.47685285965E+03  0.47685285965E+03  0.00000000000E+00 0. -1.
         -2   -1    0    0    0  501 -0.00000000000E+00 -0.00000000000E+00 -0.25418982706E+03  0.25418982706E+03  0.00000000000E+00 0.  1.
          6    2    1    2  502    0 -0.22201404014E+03 -0.10923556977E+03 -0.71624462713E+02  0.31035036891E+03  0.17310298697E+03 0.  0.
         24    2    3    3    0    0 -0.21616822402E+03 -0.41506140211E+02 -0.57614614484E+02  0.24078158969E+03  0.78770993286E+02 0.  0.
         -6    2    1    2    0  501  0.22201404014E+03  0.10923556977E+03  0.29428749530E+03  0.42069231781E+03  0.17074616438E+03 0.  0.
        -24    2    5    5    0    0  0.22175870897E+03  0.58676515391E+02  0.27284922045E+03  0.36557450942E+03  0.81105896053E+02 0.  0.
          5    1    3    3  502    0 -0.58458161285E+01 -0.67729429555E+02 -0.14009848230E+02  0.69568779215E+02  0.47000000000E+01 0. -1.
        -11    1    4    4    0    0 -0.47232626067E+02  0.16683292291E+02 -0.34023526407E+02  0.60554550250E+02  0.00000000000E+00 0.  1.
         12    1    4    4    0    0 -0.16893559795E+03 -0.58189432502E+02 -0.23591088076E+02  0.18022703944E+03  0.00000000000E+00 0. -1.
         -5    1    5    5    0  501  0.25533117867E+00  0.50559054375E+02  0.21438274849E+02  0.55117808391E+02  0.47000000000E+01 0.  1.
         13    1    6    6    0    0  0.21262000991E+03  0.42095053021E+02  0.21742766926E+03  0.30700823028E+03  0.00000000000E+00 0. -1.
        -14    1    6    6    0    0  0.91386990528E+01  0.16581462370E+02  0.55421551192E+02  0.58566279131E+02  0.00000000000E+00 0.  1.
<mgrwt>
<rscale>  2 0.30129917E+03</rscale>
<asrwt>0</asrwt>
<pdfrwt beam="1">  1        2 0.73361979E-01 0.30129917E+03</pdfrwt>
<pdfrwt beam="2">  1       -2 0.39106127E-01 0.30129917E+03</pdfrwt>
<totfact> 0.41062043E+02</totfact>
</mgrwt>
</event>
<event>
12    1  0.4154313E-002  0.1944908E+03  0.7546771E-02  0.1154472E+00
          1   -1    0    0  502    0  0.00000000000E+00  0.00000000000E+00  0.45732718511E+03  0.45732718511E+03  0.00000000000E+00 0.  1.
         -1   -1    0    0    0  501 -0.00000000000E+00 -0.00000000000E+00 -0.93679543485E+02  0.93679543485E+02  0.00000000000E+00 0. -1.
          6    2    1    2  502    0  0.88052225396E+02 -0.31826302988E+02  0.27747760964E+03  0.33984643516E+03  0.17244033079E+03 0.  0.
         24    2    3    3    0    0  0.75953074139E+02  0.25439363656E+02  0.97710900945E+02  0.15073296237E+03  0.82200821692E+02 0.  0.
         -6    2    1    2    0  501 -0.88052225396E+02  0.31826302988E+02  0.86170031992E+02  0.21116029344E+03  0.16851494638E+03 0.  0.
        -24    2    5    5    0    0 -0.34255745033E+02  0.93522383428E+01 -0.18725878692E+02  0.91058724092E+02  0.81731953792E+02 0.  0.
          5    1    3    3  502    0  0.12099151257E+02 -0.57265666645E+02  0.17976670869E+03  0.18911347279E+03  0.47000000000E+01 0. -1.
        -13    1    4    4    0    0  0.81313412230E+02  0.23651135264E+02  0.10904673229E+03  0.13806678467E+03  0.00000000000E+00 0.  1.
         14    1    4    4    0    0 -0.53603380904E+01  0.17882283922E+01 -0.11335831342E+02  0.12666177696E+02  0.00000000000E+00 0. -1.
         -5    1    5    5    0  501 -0.53796480363E+02  0.22474064645E+02  0.10489591068E+03  0.12010156935E+03  0.47000000000E+01 0.  1.
         13    1    6    6    0    0 -0.43413310883E+02 -0.27298572803E+02 -0.12319859857E+02  0.52741886445E+02  0.00000000000E+00 0. -1.
        -14    1    6    6    0    0  0.91575658497E+01  0.36650811146E+02 -0.64060188352E+01  0.38316837647E+02  0.00000000000E+00 0.  1.
<mgrwt>
<rscale>  2 0.19449079E+03</rscale>
<asrwt>0</asrwt>
<pdfrwt beam="1">  1        1 0.70358027E-01 0.19449079E+03</pdfrwt>
<pdfrwt beam="2">  1       -1 0.14412238E-01 0.19449079E+03</pdfrwt>
<totfact> 0.17297611E+03</totfact>
</mgrwt>
</event>
<event>
12    1  0.4154313E-002  0.2015037E+03  0.7546771E-02  0.1148477E+00
         -1   -1    0    0    0  501 -0.00000000000E+00  0.00000000000E+00  0.39148433702E+03  0.39148433702E+03  0.00000000000E+00 0.  1.
          1   -1    0    0  502    0  0.00000000000E+00 -0.00000000000E+00 -0.10943261134E+03  0.10943261134E+03  0.00000000000E+00 0. -1.
          6    2    1    2  502    0 -0.96610203218E+02  0.36997492519E+02  0.83764558008E+02  0.21818717767E+03  0.17287798444E+03 0.  0.
         24    2    3    3    0    0  0.97605378567E+01 -0.25338427169E+01  0.67232814966E+01  0.80946843555E+02  0.80034370799E+02 0.  0.
         -6    2    1    2    0  501  0.96610203218E+02 -0.36997492519E+02  0.19828716768E+03  0.28272977069E+03  0.17296235587E+03 0.  0.
        -24    2    5    5    0    0  0.31206970577E+02  0.44507814077E+02  0.94121296271E+02  0.13510417464E+03  0.80246489434E+02 0.  0.
          5    1    3    3  502    0 -0.10637074107E+03  0.39531335236E+02  0.77041276511E+02  0.13724033412E+03  0.47000000000E+01 0. -1.
        -11    1    4    4    0    0 -0.32555504480E+01  0.31571804663E+02  0.24735836336E+02  0.40239769602E+02  0.00000000000E+00 0.  1.
         12    1    4    4    0    0  0.13016088305E+02 -0.34105647380E+02 -0.18012554839E+02  0.40707073953E+02  0.00000000000E+00 0. -1.
         -5    1    5    5    0  501  0.65403232641E+02 -0.81505306595E+02  0.10416587140E+03  0.14762559605E+03  0.47000000000E+01 0.  1.
         11    1    6    6    0    0  0.17014072565E+02 -0.22510903099E+02  0.31503215110E+02  0.42292694237E+02  0.00000000000E+00 0. -1.
        -12    1    6    6    0    0  0.14192898012E+02  0.67018717176E+02  0.62618081161E+02  0.92811480401E+02  0.00000000000E+00 0.  1.
<mgrwt>
<rscale>  2 0.20150367E+03</rscale>
<asrwt>0</asrwt>
<pdfrwt beam="2">  1        1 0.16835787E-01 0.20150367E+03</pdfrwt>
<pdfrwt beam="1">  1       -1 0.60228359E-01 0.20150367E+03</pdfrwt>
<totfact> 0.91977421E+02</totfact>
</mgrwt>
</event>
<event>
12    1  0.4154313E-002  0.1735196E+03  0.7546771E-02  0.1174226E+00
         -2   -1    0    0    0  501 -0.00000000000E+00  0.00000000000E+00  0.18856973883E+02  0.18856973883E+02  0.00000000000E+00 0.  1.
          2   -1    0    0  502    0  0.00000000000E+00 -0.00000000000E+00 -0.20408004472E+04  0.20408004472E+04  0.00000000000E+00 0. -1.
          6    2    1    2  502    0 -0.66174305289E+01  0.21442237669E+01 -0.14853121263E+04  0.14952618581E+04  0.17206836883E+03 0.  0.
         24    2    3    3    0    0  0.47704756240E+02  0.17399119958E+02 -0.54254552567E+03  0.55079663102E+03  0.80267105148E+02 0.  0.
         -6    2    1    2    0  501  0.66174305289E+01 -0.21442237669E+01 -0.53663134699E+03  0.56439556300E+03  0.17470192007E+03 0.  0.
        -24    2    5    5    0    0  0.23560891885E+02 -0.62137146316E+02 -0.41094741386E+03  0.42402187356E+03  0.80626495163E+02 0.  0.
          5    1    3    3  502    0 -0.54322186769E+02 -0.15254896191E+02 -0.94276660066E+03  0.94446522708E+03  0.47000000000E+01 0. -1.
        -11    1    4    4    0    0  0.29270406704E+02 -0.30157432731E+02 -0.30141995604E+03  0.30433569846E+03  0.00000000000E+00 0.  1.
         12    1    4    4    0    0  0.18434349536E+02  0.47556552689E+02 -0.24112556964E+03  0.24646093256E+03  0.00000000000E+00 0. -1.
         -5    1    5    5    0  501 -0.16943461356E+02  0.59992922549E+02 -0.12568393313E+03  0.14037368944E+03  0.47000000000E+01 0.  1.
         13    1    6    6    0    0 -0.25987123518E+02 -0.33969358536E+02 -0.11635469061E+03  0.12396637421E+03  0.00000000000E+00 0. -1.
        -14    1    6    6    0    0  0.49548015403E+02 -0.28167787780E+02 -0.29459272325E+03  0.30005549935E+03  0.00000000000E+00 0.  1.
<mgrwt>
<rscale>  2 0.17351965E+03</rscale>
<asrwt>0</asrwt>
<pdfrwt beam="2">  1        2 0.31396906E+00 0.17351965E+03</pdfrwt>
<pdfrwt beam="1">  1       -2 0.29010752E-02 0.17351965E+03</pdfrwt>
<totfact> 0.31533754E+03</totfact>
</mgrwt>
</event>
<event>
12    1  0.4154313E-002  0.1769720E+03  0.7546771E-02  0.1170766E+00
         -1   -1    0    0    0  501 -0.00000000000E+00  0.00000000000E+00  0.49281789135E+03  0.49281789135E+03  0.00000000000E+00 0.  1.
          1   -1    0    0  502    0  0.00000000000E+00 -0.00000000000E+00 -0.80797728795E+02  0.80797728795E+02  0.00000000000E+00 0. -1.
          6    2    1    2  502    0 -0.45019927468E+02 -0.10225027540E+02  0.75752996722E+02  0.19472661299E+03  0.17334529770E+03 0.  0.
         24    2    3    3    0    0 -0.88211439683E+02 -0.12260448171E+01  0.89584411446E+02  0.14825203444E+03  0.78552769945E+02 0.  0.
         -6    2    1    2    0  501  0.45019927468E+02  0.10225027540E+02  0.33626716583E+03  0.37888900716E+03  0.16837436821E+03 0.  0.
        -24    2    5    5    0    0  0.44742598412E+02 -0.53761959014E+02  0.16510070994E+03  0.19609279007E+03  0.79384441447E+02 0.  0.
          5    1    3    3  502    0  0.43191512215E+02 -0.89989827230E+01 -0.13831414724E+02  0.46474578543E+02  0.47000000000E+01 0. -1.
        -11    1    4    4    0    0 -0.80259992529E+02  0.27977039820E+02  0.50671791130E+02  0.98954593497E+02  0.00000000000E+00 0.  1.
         12    1    4    4    0    0 -0.79514471544E+01 -0.29203084637E+02  0.38912620316E+02  0.49297440948E+02  0.00000000000E+00 0. -1.
         -5    1    5    5    0  501  0.27732905614E+00  0.63986986554E+02  0.17116645589E+03  0.18279621709E+03  0.47000000000E+01 0.  1.
         11    1    6    6    0    0 -0.15860169041E+02 -0.20404340756E+02  0.12846832043E+02  0.28860408473E+02  0.00000000000E+00 0. -1.
        -12    1    6    6    0    0  0.60602767453E+02 -0.33357618258E+02  0.15225387790E+03  0.16723238160E+03  0.00000000000E+00 0.  1.
<mgrwt>
<rscale>  2 0.17697201E+03</rscale>
<asrwt>0</asrwt>
<pdfrwt beam="2">  1        1 0.12430420E-01 0.17697201E+03</pdfrwt>
<pdfrwt beam="1">  1       -1 0.75818135E-01 0.17697201E+03</pdfrwt>
<totfact> 0.86729368E+02</totfact>
</mgrwt>
</event>
<event>
12    1  0.4154313E-002  0.2418327E+03  0.7546771E-02  0.1118578E+00
          1   -1    0    0  502    0  0.00000000000E+00  0.00000000000E+00  0.12292321080E+04  0.12292321080E+04  0.00000000000E+00 0. -1.
         -1   -1    0    0    0  501 -0.00000000000E+00 -0.00000000000E+00 -0.50016782648E+02  0.50016782648E+02  0.00000000000E+00 0.  1.
          6    2    1    2  502    0  0.10344024300E+03 -0.13361422639E+03  0.72913377936E+03  0.76795794463E+03  0.17196130710E+03 0.  0.
         24    2    3    3    0    0  0.19988355483E+02 -0.59694487090E+01  0.33118138992E+03  0.34175892883E+03  0.81748906627E+02 0.  0.
         -6    2    1    2    0  501 -0.10344024300E+03  0.13361422639E+03  0.45008154603E+03  0.51129094606E+03  0.17404708582E+03 0.  0.
        -24    2    5    5    0    0 -0.88150754319E+02  0.29897073223E+02  0.32505196698E+03  0.34805644615E+03  0.82584005682E+02 0.  0.
          5    1    3    3  502    0  0.83451887521E+02 -0.12764477768E+03  0.39795238944E+03  0.42619901579E+03  0.47000000000E+01 0. -1.
        -11    1    4    4    0    0  0.13251884394E+02  0.21942165161E+02  0.31079420931E+02  0.40286492244E+02  0.00000000000E+00 0.  1.
         12    1    4    4    0    0  0.67364710890E+01 -0.27911613870E+02  0.30010196899E+03  0.30147243659E+03  0.00000000000E+00 0. -1.
         -5    1    5    5    0  501 -0.15289488686E+02  0.10371715316E+03  0.12502957905E+03  0.16323449991E+03  0.47000000000E+01 0.  1.
         11    1    6    6    0    0 -0.41883292890E+02 -0.21242641719E+02  0.73497326578E+02  0.87219935018E+02  0.00000000000E+00 0. -1.
        -12    1    6    6    0    0 -0.46267461429E+02  0.51139714941E+02  0.25155464040E+03  0.26083651113E+03  0.00000000000E+00 0.  1.
<mgrwt>
<rscale>  2 0.24183274E+03</rscale>
<asrwt>0</asrwt>
<pdfrwt beam="1">  1        1 0.18911261E+00 0.24183274E+03</pdfrwt>
<pdfrwt beam="2">  1       -1 0.76948906E-02 0.24183274E+03</pdfrwt>
<totfact> 0.10010041E+03</totfact>
</mgrwt>
</event>
<event>
12    1  0.4154313E-002  0.6713258E+03  0.7546771E-02  0.9767566E-01
         -2   -1    0    0    0  501 -0.00000000000E+00  0.00000000000E+00  0.20765107737E+03  0.20765107737E+03  0.00000000000E+00 0. -1.
          2   -1    0    0  502    0  0.00000000000E+00 -0.00000000000E+00 -0.25582366812E+04  0.25582366812E+04  0.00000000000E+00 0.  1.
          6    2    1    2  502    0 -0.84764714760E+02  0.64310011222E+03 -0.63697644809E+03  0.92551386909E+03  0.17341890109E+03 0.  0.
         24    2    3    3    0    0 -0.10712901933E+02  0.42402215470E+03 -0.48173649391E+03  0.64694546488E+03  0.80986610099E+02 0.  0.
         -6    2    1    2    0  501  0.84764714760E+02 -0.64310011222E+03 -0.17136091558E+04  0.18403738895E+04  0.17250189352E+03 0.  0.
        -24    2    5    5    0    0  0.97585868286E+02 -0.42518357064E+03 -0.99213707141E+03  0.10865860815E+04  0.77648396718E+02 0.  0.
          5    1    3    3  502    0 -0.74051812827E+02  0.21907795752E+03 -0.15523995418E+03  0.27856840422E+03  0.47000000000E+01 0. -1.
        -11    1    4    4    0    0 -0.35793368340E+02  0.36292015127E+03 -0.42361323351E+03  0.55896365984E+03  0.00000000000E+00 0.  1.
         12    1    4    4    0    0  0.25080466407E+02  0.61102003431E+02 -0.58123260405E+02  0.87981805043E+02  0.00000000000E+00 0. -1.
         -5    1    5    5    0  501 -0.12821153527E+02 -0.21791654158E+03 -0.72147208436E+03  0.75378780806E+03  0.47000000000E+01 0.  1.
         11    1    6    6    0    0  0.74079557735E+02 -0.22175219872E+03 -0.45105464026E+03  0.50804734722E+03  0.00000000000E+00 0. -1.
        -12    1    6    6    0    0  0.23506310552E+02 -0.20343137192E+03 -0.54108243115E+03  0.57853873424E+03  0.00000000000E+00 0.  1.
<mgrwt>
<rscale>  2 0.67132577E+03</rscale>
<asrwt>0</asrwt>
<pdfrwt beam="2">  1        2 0.39357490E+00 0.67132577E+03</pdfrwt>
<pdfrwt beam="1">  1       -2 0.31946317E-01 0.67132577E+03</pdfrwt>
<totfact> 0.31022573E+01</totfact>
</mgrwt>
</event>
<event>
12    1  0.4154313E-002  0.2336933E+03  0.7546771E-02  0.1124067E+00
         -3   -1    0    0    0  501 -0.00000000000E+00  0.00000000000E+00  0.61629069126E+03  0.61629069126E+03  0.00000000000E+00 0. -1.
          3   -1    0    0  502    0  0.00000000000E+00 -0.00000000000E+00 -0.93779132916E+02  0.93779132916E+02  0.00000000000E+00 0.  1.
          6    2    1    2  502    0  0.10508480284E+03 -0.11531921024E+03  0.17722723250E+03  0.29275282336E+03  0.17307047007E+03 0.  0.
         24    2    3    3    0    0 -0.10355981243E+02 -0.21267032243E+02  0.62276877862E+02  0.10458252590E+03  0.80619862317E+02 0.  0.
         -6    2    1    2    0  501 -0.10508480284E+03  0.11531921024E+03  0.34528432585E+03  0.41731700081E+03  0.17490247983E+03 0.  0.
        -24    2    5    5    0    0 -0.13657789324E+02  0.47567993121E+02  0.25688379652E+03  0.27314394575E+03  0.78543497525E+02 0.  0.
          5    1    3    3  502    0  0.11544078408E+03 -0.94052177998E+02  0.11495035463E+03  0.18817029746E+03  0.47000000000E+01 0. -1.
        -13    1    4    4    0    0 -0.40883396548E+02 -0.14140222710E+02  0.11255095791E+02  0.44699834372E+02  0.00000000000E+00 0.  1.
         14    1    4    4    0    0  0.30527415305E+02 -0.71268095325E+01  0.51021782071E+02  0.59882691531E+02  0.00000000000E+00 0. -1.
         -5    1    5    5    0  501 -0.91427013518E+02  0.67751217119E+02  0.88400529324E+02  0.14417305506E+03  0.47000000000E+01 0.  1.
         11    1    6    6    0    0  0.29097834368E+02  0.26513442724E+02  0.70317031855E+02  0.80586174862E+02  0.00000000000E+00 0. -1.
        -12    1    6    6    0    0 -0.42755623691E+02  0.21054550398E+02  0.18656676467E+03  0.19255777089E+03  0.00000000000E+00 0.  1.
<mgrwt>
<rscale>  2 0.23369326E+03</rscale>
<asrwt>0</asrwt>
<pdfrwt beam="2">  1        3 0.14427559E-01 0.23369326E+03</pdfrwt>
<pdfrwt beam="1">  1       -3 0.94813950E-01 0.23369326E+03</pdfrwt>
<totfact> 0.10036443E+02</totfact>
</mgrwt>
</event>
<event>
12    1  0.4154313E-002  0.1858319E+03  0.7546771E-02  0.1162275E+00
         -3   -1    0    0    0  501 -0.00000000000E+00  0.00000000000E+00  0.81225646520E+03  0.81225646520E+03  0.00000000000E+00 0. -1.
          3   -1    0    0  502    0  0.00000000000E+00 -0.00000000000E+00 -0.47376499753E+02  0.47376499753E+02  0.00000000000E+00 0.  1.
          6    2    1    2  502    0 -0.69859710578E+02 -0.31370091499E+01  0.24624445236E+03  0.30897724295E+03  0.17303290541E+03 0.  0.
         24    2    3    3    0    0 -0.11092312855E+02 -0.43668812021E+02  0.62319019735E+02  0.11162707486E+03  0.80913157598E+02 0.  0.
         -6    2    1    2    0  501  0.69859710578E+02  0.31370091499E+01  0.51863551308E+03  0.55065572200E+03  0.17131464839E+03 0.  0.
        -24    2    5    5    0    0  0.31045675825E+02 -0.44397072788E+02  0.18566089026E+03  0.21204058991E+03  0.86927047209E+02 0.  0.
          5    1    3    3  502    0 -0.58767397724E+02  0.40531802871E+02  0.18392543263E+03  0.19735016809E+03  0.47000000000E+01 0. -1.
        -11    1    4    4    0    0 -0.20374980648E+00 -0.57438888346E+02  0.71581931246E+02  0.91778212498E+02  0.00000000000E+00 0.  1.
         12    1    4    4    0    0 -0.10888563048E+02  0.13770076325E+02 -0.92629115111E+01  0.19848862358E+02  0.00000000000E+00 0. -1.
         -5    1    5    5    0  501  0.38814034753E+02  0.47534081938E+02  0.33297462282E+03  0.33861513209E+03  0.47000000000E+01 0.  1.
         11    1    6    6    0    0  0.14637564091E+02 -0.67178620762E+02  0.15940685488E+03  0.17360233510E+03  0.00000000000E+00 0. -1.
        -12    1    6    6    0    0  0.16408111734E+02  0.22781547974E+02  0.26254035381E+02  0.38438254806E+02  0.00000000000E+00 0.  1.
<mgrwt>
<rscale>  2 0.18583191E+03</rscale>
<asrwt>0</asrwt>
<pdfrwt beam="2">  1        3 0.72886929E-02 0.18583191E+03</pdfrwt>
<pdfrwt beam="1">  1       -3 0.12496252E+00 0.18583191E+03</pdfrwt>
<totfact> 0.16162181E+02</totfact>
</mgrwt>
</event>
<event>
12    1  0.4154313E-002  0.1701521E+03  0.7546771E-02  0.1177689E+00
         -2   -1    0    0    0  501 -0.00000000000E+00  0.00000000000E+00  0.18797948159E+02  0.18797948159E+02  0.00000000000E+00 0. -1.
          2   -1    0    0  502    0  0.00000000000E+00 -0.00000000000E+00 -0.21159006332E+04  0.21159006332E+04  0.00000000000E+00 0.  1.
          6    2    1    2  502    0  0.17889951426E+01 -0.15632255435E+02 -0.49665138885E+03  0.52534097356E+03  0.17050797209E+03 0.  0.
         24    2    3    3    0    0 -0.98495403289E+01 -0.38364109076E+02 -0.49037420475E+03  0.49862607663E+03  0.81192889460E+02 0.  0.
         -6    2    1    2    0  501 -0.17889951426E+01  0.15632255435E+02 -0.16004512962E+04  0.16093576078E+04  0.16834485551E+03 0.  0.
        -24    2    5    5    0    0  0.42439915577E+02 -0.17955357042E+02 -0.13310538543E+04  0.13342550888E+04  0.80054591904E+02 0.  0.
          5    1    3    3  502    0  0.11638535472E+02  0.22731853641E+02 -0.62771840938E+01  0.26714896931E+02  0.47000000000E+01 0. -1.
        -13    1    4    4    0    0  0.28293198401E+02 -0.32866487116E+02 -0.36211313547E+03  0.36470074572E+03  0.00000000000E+00 0.  1.
         14    1    4    4    0    0 -0.38142738730E+02 -0.54976219602E+01 -0.12826106928E+03  0.13392533091E+03  0.00000000000E+00 0. -1.
         -5    1    5    5    0  501 -0.44228910720E+02  0.33587612477E+02 -0.26939744191E+03  0.27510251900E+03  0.47000000000E+01 0.  1.
         13    1    6    6    0    0  0.10990074380E+02 -0.46297530405E+02 -0.85471343154E+03  0.85603696948E+03  0.00000000000E+00 0. -1.
        -14    1    6    6    0    0  0.31449841197E+02  0.28342173363E+02 -0.47634042278E+03  0.47821811935E+03  0.00000000000E+00 0.  1.
<mgrwt>
<rscale>  2 0.17015207E+03</rscale>
<asrwt>0</asrwt>
<pdfrwt beam="2">  1        2 0.32552325E+00 0.17015207E+03</pdfrwt>
<pdfrwt beam="1">  1       -2 0.28919913E-02 0.17015207E+03</pdfrwt>
<totfact> 0.28963708E+03</totfact>
</mgrwt>
</event>
<event>
12    1  0.4154313E-002  0.2946046E+03  0.7546771E-02  0.1087969E+00
          2   -1    0    0  502    0  0.00000000000E+00  0.00000000000E+00  0.33210754106E+03  0.33210754106E+03  0.00000000000E+00 0. -1.
         -2   -1    0    0    0  501 -0.00000000000E+00 -0.00000000000E+00 -0.35424511894E+03  0.35424511894E+03  0.00000000000E+00 0.  1.
          6    2    1    2  502    0 -0.46197986933E+02 -0.23405671417E+03  0.16465593471E+03  0.33819143237E+03  0.17419836006E+03 0.  0.
         24    2    3    3    0    0 -0.39184162928E+02 -0.15752586363E+03  0.18760271630E+03  0.25784960268E+03  0.70298236851E+02 0.  0.
         -6    2    1    2    0  501  0.46197986933E+02  0.23405671417E+03 -0.18679351259E+03  0.34816122763E+03  0.17148651446E+03 0.  0.
        -24    2    5    5    0    0  0.18614437792E+02  0.31328257038E+02 -0.47565171064E+02  0.10064092423E+03  0.80859094410E+02 0.  0.
          5    1    3    3  502    0 -0.70138240054E+01 -0.76530850537E+02 -0.22946781593E+02  0.80341829682E+02  0.47000000000E+01 0. -1.
        -11    1    4    4    0    0 -0.11524824511E+02 -0.10183859838E+03  0.67837514527E+02  0.12290585860E+03  0.00000000000E+00 0.  1.
         12    1    4    4    0    0 -0.27659338417E+02 -0.55687265249E+02  0.11976520177E+03  0.13494374409E+03  0.00000000000E+00 0. -1.
         -5    1    5    5    0  501  0.27583549142E+02  0.20272845713E+03 -0.13922834152E+03  0.24752030340E+03  0.47000000000E+01 0.  1.
         11    1    6    6    0    0  0.12144906991E+02  0.52922236954E+02 -0.76965234778E+01  0.54840663779E+02  0.00000000000E+00 0. -1.
        -12    1    6    6    0    0  0.64695308004E+01 -0.21593979916E+02 -0.39868647586E+02  0.45800260455E+02  0.00000000000E+00 0.  1.
<mgrwt>
<rscale>  2 0.29460462E+03</rscale>
<asrwt>0</asrwt>
<pdfrwt beam="1">  1        2 0.51093468E-01 0.29460462E+03</pdfrwt>
<pdfrwt beam="2">  1       -2 0.54499249E-01 0.29460462E+03</pdfrwt>
<totfact> 0.31736828E+02</totfact>
</mgrwt>
</event>
<event>
12    1  0.4154313E-002  0.2154124E+03  0.7546771E-02  0.1137350E+00
          2   -1    0    0  502    0  0.00000000000E+00  0.00000000000E+00  0.15670713725E+03  0.15670713725E+03  0.00000000000E+00 0.  1.
         -2   -1    0    0    0  501 -0.00000000000E+00 -0.00000000000E+00 -0.30645560568E+03  0.30645560568E+03  0.00000000000E+00 0. -1.
          6    2    1    2  502    0  0.10956512544E+03  0.67170781098E+02 -0.11758009654E+03  0.24582751877E+03  0.17346371187E+03 0.  0.
         24    2    3    3    0    0  0.11235697246E+03  0.52641061001E+02 -0.21584639351E+02  0.14858490992E+03  0.78844202298E+02 0.  0.
         -6    2    1    2    0  501 -0.10956512544E+03 -0.67170781098E+02 -0.32168371887E+02  0.21733522416E+03  0.17228860950E+03 0.  0.
        -24    2    5    5    0    0 -0.42164781681E+02 -0.64809612308E+01 -0.80590542822E+02  0.11441361704E+03  0.69106935243E+02 0.  0.
          5    1    3    3  502    0 -0.27918470173E+01  0.14529720097E+02 -0.95995457187E+02  0.97242608852E+02  0.47000000000E+01 0. -1.
        -11    1    4    4    0    0  0.85497793985E+02  0.12304239822E+01  0.30625572893E+01  0.85561474839E+02  0.00000000000E+00 0.  1.
         12    1    4    4    0    0  0.26859178474E+02  0.51410637019E+02 -0.24647196640E+02  0.63023435080E+02  0.00000000000E+00 0. -1.
         -5    1    5    5    0  501 -0.67400343761E+02 -0.60689819868E+02  0.48422170935E+02  0.10292160712E+03  0.47000000000E+01 0.  1.
         11    1    6    6    0    0 -0.48435432047E+02  0.20390681175E+02 -0.61313315355E+02  0.80753288454E+02  0.00000000000E+00 0. -1.
        -12    1    6    6    0    0  0.62706503657E+01 -0.26871642405E+02 -0.19277227467E+02  0.33660328584E+02  0.00000000000E+00 0.  1.
<mgrwt>
<rscale>  2 0.21541239E+03</rscale>
<asrwt>0</asrwt>
<pdfrwt beam="1">  1        2 0.24108791E-01 0.21541239E+03</pdfrwt>
<pdfrwt beam="2">  1       -2 0.47147015E-01 0.21541239E+03</pdfrwt>
<totfact> 0.96449897E+02</totfact>
</mgrwt>
</event>
<event>
12    1  0.4154313E-002  0.2217074E+03  0.7546771E-02  0.1132616E+00
          1   -1    0    0  502    0  0.00000000000E+00  0.00000000000E+00  0.71914275241E+03  0.71914275241E+03  0.00000000000E+00 0.  1.
         -1   -1    0    0    0  501 -0.00000000000E+00 -0.00000000000E+00 -0.92501439326E+02  0.92501439326E+02  0.00000000000E+00 0. -1.
          6    2    1    2  502    0  0.55352012923E+02  0.12356097916E+03  0.10664281527E+03  0.24660832906E+03  0.17638542174E+03 0.  0.
         24    2    3    3    0    0  0.74489464971E+02  0.11614698450E+03  0.13623734613E+03  0.21028842206E+03  0.81374465092E+02 0.  0.
         -6    2    1    2    0  501 -0.55352012923E+02 -0.12356097916E+03  0.51999849782E+03  0.56503586268E+03  0.17474532177E+03 0.  0.
        -24    2    5    5    0    0  0.34441759828E+02 -0.68780937391E+02  0.32331951942E+03  0.34194734853E+03  0.80470027741E+02 0.  0.
          5    1    3    3  502    0 -0.19137452048E+02  0.74139946603E+01 -0.29594530859E+02  0.36319907000E+02  0.47000000000E+01 0. -1.
        -13    1    4    4    0    0 -0.16485046323E+02  0.32058900084E+02  0.25852861898E+02  0.44361022251E+02  0.00000000000E+00 0.  1.
         14    1    4    4    0    0  0.90974511294E+02  0.84088084420E+02  0.11038448423E+03  0.16592739980E+03  0.00000000000E+00 0. -1.
         -5    1    5    5    0  501 -0.89793772751E+02 -0.54780041772E+02  0.19667897840E+03  0.22308851415E+03  0.47000000000E+01 0.  1.
         13    1    6    6    0    0  0.38263795891E+02 -0.29551158460E+02  0.67039401212E+02  0.82653919188E+02  0.00000000000E+00 0. -1.
        -14    1    6    6    0    0 -0.38220360630E+01 -0.39229778932E+02  0.25628011820E+03  0.25929342934E+03  0.00000000000E+00 0.  1.
<mgrwt>
<rscale>  2 0.22170744E+03</rscale>
<asrwt>0</asrwt>
<pdfrwt beam="1">  1        1 0.11063734E+00 0.22170744E+03</pdfrwt>
<pdfrwt beam="2">  1       -1 0.14230991E-01 0.22170744E+03</pdfrwt>
<totfact> 0.94949204E+02</totfact>
</mgrwt>
</event>
<event>
12    1  0.4154313E-002  0.2577328E+03  0.7546771E-02  0.1108513E+00
          1   -1    0    0  502    0  0.00000000000E+00  0.00000000000E+00  0.12973879373E+03  0.12973879373E+03  0.00000000000E+00 0.  1.
         -1   -1    0    0    0  501 -0.00000000000E+00 -0.00000000000E+00 -0.55417370214E+03  0.55417370214E+03  0.00000000000E+00 0. -1.
          6    2    1    2  502    0 -0.14774099615E+03  0.12234775343E+03 -0.11762198006E+03  0.28299075121E+03  0.17161719133E+03 0.  0.
         24    2    3    3    0    0 -0.10890679382E+03  0.65773320592E+02 -0.45594349027E+01  0.15065031581E+03  0.80547562138E+02 0.  0.
         -6    2    1    2    0  501  0.14774099615E+03 -0.12234775343E+03 -0.30681292835E+03  0.40092174466E+03  0.17264905916E+03 0.  0.
        -24    2    5    5    0    0  0.84887602938E+02 -0.90830349584E+01 -0.86703190889E+02  0.14548127799E+03  0.79743039059E+02 0.  0.
          5    1    3    3  502    0 -0.38834202332E+02  0.56574432839E+02 -0.11306254516E+03  0.13234043539E+03  0.47000000000E+01 0. -1.
        -13    1    4    4    0    0  0.45826856488E+00 -0.78436930833E+01  0.15424511866E+02  0.17310375431E+02  0.00000000000E+00 0.  1.
         14    1    4    4    0    0 -0.10936506238E+03  0.73617013675E+02 -0.19983946769E+02  0.13333994038E+03  0.00000000000E+00 0. -1.
         -5    1    5    5    0  501  0.62853393212E+02 -0.11326471847E+03 -0.22010973746E+03  0.25544046668E+03  0.47000000000E+01 0.  1.
         13    1    6    6    0    0  0.10016636951E+02  0.24027585531E+02 -0.48708634873E+02  0.55228516126E+02  0.00000000000E+00 0. -1.
        -14    1    6    6    0    0  0.74870965987E+02 -0.33110620490E+02 -0.37994556016E+02  0.90252761863E+02  0.00000000000E+00 0.  1.
<mgrwt>
<rscale>  2 0.25773284E+03</rscale>
<asrwt>0</asrwt>
<pdfrwt beam="1">  1        1 0.19959814E-01 0.25773284E+03</pdfrwt>
<pdfrwt beam="2">  1       -1 0.85257494E-01 0.25773284E+03</pdfrwt>
<totfact> 0.36673667E+02</totfact>
</mgrwt>
</event>
<event>
12    1  0.4154313E-002  0.2396241E+03  0.7546771E-02  0.1120044E+00
          1   -1    0    0  502    0  0.00000000000E+00  0.00000000000E+00  0.19412486491E+04  0.19412486491E+04  0.00000000000E+00 0. -1.
         -1   -1    0    0    0  501 -0.00000000000E+00 -0.00000000000E+00 -0.37115970604E+02  0.37115970604E+02  0.00000000000E+00 0.  1.
          6    2    1    2  502    0  0.13050093766E+03  0.99840929629E+02  0.50923628420E+03  0.56319108420E+03  0.17568124036E+03 0.  0.
         24    2    3    3    0    0  0.11278965152E+03  0.10838781273E+03  0.27107817228E+03  0.32417619943E+03  0.84483189756E+02 0.  0.
         -6    2    1    2    0  501 -0.13050093766E+03 -0.99840929629E+02  0.13948963943E+04  0.14151735355E+04  0.17315160646E+03 0.  0.
        -24    2    5    5    0    0 -0.88830144020E+02 -0.10299129653E+03  0.13193235861E+04  0.13286881657E+04  0.79369485005E+02 0.  0.
          5    1    3    3  502    0  0.17711286136E+02 -0.85468830996E+01  0.23815811193E+03  0.23901488477E+03  0.47000000000E+01 0. -1.
        -13    1    4    4    0    0  0.44554596113E+02  0.63478920563E+01  0.31348415345E+02  0.54846430266E+02  0.00000000000E+00 0.  1.
         14    1    4    4    0    0  0.68235055411E+02  0.10203992067E+03  0.23972975693E+03  0.26932976916E+03  0.00000000000E+00 0. -1.
         -5    1    5    5    0  501 -0.41670793640E+02  0.31503669040E+01  0.75572808202E+02  0.86485369824E+02  0.47000000000E+01 0.  1.
         13    1    6    6    0    0 -0.71252394482E+02 -0.25045778335E+02  0.74819523237E+03  0.75199754020E+03  0.00000000000E+00 0. -1.
        -14    1    6    6    0    0 -0.17577749538E+02 -0.77945518198E+02  0.57112835372E+03  0.57669062548E+03  0.00000000000E+00 0.  1.
<mgrwt>
<rscale>  2 0.23962408E+03</rscale>
<asrwt>0</asrwt>
<pdfrwt beam="1">  1        1 0.29865356E+00 0.23962408E+03</pdfrwt>
<pdfrwt beam="2">  1       -1 0.57101509E-02 0.23962408E+03</pdfrwt>
<totfact> 0.53300980E+02</totfact>
</mgrwt>
</event>
<event>
12    1  0.4154313E-002  0.2325270E+03  0.7546771E-02  0.1124874E+00
          2   -1    0    0  502    0  0.00000000000E+00  0.00000000000E+00  0.37883511717E+03  0.37883511717E+03  0.00000000000E+00 0. -1.
         -2   -1    0    0    0  501 -0.00000000000E+00 -0.00000000000E+00 -0.20311692131E+03  0.20311692131E+03  0.00000000000E+00 0.  1.
          6    2    1    2  502    0  0.83695948819E+02 -0.12611227086E+03  0.24545993243E+03  0.33555560264E+03  0.17157408699E+03 0.  0.
         24    2    3    3    0    0  0.58503674135E+02 -0.13489567928E+03  0.25631960102E+03  0.30636962366E+03  0.80889333426E+02 0.  0.
         -6    2    1    2    0  501 -0.83695948819E+02  0.12611227086E+03 -0.69741736570E+02  0.24639643583E+03  0.18148822843E+03 0.  0.
        -24    2    5    5    0    0  0.28820149336E+01  0.35492210395E+01 -0.18689892184E+01  0.81635260725E+02  0.81485702383E+02 0.  0.
          5    1    3    3  502    0  0.25192274684E+02  0.87834084182E+01 -0.10859668588E+02  0.29185978981E+02  0.47000000000E+01 0. -1.
        -13    1    4    4    0    0  0.93839854965E+01  0.89954659491E+01  0.81978215979E+01  0.15368209733E+02  0.00000000000E+00 0.  1.
         14    1    4    4    0    0  0.49119688639E+02 -0.14389114523E+03  0.24812177942E+03  0.29100141393E+03  0.00000000000E+00 0. -1.
         -5    1    5    5    0  501 -0.86577963753E+02  0.12256304982E+03 -0.67872747351E+02  0.16476117511E+03  0.47000000000E+01 0.  1.
         11    1    6    6    0    0 -0.90245403396E+00  0.32369526979E+02  0.25876709234E+02  0.41451233768E+02  0.00000000000E+00 0. -1.
        -12    1    6    6    0    0  0.37844689676E+01 -0.28820305939E+02 -0.27745698453E+02  0.40184026956E+02  0.00000000000E+00 0.  1.
<mgrwt>
<rscale>  2 0.23252703E+03</rscale>
<asrwt>0</asrwt>
<pdfrwt beam="1">  1        2 0.58282326E-01 0.23252703E+03</pdfrwt>
<pdfrwt beam="2">  1       -2 0.31248757E-01 0.23252703E+03</pdfrwt>
<totfact> 0.80544493E+02</totfact>
</mgrwt>
</event>
<event>
12    1  0.4154313E-002  0.2105336E+03  0.7546771E-02  0.1141144E+00
          1   -1    0    0  502    0  0.00000000000E+00  0.00000000000E+00  0.11429028344E+04  0.11429028344E+04  0.00000000000E+00 0. -1.
         -1   -1    0    0    0  501 -0.00000000000E+00 -0.00000000000E+00 -0.41352188317E+02  0.41352188317E+02  0.00000000000E+00 0.  1.
          6    2    1    2  502    0  0.79464778376E+02 -0.82168407251E+02  0.69248722296E+03  0.72310883568E+03  0.17401590767E+03 0.  0.
         24    2    3    3    0    0  0.49009045860E+02  0.16448018379E+02  0.23000646501E+03  0.24922774034E+03  0.80864508429E+02 0.  0.
         -6    2    1    2    0  501 -0.79464778376E+02  0.82168407251E+02  0.40906342314E+03  0.46114618705E+03  0.17960129045E+03 0.  0.
        -24    2    5    5    0    0  0.98843102294E+01 -0.17989672579E+02  0.13917254000E+03  0.15968627365E+03  0.75560453896E+02 0.  0.
          5    1    3    3  502    0  0.30455732516E+02 -0.98616425629E+02  0.46248075794E+03  0.47388109533E+03  0.47000000000E+01 0. -1.
        -11    1    4    4    0    0 -0.40699178390E+01 -0.83397867517E+01 -0.23725500278E+01  0.95783750143E+01  0.00000000000E+00 0.  1.
         12    1    4    4    0    0  0.53078963699E+02  0.24787805130E+02  0.23237901504E+03  0.23964936533E+03  0.00000000000E+00 0. -1.
         -5    1    5    5    0  501 -0.89349088605E+02  0.10015807983E+03  0.26989088314E+03  0.30145991340E+03  0.47000000000E+01 0.  1.
         11    1    6    6    0    0  0.40446018492E+02  0.38686703744E+01  0.76212656790E+02  0.86366753310E+02  0.00000000000E+00 0. -1.
        -12    1    6    6    0    0 -0.30561708263E+02 -0.21858342954E+02  0.62959883210E+02  0.73319520337E+02  0.00000000000E+00 0.  1.
<mgrwt>
<rscale>  2 0.21053356E+03</rscale>
<asrwt>0</asrwt>
<pdfrwt beam="1">  1        1 0.17583118E+00 0.21053356E+03</pdfrwt>
<pdfrwt beam="2">  1       -1 0.63618760E-02 0.21053356E+03</pdfrwt>
<totfact> 0.15368665E+03</totfact>
</mgrwt>
</event>
<event>
12    1  0.4154313E-002  0.3848067E+03  0.7546771E-02  0.1049171E+00
          1   -1    0    0  502    0  0.00000000000E+00  0.00000000000E+00  0.29080758653E+04  0.29080758653E+04  0.00000000000E+00 0. -1.
         -1   -1    0    0    0  501 -0.00000000000E+00 -0.00000000000E+00 -0.54590671677E+02  0.54590671677E+02  0.00000000000E+00 0.  1.
          6    2    1    2  502    0 -0.15578910397E+03 -0.30616495098E+03  0.18110074740E+04  0.18514438554E+04  0.17346197499E+03 0.  0.
         24    2    3    3    0    0 -0.10259481157E+03 -0.30259539356E+03  0.14947819460E+04  0.15307211573E+04  0.81513974104E+02 0.  0.
         -6    2    1    2    0  501  0.15578910397E+03  0.30616495098E+03  0.10424777196E+04  0.11112226815E+04  0.17334598343E+03 0.  0.
        -24    2    5    5    0    0  0.11521569062E+03  0.27042995693E+03  0.98940063782E+03  0.10353118241E+04  0.80931662411E+02 0.  0.
          5    1    3    3  502    0 -0.53194292402E+02 -0.35695574151E+01  0.31622552805E+03  0.32072269810E+03  0.47000000000E+01 0. -1.
        -13    1    4    4    0    0 -0.82218761570E+02 -0.11770293466E+03  0.67499908784E+03  0.69009975668E+03  0.00000000000E+00 0.  1.
         14    1    4    4    0    0 -0.20376049995E+02 -0.18489245891E+03  0.81978285814E+03  0.84062140067E+03  0.00000000000E+00 0. -1.
         -5    1    5    5    0  501  0.40573413343E+02  0.35734994047E+02  0.53077081779E+02  0.75910857458E+02  0.47000000000E+01 0.  1.
         13    1    6    6    0    0  0.10962380554E+03  0.15920571509E+03  0.64675493169E+03  0.67502279971E+03  0.00000000000E+00 0. -1.
        -14    1    6    6    0    0  0.55918850873E+01  0.11122424184E+03  0.34264570613E+03  0.36028902437E+03  0.00000000000E+00 0.  1.
<mgrwt>
<rscale>  2 0.38480666E+03</rscale>
<asrwt>0</asrwt>
<pdfrwt beam="1">  1        1 0.44739617E+00 0.38480666E+03</pdfrwt>
<pdfrwt beam="2">  1       -1 0.83985671E-02 0.38480666E+03</pdfrwt>
<totfact> 0.64941623E+01</totfact>
</mgrwt>
</event>
<event>
12    1  0.4154313E-002  0.2073396E+03  0.7546771E-02  0.1143690E+00
         -2   -1    0    0    0  501 -0.00000000000E+00  0.00000000000E+00  0.37737966029E+02  0.37737966029E+02  0.00000000000E+00 0.  1.
          2   -1    0    0  502    0  0.00000000000E+00 -0.00000000000E+00 -0.29542013332E+04  0.29542013332E+04  0.00000000000E+00 0. -1.
          6    2    1    2  502    0  0.10198364395E+03 -0.50746494259E+02 -0.26323069807E+04  0.26405034356E+04  0.17390365893E+03 0.  0.
         24    2    3    3    0    0  0.80033651180E+01 -0.75107767720E+02 -0.13148107145E+04  0.13194265015E+04  0.80335840336E+02 0.  0.
         -6    2    1    2    0  501 -0.10198364395E+03  0.50746494259E+02 -0.28415638650E+03  0.35143586363E+03  0.17258749650E+03 0.  0.
        -24    2    5    5    0    0 -0.13091466704E+03  0.67919463927E+02 -0.26299243074E+03  0.31141189572E+03  0.77850154415E+02 0.  0.
          5    1    3    3  502    0  0.93980278828E+02  0.24361273462E+02 -0.13174962662E+04  0.13210769342E+04  0.47000000000E+01 0. -1.
        -11    1    4    4    0    0  0.38388610124E+02 -0.57355941692E+02 -0.64269862610E+03  0.64639377583E+03  0.00000000000E+00 0.  1.
         12    1    4    4    0    0 -0.30385245006E+02 -0.17751826029E+02 -0.67211208837E+03  0.67303272563E+03  0.00000000000E+00 0. -1.
         -5    1    5    5    0  501  0.28931023091E+02 -0.17172969669E+02 -0.21163955761E+02  0.40023967917E+02  0.47000000000E+01 0.  1.
         13    1    6    6    0    0 -0.75101315667E+02 -0.45052223122E+01 -0.11340687146E+03  0.13609417011E+03  0.00000000000E+00 0. -1.
        -14    1    6    6    0    0 -0.55813351371E+02  0.72424686240E+02 -0.14958555927E+03  0.17531772560E+03  0.00000000000E+00 0.  1.
<mgrwt>
<rscale>  2 0.20733965E+03</rscale>
<asrwt>0</asrwt>
<pdfrwt beam="2">  1        2 0.45449244E+00 0.20733965E+03</pdfrwt>
<pdfrwt beam="1">  1       -2 0.58058418E-02 0.20733965E+03</pdfrwt>
<totfact> 0.35222077E+02</totfact>
</mgrwt>
</event>
<event>
12    1  0.4154313E-002  0.1808158E+03  0.7546771E-02  0.1167016E+00
          2   -1    0    0  502    0  0.00000000000E+00  0.00000000000E+00  0.10074483180E+04  0.10074483180E+04  0.00000000000E+00 0.  1.
         -2   -1    0    0    0  501 -0.00000000000E+00 -0.00000000000E+00 -0.41605324473E+02  0.41605324473E+02  0.00000000000E+00 0. -1.
          6    2    1    2  502    0 -0.32686919577E+02 -0.42444546984E+01  0.73316744889E+03  0.75563434907E+03  0.17989527864E+03 0.  0.
         24    2    3    3    0    0 -0.37362813697E+02  0.63901295068E+02  0.54544888223E+03  0.55581929091E+03  0.77079476318E+02 0.  0.
         -6    2    1    2    0  501  0.32686919577E+02  0.42444546984E+01  0.23267554464E+03  0.29341929340E+03  0.17570009266E+03 0.  0.
        -24    2    5    5    0    0  0.21084605529E+02 -0.10262285265E+02  0.27186800573E+02  0.87039126882E+02  0.79289421702E+02 0.  0.
          5    1    3    3  502    0  0.46758941198E+01 -0.68145749766E+02  0.18771856666E+03  0.19981505816E+03  0.47000000000E+01 0. -1.
        -13    1    4    4    0    0  0.22893025272E+02  0.11164077611E+02  0.17256084939E+03  0.17443042732E+03  0.00000000000E+00 0.  1.
         14    1    4    4    0    0 -0.60255838969E+02  0.52737217457E+02  0.37288803284E+03  0.38138886359E+03  0.00000000000E+00 0. -1.
         -5    1    5    5    0  501  0.11602314048E+02  0.14506739963E+02  0.20548874407E+03  0.20638016652E+03  0.47000000000E+01 0.  1.
         13    1    6    6    0    0  0.32630385117E+02  0.22720171567E+02  0.32928173460E+02  0.51625699379E+02  0.00000000000E+00 0. -1.
        -14    1    6    6    0    0 -0.11545779587E+02 -0.32982456831E+02 -0.57413728877E+01  0.35413427503E+02  0.00000000000E+00 0.  1.
<mgrwt>
<rscale>  2 0.18081582E+03</rscale>
<asrwt>0</asrwt>
<pdfrwt beam="1">  1        2 0.15499203E+00 0.18081582E+03</pdfrwt>
<pdfrwt beam="2">  1       -2 0.64008199E-02 0.18081582E+03</pdfrwt>
<totfact> 0.34446616E+03</totfact>
</mgrwt>
</event>
<event>
12    1  0.4154313E-002  0.2848459E+03  0.7546771E-02  0.1093071E+00
         -1   -1    0    0    0  501 -0.00000000000E+00  0.00000000000E+00  0.14179583405E+03  0.14179583405E+03  0.00000000000E+00 0. -1.
          1   -1    0    0  502    0  0.00000000000E+00 -0.00000000000E+00 -0.57224232144E+03  0.57224232144E+03  0.00000000000E+00 0.  1.
          6    2    1    2  502    0 -0.10481964985E+03  0.20058966259E+03 -0.21809401109E+03  0.35904915134E+03  0.17357397177E+03 0.  0.
         24    2    3    3    0    0 -0.79890413154E+02  0.61203233119E+02 -0.46928367432E+02  0.13685596708E+03  0.79993563481E+02 0.  0.
         -6    2    1    2    0  501  0.10481964985E+03 -0.20058966259E+03 -0.21235247630E+03  0.35498900414E+03  0.17233759642E+03 0.  0.
        -24    2    5    5    0    0  0.30744268007E+02 -0.18633931101E+03 -0.17622180717E+03  0.27121699231E+03  0.82686049325E+02 0.  0.
          5    1    3    3  502    0 -0.24929236697E+02  0.13938642947E+03 -0.17116564366E+03  0.22219318426E+03  0.47000000000E+01 0. -1.
        -13    1    4    4    0    0  0.11199611612E+02  0.59040977660E+01 -0.25055657747E+02  0.28072685227E+02  0.00000000000E+00 0.  1.
         14    1    4    4    0    0 -0.91090024766E+02  0.55299135353E+02 -0.21872709685E+02  0.10878328186E+03  0.00000000000E+00 0. -1.
         -5    1    5    5    0  501  0.74075381843E+02 -0.14250351582E+02 -0.36130669131E+02  0.83772011837E+02  0.47000000000E+01 0.  1.
         11    1    6    6    0    0 -0.13071787440E+02 -0.53809239241E+01 -0.34325322981E+02  0.37122146582E+02  0.00000000000E+00 0. -1.
        -12    1    6    6    0    0  0.43816055447E+02 -0.18095838708E+03 -0.14189648419E+03  0.23409484572E+03  0.00000000000E+00 0.  1.
<mgrwt>
<rscale>  2 0.28484588E+03</rscale>
<asrwt>0</asrwt>
<pdfrwt beam="2">  1        1 0.88037278E-01 0.28484588E+03</pdfrwt>
<pdfrwt beam="1">  1       -1 0.21814744E-01 0.28484588E+03</pdfrwt>
<totfact> 0.65891785E+02</totfact>
</mgrwt>
</event>
<event>
12    1  0.4154313E-002  0.2402262E+03  0.7546771E-02  0.1119642E+00
         -2   -1    0    0    0  501 -0.00000000000E+00  0.00000000000E+00  0.17691815329E+03  0.17691815329E+03  0.00000000000E+00 0. -1.
          2   -1    0    0  502    0  0.00000000000E+00 -0.00000000000E+00 -0.40879116581E+03  0.40879116581E+03  0.00000000000E+00 0.  1.
          6    2    1    2  502    0  0.33598087509E+02  0.16580606722E+03 -0.24852913320E+03  0.34744321547E+03  0.17415388172E+03 0.  0.
         24    2    3    3    0    0  0.54385274601E+02  0.48936700754E+02 -0.18134544496E+03  0.21096503433E+03  0.79167648217E+02 0.  0.
         -6    2    1    2    0  501 -0.33598087509E+02 -0.16580606722E+03  0.16656120675E+02  0.23826610362E+03  0.16695156893E+03 0.  0.
        -24    2    5    5    0    0 -0.36468981354E+02 -0.90976472394E+02 -0.40761749725E+02  0.14378535355E+03  0.96984547868E+02 0.  0.
          5    1    3    3  502    0 -0.20787187092E+02  0.11686936646E+03 -0.67183688234E+02  0.13647818115E+03  0.47000000000E+01 0. -1.
        -13    1    4    4    0    0  0.44625763433E+02  0.66618643010E+02 -0.16960439158E+03  0.18760370999E+03  0.00000000000E+00 0.  1.
         14    1    4    4    0    0  0.97595111683E+01 -0.17681942256E+02 -0.11741053386E+02  0.23361324337E+02  0.00000000000E+00 0. -1.
         -5    1    5    5    0  501  0.28708938448E+01 -0.74829594822E+02  0.57417870400E+02  0.94480750071E+02  0.47000000000E+01 0.  1.
         13    1    6    6    0    0 -0.34976098522E+01 -0.39684374383E+02  0.30371300871E+02  0.50094897559E+02  0.00000000000E+00 0. -1.
        -14    1    6    6    0    0 -0.32971371502E+02 -0.51292098011E+02 -0.71133050596E+02  0.93690455993E+02  0.00000000000E+00 0.  1.
<mgrwt>
<rscale>  2 0.24022617E+03</rscale>
<asrwt>0</asrwt>
<pdfrwt beam="2">  1        2 0.62890949E-01 0.24022617E+03</pdfrwt>
<pdfrwt beam="1">  1       -2 0.27218177E-01 0.24022617E+03</pdfrwt>
<totfact> 0.95225139E+02</totfact>
</mgrwt>
</event>
<event>
12    1  0.4154313E-002  0.2133461E+03  0.7546771E-02  0.1138943E+00
         -1   -1    0    0    0  501 -0.00000000000E+00  0.00000000000E+00  0.39291119757E+02  0.39291119757E+02  0.00000000000E+00 0. -1.
          1   -1    0    0  502    0  0.00000000000E+00 -0.00000000000E+00 -0.12037617184E+04  0.12037617184E+04  0.00000000000E+00 0.  1.
          6    2    1    2  502    0 -0.55296079498E+02  0.11350187583E+03 -0.46091494569E+03  0.50778022623E+03  0.17163286039E+03 0.  0.
         24    2    3    3    0    0 -0.10093900707E+03  0.94025766097E+02 -0.38812293782E+03  0.41955686143E+03  0.79743446548E+02 0.  0.
         -6    2    1    2    0  501  0.55296079498E+02 -0.11350187583E+03 -0.70355565295E+03  0.73527261193E+03  0.17232215418E+03 0.  0.
        -24    2    5    5    0    0  0.90578811574E+02 -0.10698477564E+03 -0.59598477160E+03  0.62177843457E+03  0.10844496484E+03 0.  0.
          5    1    3    3  502    0  0.45642927574E+02  0.19476109733E+02 -0.72792007866E+02  0.88223364802E+02  0.47000000000E+01 0. -1.
        -11    1    4    4    0    0 -0.17231806280E+02  0.63876473296E+02 -0.21440441476E+03  0.22438001706E+03  0.00000000000E+00 0.  1.
         12    1    4    4    0    0 -0.83707200793E+02  0.30149292801E+02 -0.17371852306E+03  0.19517684437E+03  0.00000000000E+00 0. -1.
         -5    1    5    5    0  501 -0.35282732076E+02 -0.65171001897E+01 -0.10757088135E+03  0.11349417735E+03  0.47000000000E+01 0.  1.
         11    1    6    6    0    0  0.25432415070E+02 -0.10908240899E+03 -0.37016778645E+03  0.38674276957E+03  0.00000000000E+00 0. -1.
        -12    1    6    6    0    0  0.65146396504E+02  0.20976333522E+01 -0.22581698515E+03  0.23503566501E+03  0.00000000000E+00 0.  1.
<mgrwt>
<rscale>  2 0.21334610E+03</rscale>
<asrwt>0</asrwt>
<pdfrwt beam="2">  1        1 0.18519414E+00 0.21334610E+03</pdfrwt>
<pdfrwt beam="1">  1       -1 0.60447868E-02 0.21334610E+03</pdfrwt>
<totfact> 0.15048415E+03</totfact>
</mgrwt>
</event>
<event>
12    1  0.4154313E-002  0.1730214E+03  0.7546771E-02  0.1174733E+00
          2   -1    0    0  502    0  0.00000000000E+00  0.00000000000E+00  0.29236439929E+03  0.29236439929E+03  0.00000000000E+00 0.  1.
         -2   -1    0    0    0  501 -0.00000000000E+00 -0.00000000000E+00 -0.10298746127E+03  0.10298746127E+03  0.00000000000E+00 0. -1.
          6    2    1    2  502    0  0.10575957198E+02  0.33041054159E+01  0.10942774523E+03  0.20432614532E+03  0.17219748620E+03 0.  0.
         24    2    3    3    0    0  0.25254641428E+02  0.57001681740E+02  0.30377342450E+02  0.10752764506E+03  0.82173127496E+02 0.  0.
         -6    2    1    2    0  501 -0.10575957198E+02 -0.33041054159E+01  0.79949192794E+02  0.19102571524E+03  0.17313631182E+03 0.  0.
        -24    2    5    5    0    0 -0.29780756883E+02 -0.65620273502E+02  0.47052237885E+02  0.11783808802E+03  0.80492161868E+02 0.  0.
          5    1    3    3  502    0 -0.14678684230E+02 -0.53697576324E+02  0.79050402783E+02  0.96798500267E+02  0.47000000000E+01 0. -1.
        -11    1    4    4    0    0 -0.10018160820E+01 -0.19869706675E+02  0.14847762724E+02  0.24824684021E+02  0.00000000000E+00 0.  1.
         12    1    4    4    0    0  0.26256457510E+02  0.76871388415E+02  0.15529579726E+02  0.82702961037E+02  0.00000000000E+00 0. -1.
         -5    1    5    5    0  501  0.19204799685E+02  0.62316168086E+02  0.32896954909E+02  0.73187627220E+02  0.47000000000E+01 0.  1.
         13    1    6    6    0    0 -0.31630594027E+02 -0.46065233432E+02 -0.10649192005E+02  0.56885019996E+02  0.00000000000E+00 0. -1.
        -14    1    6    6    0    0  0.18498371441E+01 -0.19555040070E+02  0.57701429890E+02  0.60953068019E+02  0.00000000000E+00 0.  1.
<mgrwt>
<rscale>  2 0.17302141E+03</rscale>
<asrwt>0</asrwt>
<pdfrwt beam="1">  1        2 0.44979138E-01 0.17302141E+03</pdfrwt>
<pdfrwt beam="2">  1       -2 0.15844225E-01 0.17302141E+03</pdfrwt>
<totfact> 0.34318958E+03</totfact>
</mgrwt>
</event>
<event>
12    1  0.4154313E-002  0.2479753E+03  0.7546771E-02  0.1114591E+00
         -2   -1    0    0    0  501 -0.00000000000E+00  0.00000000000E+00  0.18709126125E+03  0.18709126125E+03  0.00000000000E+00 0.  1.
          2   -1    0    0  502    0  0.00000000000E+00 -0.00000000000E+00 -0.35716528058E+03  0.35716528058E+03  0.00000000000E+00 0. -1.
          6    2    1    2  502    0 -0.14231064508E+03 -0.10722900099E+03 -0.81580554890E+01  0.24805326072E+03  0.17237600741E+03 0.  0.
         24    2    3    3    0    0 -0.11292418731E+03 -0.60981525071E+01 -0.15558654584E+02  0.14237511122E+03  0.85085492421E+02 0.  0.
         -6    2    1    2    0  501  0.14231064508E+03  0.10722900099E+03 -0.16191596384E+03  0.29620328111E+03  0.17253760760E+03 0.  0.
        -24    2    5    5    0    0  0.15299804806E+03  0.11037854938E+03 -0.18091482108E+03  0.27368247264E+03  0.81117793790E+02 0.  0.
          5    1    3    3  502    0 -0.29386457769E+02 -0.10113084848E+03  0.74005990952E+01  0.10567814950E+03  0.47000000000E+01 0. -1.
        -13    1    4    4    0    0 -0.40812262130E+02  0.38217398130E+02 -0.14356187913E+02  0.57726167302E+02  0.00000000000E+00 0.  1.
         14    1    4    4    0    0 -0.72111925178E+02 -0.44315550637E+02 -0.12024666709E+01  0.84648943923E+02  0.00000000000E+00 0. -1.
         -5    1    5    5    0  501 -0.10687402978E+02 -0.31495483909E+01  0.18998857246E+02  0.22520808470E+02  0.47000000000E+01 0.  1.
         11    1    6    6    0    0  0.83981997267E+02  0.10165827690E+03 -0.91978603411E+02  0.16077140483E+03  0.00000000000E+00 0. -1.
        -12    1    6    6    0    0  0.69016050789E+02  0.87202724802E+01 -0.88936217671E+02  0.11291106780E+03  0.00000000000E+00 0.  1.
<mgrwt>
<rscale>  2 0.24797526E+03</rscale>
<asrwt>0</asrwt>
<pdfrwt beam="2">  1        2 0.54948504E-01 0.24797526E+03</pdfrwt>
<pdfrwt beam="1">  1       -2 0.28783271E-01 0.24797526E+03</pdfrwt>
<totfact> 0.99751731E+02</totfact>
</mgrwt>
</event>
<event>
12    1  0.4154313E-002  0.1782714E+03  0.7546771E-02  0.1169487E+00
          2   -1    0    0  502    0  0.00000000000E+00  0.00000000000E+00  0.10866939194E+04  0.10866939194E+04  0.00000000000E+00 0.  1.
         -2   -1    0    0    0  501 -0.00000000000E+00 -0.00000000000E+00 -0.29390870114E+02  0.29390870114E+02  0.00000000000E+00 0. -1.
          6    2    1    2  502    0 -0.43286077679E+02  0.83368364044E+01  0.49039640684E+03  0.52191080494E+03  0.17308687157E+03 0.  0.
         24    2    3    3    0    0 -0.94863904523E+02  0.17685244262E+01  0.34481455383E+03  0.36725124051E+03  0.83511131373E+02 0.  0.
         -6    2    1    2    0  501  0.43286077679E+02 -0.83368364044E+01  0.56690664246E+03  0.59417398459E+03  0.17238444052E+03 0.  0.
        -24    2    5    5    0    0  0.15479453611E+02  0.37385611070E+02  0.14958329991E+03  0.17340728820E+03  0.77830756080E+02 0.  0.
          5    1    3    3  502    0  0.51577826843E+02  0.65683119782E+01  0.14558185301E+03  0.15465956443E+03  0.47000000000E+01 0. -1.
        -13    1    4    4    0    0 -0.39969307629E+02 -0.26926676378E+02  0.24563330319E+03  0.25031642193E+03  0.00000000000E+00 0.  1.
         14    1    4    4    0    0 -0.54894596894E+02  0.28695200804E+02  0.99181250643E+02  0.11693481858E+03  0.00000000000E+00 0. -1.
         -5    1    5    5    0  501  0.27806624069E+02 -0.45722447474E+02  0.41732334256E+03  0.42076669639E+03  0.47000000000E+01 0.  1.
         13    1    6    6    0    0  0.39502671896E+02  0.47071867256E+02  0.11221947873E+03  0.12794308571E+03  0.00000000000E+00 0. -1.
        -14    1    6    6    0    0 -0.24023218285E+02 -0.96862561864E+01  0.37363821178E+02  0.45464202497E+02  0.00000000000E+00 0.  1.
<mgrwt>
<rscale>  2 0.17827138E+03</rscale>
<asrwt>0</asrwt>
<pdfrwt beam="1">  1        2 0.16718365E+00 0.17827138E+03</pdfrwt>
<pdfrwt beam="2">  1       -2 0.45216732E-02 0.17827138E+03</pdfrwt>
<totfact> 0.52378714E+03</totfact>
</mgrwt>
</event>
<event>
12    1  0.4154313E-002  0.1807365E+03  0.7546771E-02  0.1167092E+00
         -2   -1    0    0    0  501 -0.00000000000E+00  0.00000000000E+00  0.36009957237E+02  0.36009957237E+02  0.00000000000E+00 0. -1.
          2   -1    0    0  502    0  0.00000000000E+00 -0.00000000000E+00 -0.20668402597E+04  0.20668402597E+04  0.00000000000E+00 0.  1.
          6    2    1    2  502    0  0.49863096329E+02 -0.21959252176E+02 -0.22963050700E+03  0.29267782967E+03  0.17309420875E+03 0.  0.
         24    2    3    3    0    0  0.67755190772E+02  0.85193109925E+01 -0.66256578569E+02  0.12545881058E+03  0.81771843632E+02 0.  0.
         -6    2    1    2    0  501 -0.49863096329E+02  0.21959252176E+02 -0.18011997954E+04  0.18101723872E+04  0.17156582210E+03 0.  0.
        -24    2    5    5    0    0  0.21780060911E+02 -0.31245359515E+02 -0.79589977734E+03  0.80090845295E+03  0.80915084403E+02 0.  0.
          5    1    3    3  502    0 -0.17892094443E+02 -0.30478563169E+02 -0.16337392843E+03  0.16721901909E+03  0.47000000000E+01 0. -1.
        -13    1    4    4    0    0  0.60934885059E+01  0.18496347577E+00 -0.62848148962E+02  0.63143128221E+02  0.00000000000E+00 0.  1.
         14    1    4    4    0    0  0.61661702266E+02  0.83343475168E+01 -0.34084296073E+01  0.62315682354E+02  0.00000000000E+00 0. -1.
         -5    1    5    5    0  501 -0.71643157240E+02  0.53204611692E+02 -0.10053000181E+04  0.10092639343E+04  0.47000000000E+01 0.  1.
         13    1    6    6    0    0 -0.13411039938E+02  0.10884236222E+02 -0.48287244743E+02  0.51283336428E+02  0.00000000000E+00 0. -1.
        -14    1    6    6    0    0  0.35191100849E+02 -0.42129595737E+02 -0.74761253260E+03  0.74962511652E+03  0.00000000000E+00 0.  1.
<mgrwt>
<rscale>  2 0.18073653E+03</rscale>
<asrwt>0</asrwt>
<pdfrwt beam="2">  1        2 0.31797546E+00 0.18073653E+03</pdfrwt>
<pdfrwt beam="1">  1       -2 0.55399928E-02 0.18073653E+03</pdfrwt>
<totfact> 0.11599841E+03</totfact>
</mgrwt>
</event>
<event>
12    1  0.4154313E-002  0.3646807E+03  0.7546771E-02  0.1056746E+00
         -2   -1    0    0    0  501 -0.00000000000E+00  0.00000000000E+00  0.33185036167E+02  0.33185036167E+02  0.00000000000E+00 0. -1.
          2   -1    0    0  502    0  0.00000000000E+00 -0.00000000000E+00 -0.40350601265E+04  0.40350601265E+04  0.00000000000E+00 0.  1.
          6    2    1    2  502    0 -0.51606714610E+02 -0.31694785414E+03 -0.18341639882E+04  0.18701046340E+04  0.17324725469E+03 0.  0.
         24    2    3    3    0    0 -0.89479345699E+02 -0.17246874970E+03 -0.12211136275E+04  0.12391043308E+04  0.80678550815E+02 0.  0.
         -6    2    1    2    0  501  0.51606714610E+02  0.31694785414E+03 -0.21677111022E+04  0.21981405287E+04  0.17242727809E+03 0.  0.
        -24    2    5    5    0    0 -0.15481982785E+02  0.23221712099E+03 -0.12449807123E+04  0.12690906631E+04  0.80309737928E+02 0.  0.
          5    1    3    3  502    0  0.37872631089E+02 -0.14447910444E+03 -0.61305036067E+03  0.63100030311E+03  0.47000000000E+01 0. -1.
        -11    1    4    4    0    0 -0.91572897112E+02 -0.13351232701E+03 -0.80193778645E+03  0.81811695392E+03  0.00000000000E+00 0.  1.
         12    1    4    4    0    0  0.20935514124E+01 -0.38956422684E+02 -0.41917584104E+03  0.42098737693E+03  0.00000000000E+00 0. -1.
         -5    1    5    5    0  501  0.67088697395E+02  0.84730733147E+02 -0.92273038986E+03  0.92904986563E+03  0.47000000000E+01 0.  1.
         11    1    6    6    0    0  0.29170296222E+01  0.22161330930E+03 -0.10618866049E+04  0.10847691596E+04  0.00000000000E+00 0. -1.
        -12    1    6    6    0    0 -0.18399012407E+02  0.10603811691E+02 -0.18309410748E+03  0.18432150356E+03  0.00000000000E+00 0.  1.
<mgrwt>
<rscale>  2 0.36468069E+03</rscale>
<asrwt>0</asrwt>
<pdfrwt beam="2">  1        2 0.62077829E+00 0.36468069E+03</pdfrwt>
<pdfrwt beam="1">  1       -2 0.51053918E-02 0.36468069E+03</pdfrwt>
<totfact> 0.76980562E+01</totfact>
</mgrwt>
</event>
<event>
12    1  0.4154313E-002  0.1853563E+03  0.7546771E-02  0.1162718E+00
         -2   -1    0    0    0  501 -0.00000000000E+00  0.00000000000E+00  0.48113613829E+02  0.48113613829E+02  0.00000000000E+00 0.  1.
          2   -1    0    0  502    0  0.00000000000E+00 -0.00000000000E+00 -0.85121050263E+03  0.85121050263E+03  0.00000000000E+00 0. -1.
          6    2    1    2  502    0 -0.26954027690E+02  0.57277579478E+02 -0.21767665542E+03  0.28468269833E+03  0.17220299559E+03 0.  0.
         24    2    3    3    0    0  0.37609704972E+02  0.44476201553E+02 -0.65718991751E+02  0.11901564548E+03  0.80331286425E+02 0.  0.
         -6    2    1    2    0  501  0.26954027690E+02 -0.57277579478E+02 -0.58542023337E+03  0.61464141813E+03  0.17623842519E+03 0.  0.
        -24    2    5    5    0    0 -0.40608875599E+02 -0.72818766206E+02 -0.31470942406E+03  0.33515491279E+03  0.79593595760E+02 0.  0.
          5    1    3    3  502    0 -0.64563732662E+02  0.12801377925E+02 -0.15195766367E+03  0.16566705285E+03  0.47000000000E+01 0. -1.
        -11    1    4    4    0    0 -0.17018582714E+02  0.30577891788E+02 -0.49012527656E+02  0.60223479566E+02  0.00000000000E+00 0.  1.
         12    1    4    4    0    0  0.54628287686E+02  0.13898309765E+02 -0.16706464095E+02  0.58792165910E+02  0.00000000000E+00 0. -1.
         -5    1    5    5    0  501  0.67562903289E+02  0.15541186728E+02 -0.27071080931E+03  0.27948650533E+03  0.47000000000E+01 0.  1.
         13    1    6    6    0    0 -0.22370046908E+02 -0.65899402096E+00 -0.17884111555E+03  0.18023595058E+03  0.00000000000E+00 0. -1.
        -14    1    6    6    0    0 -0.18238828691E+02 -0.72159772185E+02 -0.13586830852E+03  0.15491896221E+03  0.00000000000E+00 0.  1.
<mgrwt>
<rscale>  2 0.18535635E+03</rscale>
<asrwt>0</asrwt>
<pdfrwt beam="2">  1        2 0.13095545E+00 0.18535635E+03</pdfrwt>
<pdfrwt beam="1">  1       -2 0.74020951E-02 0.18535635E+03</pdfrwt>
<totfact> 0.34550389E+03</totfact>
</mgrwt>
</event>
<event>
12    1  0.4154313E-002  0.1768884E+03  0.7546771E-02  0.1170849E+00
          1   -1    0    0  502    0  0.00000000000E+00  0.00000000000E+00  0.12410254669E+04  0.12410254669E+04  0.00000000000E+00 0. -1.
         -1   -1    0    0    0  501 -0.00000000000E+00 -0.00000000000E+00 -0.25220182872E+02  0.25220182872E+02  0.00000000000E+00 0.  1.
          6    2    1    2  502    0 -0.16888737241E+02  0.21363919654E+02  0.59545033056E+03  0.62103459353E+03  0.17430210466E+03 0.  0.
         24    2    3    3    0    0 -0.45652553163E+02  0.66236810998E+02  0.30498622627E+03  0.32568324452E+03  0.81126486440E+02 0.  0.
         -6    2    1    2    0  501  0.16888737241E+02 -0.21363919654E+02  0.62035495350E+03  0.64521105628E+03  0.17525807342E+03 0.  0.
        -24    2    5    5    0    0 -0.85027834798E+01  0.54548104830E+02  0.27821332562E+03  0.29379912091E+03  0.76599450581E+02 0.  0.
          5    1    3    3  502    0  0.28763815922E+02 -0.44872891344E+02  0.29046410428E+03  0.29535134901E+03  0.47000000000E+01 0. -1.
        -13    1    4    4    0    0 -0.35848491800E+02 -0.25155677687E+01  0.51108444355E+02  0.62478120410E+02  0.00000000000E+00 0.  1.
         14    1    4    4    0    0 -0.98040613628E+01  0.68752378767E+02  0.25387778192E+03  0.26320512411E+03  0.00000000000E+00 0. -1.
         -5    1    5    5    0  501  0.25391520721E+02 -0.75912024484E+02  0.34214162789E+03  0.35141193537E+03  0.47000000000E+01 0.  1.
         13    1    6    6    0    0 -0.10409461849E+02 -0.17407526653E+02  0.38555082723E+02  0.43564587499E+02  0.00000000000E+00 0. -1.
        -14    1    6    6    0    0  0.19066783692E+01  0.71955631484E+02  0.23965824289E+03  0.25023453341E+03  0.00000000000E+00 0.  1.
<mgrwt>
<rscale>  2 0.17688841E+03</rscale>
<asrwt>0</asrwt>
<pdfrwt beam="1">  1        1 0.19092695E+00 0.17688841E+03</pdfrwt>
<pdfrwt beam="2">  1       -1 0.38800291E-02 0.17688841E+03</pdfrwt>
<totfact> 0.27440270E+03</totfact>
</mgrwt>
</event>
<event>
12    1  0.4154313E-002  0.2846819E+03  0.7546771E-02  0.1093159E+00
         -2   -1    0    0    0  501 -0.00000000000E+00  0.00000000000E+00  0.72074576638E+03  0.72074576638E+03  0.00000000000E+00 0. -1.
          2   -1    0    0  502    0  0.00000000000E+00 -0.00000000000E+00 -0.45098175993E+03  0.45098175993E+03  0.00000000000E+00 0.  1.
          6    2    1    2  502    0 -0.11708653608E+03 -0.19348128186E+03 -0.37273027714E+03  0.46894129046E+03  0.17272466831E+03 0.  0.
         24    2    3    3    0    0 -0.57692201399E+02 -0.21211370917E+02 -0.15291366022E+03  0.18337861033E+03  0.80416508799E+02 0.  0.
         -6    2    1    2    0  501  0.11708653608E+03  0.19348128186E+03  0.64249428358E+03  0.70278623585E+03  0.17310495519E+03 0.  0.
        -24    2    5    5    0    0  0.88055630689E+02  0.85348526783E+02  0.22447777656E+03  0.27000987752E+03  0.86469050363E+02 0.  0.
          5    1    3    3  502    0 -0.59394334684E+02 -0.17226991094E+03 -0.21981661692E+03  0.28556268012E+03  0.47000000000E+01 0. -1.
        -11    1    4    4    0    0 -0.82627242624E+01 -0.35291014951E+02 -0.11190177190E+03  0.11762540076E+03  0.00000000000E+00 0.  1.
         12    1    4    4    0    0 -0.49429477137E+02  0.14079644034E+02 -0.41011888319E+02  0.65753209576E+02  0.00000000000E+00 0. -1.
         -5    1    5    5    0  501  0.29030905394E+02  0.10813275507E+03  0.41801650702E+03  0.43277635833E+03  0.47000000000E+01 0.  1.
         13    1    6    6    0    0  0.67550327786E+02  0.75958654255E+02  0.22558524134E+03  0.24742971739E+03  0.00000000000E+00 0. -1.
        -14    1    6    6    0    0  0.20505302903E+02  0.93898725282E+01 -0.11074647780E+01  0.22580160129E+02  0.00000000000E+00 0.  1.
<mgrwt>
<rscale>  2 0.28468194E+03</rscale>
<asrwt>0</asrwt>
<pdfrwt beam="2">  1        2 0.69381809E-01 0.28468194E+03</pdfrwt>
<pdfrwt beam="1">  1       -2 0.11088396E+00 0.28468194E+03</pdfrwt>
<totfact> 0.47411353E+01</totfact>
</mgrwt>
</event>
<event>
12    1  0.4154313E-002  0.1986991E+03  0.7546771E-02  0.1150841E+00
         -2   -1    0    0    0  501 -0.00000000000E+00  0.00000000000E+00  0.80833966652E+02  0.80833966652E+02  0.00000000000E+00 0.  1.
          2   -1    0    0  502    0  0.00000000000E+00 -0.00000000000E+00 -0.57463828765E+03  0.57463828765E+03  0.00000000000E+00 0. -1.
          6    2    1    2  502    0 -0.45075480819E+02  0.81456872904E+02 -0.12825513494E+03  0.24279311998E+03  0.18393503841E+03 0.  0.
         24    2    3    3    0    0 -0.94062467095E+02  0.41651669028E+02 -0.42545787701E+02  0.13624565973E+03  0.78550152743E+02 0.  0.
         -6    2    1    2    0  501  0.45075480819E+02 -0.81456872904E+02 -0.36554918605E+03  0.41267913432E+03  0.16736439098E+03 0.  0.
        -24    2    5    5    0    0 -0.25694091314E+02 -0.71501652209E+02 -0.15814903015E+03  0.19326091852E+03  0.81030823095E+02 0.  0.
          5    1    3    3  502    0  0.48986986275E+02  0.39805203875E+02 -0.85709347243E+02  0.10654746024E+03  0.47000000000E+01 0. -1.
        -13    1    4    4    0    0 -0.24251802625E+02 -0.17010334593E+02  0.96790142977E+01  0.31163836916E+02  0.00000000000E+00 0.  1.
         14    1    4    4    0    0 -0.69810664469E+02  0.58662003622E+02 -0.52224801999E+02  0.10508182282E+03  0.00000000000E+00 0. -1.
         -5    1    5    5    0  501  0.70769572134E+02 -0.99552206944E+01 -0.20740015590E+03  0.21941821580E+03  0.47000000000E+01 0.  1.
         13    1    6    6    0    0 -0.40724836251E+02 -0.46214678232E+02 -0.15086488968E+03  0.16295558815E+03  0.00000000000E+00 0. -1.
        -14    1    6    6    0    0  0.15030744937E+02 -0.25286973977E+02 -0.72841404739E+01  0.30305330368E+02  0.00000000000E+00 0.  1.
<mgrwt>
<rscale>  2 0.19869914E+03</rscale>
<asrwt>0</asrwt>
<pdfrwt beam="2">  1        2 0.88405891E-01 0.19869914E+03</pdfrwt>
<pdfrwt beam="1">  1       -2 0.12435995E-01 0.19869914E+03</pdfrwt>
<totfact> 0.24516238E+03</totfact>
</mgrwt>
</event>
<event>
12    1  0.4154313E-002  0.1985098E+03  0.7546771E-02  0.1151002E+00
          2   -1    0    0  502    0  0.00000000000E+00  0.00000000000E+00  0.52339754923E+03  0.52339754923E+03  0.00000000000E+00 0.  1.
         -2   -1    0    0    0  501 -0.00000000000E+00 -0.00000000000E+00 -0.10233594021E+03  0.10233594021E+03  0.00000000000E+00 0. -1.
          6    2    1    2  502    0  0.88102565760E+02  0.38686951599E+02  0.50012985555E+02  0.20511665990E+03  0.17410572400E+03 0.  0.
         24    2    3    3    0    0  0.82730484937E+02  0.63730139648E+02 -0.16399637694E+02  0.13378120556E+03  0.81991456912E+02 0.  0.
         -6    2    1    2    0  501 -0.88102565760E+02 -0.38686951599E+02  0.37104862347E+03  0.42061682953E+03  0.17315511540E+03 0.  0.
        -24    2    5    5    0    0 -0.22736511048E+02  0.38269632888E+02  0.22461256121E+03  0.24268243899E+03  0.80389363778E+02 0.  0.
          5    1    3    3  502    0  0.53720808229E+01 -0.25043188048E+02  0.66412623249E+02  0.71335454346E+02  0.47000000000E+01 0. -1.
        -11    1    4    4    0    0  0.36447291002E+02  0.36288405192E+02  0.32693514991E+02  0.60943574684E+02  0.00000000000E+00 0.  1.
         12    1    4    4    0    0  0.46283193935E+02  0.27441734456E+02 -0.49093152685E+02  0.72837630874E+02  0.00000000000E+00 0. -1.
         -5    1    5    5    0  501 -0.65366054712E+02 -0.76956584488E+02  0.14643606226E+03  0.17793439054E+03  0.47000000000E+01 0.  1.
         11    1    6    6    0    0  0.23343765296E+02  0.23089907560E+02  0.39737991666E+02  0.51547872807E+02  0.00000000000E+00 0. -1.
        -12    1    6    6    0    0 -0.46080276344E+02  0.15179725329E+02  0.18487456954E+03  0.19113456619E+03  0.00000000000E+00 0.  1.
<mgrwt>
<rscale>  2 0.19850981E+03</rscale>
<asrwt>0</asrwt>
<pdfrwt beam="1">  1        2 0.80522698E-01 0.19850981E+03</pdfrwt>
<pdfrwt beam="2">  1       -2 0.15743991E-01 0.19850981E+03</pdfrwt>
<totfact> 0.18525207E+03</totfact>
</mgrwt>
</event>
<event>
12    1  0.4154313E-002  0.2214627E+03  0.7546771E-02  0.1132797E+00
          2   -1    0    0  502    0  0.00000000000E+00  0.00000000000E+00  0.99144055237E+03  0.99144055237E+03  0.00000000000E+00 0. -1.
         -2   -1    0    0    0  501 -0.00000000000E+00 -0.00000000000E+00 -0.53943405933E+02  0.53943405933E+02  0.00000000000E+00 0.  1.
          6    2    1    2  502    0 -0.42966828883E+02  0.13349540997E+03  0.61692462339E+03  0.65506677350E+03  0.16985085789E+03 0.  0.
         24    2    3    3    0    0 -0.44779274765E+02  0.96700612642E+02  0.22347645986E+03  0.25986974737E+03  0.78957998676E+02 0.  0.
         -6    2    1    2    0  501  0.42966828883E+02 -0.13349540997E+03  0.32057252305E+03  0.39031718481E+03  0.17295545483E+03 0.  0.
        -24    2    5    5    0    0  0.38380317206E+02 -0.76242325647E+02  0.31026886991E+03  0.33177483243E+03  0.80757828283E+02 0.  0.
          5    1    3    3  502    0  0.18124458817E+01  0.36794797329E+02  0.39344816353E+03  0.39519702612E+03  0.47000000000E+01 0. -1.
        -13    1    4    4    0    0  0.22727024545E+02  0.30854209189E+02  0.65742166974E+02  0.76095547753E+02  0.00000000000E+00 0.  1.
         14    1    4    4    0    0 -0.67506299310E+02  0.65846403453E+02  0.15773429288E+03  0.18377419962E+03  0.00000000000E+00 0. -1.
         -5    1    5    5    0  501  0.45865116768E+01 -0.57253084323E+02  0.10303653137E+02  0.58542352377E+02  0.47000000000E+01 0.  1.
         11    1    6    6    0    0 -0.64322596278E+01 -0.55951168051E+02  0.90703279943E+02  0.10676606279E+03  0.00000000000E+00 0. -1.
        -12    1    6    6    0    0  0.44812576834E+02 -0.20291157596E+02  0.21956558997E+03  0.22500876965E+03  0.00000000000E+00 0.  1.
<mgrwt>
<rscale>  2 0.22146272E+03</rscale>
<asrwt>0</asrwt>
<pdfrwt beam="1">  1        2 0.15252930E+00 0.22146272E+03</pdfrwt>
<pdfrwt beam="2">  1       -2 0.82989863E-02 0.22146272E+03</pdfrwt>
<totfact> 0.23641168E+03</totfact>
</mgrwt>
</event>
<event>
12    1  0.4154313E-002  0.1806749E+03  0.7546771E-02  0.1167152E+00
         -2   -1    0    0    0  501 -0.00000000000E+00  0.00000000000E+00  0.31012025191E+02  0.31012025191E+02  0.00000000000E+00 0. -1.
          2   -1    0    0  502    0  0.00000000000E+00 -0.00000000000E+00 -0.10537205941E+04  0.10537205941E+04  0.00000000000E+00 0.  1.
          6    2    1    2  502    0  0.40571383926E+02  0.28358717048E+02 -0.52963536904E+03  0.55967815356E+03  0.17399930290E+03 0.  0.
         24    2    3    3    0    0  0.16008323513E+02 -0.35137987852E+02 -0.42837851146E+03  0.43757075544E+03  0.80430543446E+02 0.  0.
         -6    2    1    2    0  501 -0.40571383926E+02 -0.28358717048E+02 -0.49307319984E+03  0.52505446571E+03  0.17352451563E+03 0.  0.
        -24    2    5    5    0    0 -0.15400996019E+01  0.25015689993E+02 -0.41107268020E+03  0.41961043456E+03  0.80399077915E+02 0.  0.
          5    1    3    3  502    0  0.24563060413E+02  0.63496704901E+02 -0.10125685758E+03  0.12210739813E+03  0.47000000000E+01 0. -1.
        -11    1    4    4    0    0  0.39582296320E+02 -0.47993397394E+02 -0.31084830219E+03  0.31701228896E+03  0.00000000000E+00 0.  1.
         12    1    4    4    0    0 -0.23573972807E+02  0.12855409542E+02 -0.11753020927E+03  0.12055846648E+03  0.00000000000E+00 0. -1.
         -5    1    5    5    0  501 -0.39031284324E+02 -0.53374407041E+02 -0.82000519646E+02  0.10544403115E+03  0.47000000000E+01 0.  1.
         13    1    6    6    0    0 -0.30347605251E+02  0.86032133846E+01 -0.68233301281E+02  0.75171642451E+02  0.00000000000E+00 0. -1.
        -14    1    6    6    0    0  0.28807505649E+02  0.16412476608E+02 -0.34283937892E+03  0.34443879210E+03  0.00000000000E+00 0.  1.
<mgrwt>
<rscale>  2 0.18067487E+03</rscale>
<asrwt>0</asrwt>
<pdfrwt beam="2">  1        2 0.16211084E+00 0.18067487E+03</pdfrwt>
<pdfrwt beam="1">  1       -2 0.47710815E-02 0.18067487E+03</pdfrwt>
<totfact> 0.50528781E+03</totfact>
</mgrwt>
</event>
<event>
11    1  0.4154313E-002  0.1849382E+03  0.7546771E-02  0.1163108E+00
         -1   -1    0    0    0  501 -0.00000000000E+00  0.00000000000E+00  0.19769377207E+03  0.19769377207E+03  0.00000000000E+00 0.  1.
          1   -1    0    0  502    0  0.00000000000E+00 -0.00000000000E+00 -0.17329202624E+03  0.17329202624E+03  0.00000000000E+00 0. -1.
          6    2    1    2  502    0  0.49872827756E+02 -0.45498792526E+02  0.46728926231E+01  0.18517290843E+03  0.17236510964E+03 0.  0.
         -6    2    1    2    0  501 -0.49872827756E+02  0.45498792526E+02  0.19728853209E+02  0.18581288988E+03  0.17198768365E+03 0.  0.
        -24    2    4    4    0    0 -0.40551014171E+02 -0.17861745022E+02 -0.39587878580E+02  0.98394250009E+02  0.78427046475E+02 0.  0.
          5    1    3    3  502    0  0.28663669365E+02  0.11259065566E+02 -0.71924991503E+02  0.78381546946E+02  0.47000000000E+01 0. -1.
        -13    1    3    3    0    0  0.19498084402E+02 -0.36858005972E+01  0.30964851000E+02  0.36777471621E+02  0.00000000000E+00 0.  1.
         14    1    3    3    0    0  0.17110739890E+01 -0.53072057494E+02  0.45633033127E+02  0.70013889859E+02  0.00000000000E+00 0. -1.
         -5    1    4    4    0  501 -0.93218135851E+01  0.63360537548E+02  0.59316731788E+02  0.87418639871E+02  0.47000000000E+01 0.  1.
         13    1    5    5    0    0 -0.71414793600E+01  0.22807676490E+02 -0.39021165533E+02  0.45758520451E+02  0.00000000000E+00 0. -1.
        -14    1    5    5    0    0 -0.33409534811E+02 -0.40669421512E+02 -0.56671304716E+00  0.52635729558E+02  0.00000000000E+00 0.  1.
<mgrwt>
<rscale>  2 0.18493816E+03</rscale>
<asrwt>0</asrwt>
<pdfrwt beam="2">  1        1 0.26660312E-01 0.18493816E+03</pdfrwt>
<pdfrwt beam="1">  1       -1 0.30414427E-01 0.18493816E+03</pdfrwt>
<totfact> 0.17370953E+03</totfact>
</mgrwt>
</event>
<event>
12    1  0.4154313E-002  0.1805680E+03  0.7546771E-02  0.1167254E+00
         -1   -1    0    0    0  501 -0.00000000000E+00  0.00000000000E+00  0.18208789562E+03  0.18208789562E+03  0.00000000000E+00 0. -1.
          1   -1    0    0  502    0  0.00000000000E+00 -0.00000000000E+00 -0.19198318249E+03  0.19198318249E+03  0.00000000000E+00 0.  1.
          6    2    1    2  502    0 -0.34994833123E+01 -0.34107553300E+02 -0.53487168359E+02  0.18942328513E+03  0.17845092377E+03 0.  0.
         24    2    3    3    0    0 -0.52970299309E+01 -0.43206362865E+02 -0.10335411060E+03  0.13848389529E+03  0.81245730710E+02 0.  0.
         -6    2    1    2    0  501  0.34994833123E+01  0.34107553300E+02  0.43591881484E+02  0.18464779298E+03  0.17612207058E+03 0.  0.
        -24    2    5    5    0    0  0.53385050064E+02  0.17326305597E+02  0.74263732098E+02  0.12354924583E+03  0.81235151279E+02 0.  0.
          5    1    3    3  502    0  0.17975466186E+01  0.90988095645E+01  0.49866942237E+02  0.50939389841E+02  0.47000000000E+01 0. -1.
        -13    1    4    4    0    0  0.93875240287E+01  0.18747604518E+02 -0.53991650488E+02  0.57919742791E+02  0.00000000000E+00 0.  1.
         14    1    4    4    0    0 -0.14684553960E+02 -0.61953967383E+02 -0.49362460107E+02  0.80564152495E+02  0.00000000000E+00 0. -1.
         -5    1    5    5    0  501 -0.49885566752E+02  0.16781247704E+02 -0.30671850614E+02  0.61098547157E+02  0.47000000000E+01 0.  1.
         11    1    6    6    0    0  0.46118280567E+02  0.48370372197E+02  0.49029084919E+02  0.82888116621E+02  0.00000000000E+00 0. -1.
        -12    1    6    6    0    0  0.72667694965E+01 -0.31044066601E+02  0.25234647179E+02  0.40661129206E+02  0.00000000000E+00 0.  1.
<mgrwt>
<rscale>  2 0.18056804E+03</rscale>
<asrwt>0</asrwt>
<pdfrwt beam="2">  1        1 0.29535874E-01 0.18056804E+03</pdfrwt>
<pdfrwt beam="1">  1       -1 0.28013523E-01 0.18056804E+03</pdfrwt>
<totfact> 0.17529378E+03</totfact>
</mgrwt>
</event>
<event>
12    1  0.4154313E-002  0.2423644E+03  0.7546771E-02  0.1118228E+00
         -2   -1    0    0    0  501 -0.00000000000E+00  0.00000000000E+00  0.87636390620E+02  0.87636390620E+02  0.00000000000E+00 0. -1.
          2   -1    0    0  502    0  0.00000000000E+00 -0.00000000000E+00 -0.70189320260E+03  0.70189320260E+03  0.00000000000E+00 0.  1.
          6    2    1    2  502    0  0.16580801181E+03 -0.27527699463E+01 -0.22076050996E+03  0.32622145251E+03  0.17373934154E+03 0.  0.
         24    2    3    3    0    0  0.11758908818E+03 -0.29700722740E+02 -0.61862904781E+02  0.15793064561E+03  0.80035887235E+02 0.  0.
         -6    2    1    2    0  501 -0.16580801181E+03  0.27527699463E+01 -0.39349630202E+03  0.46330814070E+03  0.17976434301E+03 0.  0.
        -24    2    5    5    0    0 -0.46720439637E+02 -0.57085664491E+02 -0.20448461889E+03  0.23198586672E+03  0.81005619711E+02 0.  0.
          5    1    3    3  502    0  0.48218923634E+02  0.26947952793E+02 -0.15889760518E+03  0.16829080690E+03  0.47000000000E+01 0. -1.
        -11    1    4    4    0    0 -0.47892072483E+00 -0.13928219127E+02  0.11470569673E+02  0.18049892568E+02  0.00000000000E+00 0.  1.
         12    1    4    4    0    0  0.11806800890E+03 -0.15772503613E+02 -0.73333474454E+02  0.13988075304E+03  0.00000000000E+00 0. -1.
         -5    1    5    5    0  501 -0.11908757218E+03  0.59838434437E+02 -0.18901168313E+03  0.23132227399E+03  0.47000000000E+01 0.  1.
         13    1    6    6    0    0 -0.32659753450E+02 -0.12417142296E+02 -0.17217613826E+02  0.38952421543E+02  0.00000000000E+00 0. -1.
        -14    1    6    6    0    0 -0.14060686187E+02 -0.44668522194E+02 -0.18726700506E+03  0.19303344517E+03  0.00000000000E+00 0.  1.
<mgrwt>
<rscale>  2 0.24236442E+03</rscale>
<asrwt>0</asrwt>
<pdfrwt beam="2">  1        2 0.10798357E+00 0.24236442E+03</pdfrwt>
<pdfrwt beam="1">  1       -2 0.13482522E-01 0.24236442E+03</pdfrwt>
<totfact> 0.17047785E+03</totfact>
</mgrwt>
</event>
<event>
12    1  0.4154313E-002  0.1756724E+03  0.7546771E-02  0.1172058E+00
          2   -1    0    0  502    0  0.00000000000E+00  0.00000000000E+00  0.26070236388E+04  0.26070236388E+04  0.00000000000E+00 0.  1.
         -2   -1    0    0    0  501 -0.00000000000E+00 -0.00000000000E+00 -0.17146851345E+02  0.17146851345E+02  0.00000000000E+00 0. -1.
          6    2    1    2  502    0  0.27858619231E+02  0.32516952996E+02  0.20363494885E+04  0.20441092289E+04  0.17271318863E+03 0.  0.
         24    2    3    3    0    0 -0.21327792840E+02  0.77387501651E+02  0.12713801808E+04  0.12762337175E+04  0.76949577386E+02 0.  0.
         -6    2    1    2    0  501 -0.27858619231E+02 -0.32516952996E+02  0.55352729888E+03  0.58006126116E+03  0.16806290843E+03 0.  0.
        -24    2    5    5    0    0 -0.26368731448E+02  0.18182229688E+02  0.49487120448E+03  0.50237436200E+03  0.80352891022E+02 0.  0.
          5    1    3    3  502    0  0.49186412071E+02 -0.44870548655E+02  0.76496930777E+03  0.76787551146E+03  0.47000000000E+01 0. -1.
        -13    1    4    4    0    0 -0.49037365616E+00  0.33583726702E+02  0.99923555818E+03  0.99979988392E+03  0.00000000000E+00 0.  1.
         14    1    4    4    0    0 -0.20837419184E+02  0.43803774949E+02  0.27214462258E+03  0.27643383356E+03  0.00000000000E+00 0. -1.
         -5    1    5    5    0  501 -0.14898877823E+01 -0.50699182684E+02  0.58656094407E+02  0.77686899163E+02  0.47000000000E+01 0.  1.
         11    1    6    6    0    0 -0.10565944222E+02  0.44294608526E+02  0.16737826777E+03  0.17346220350E+03  0.00000000000E+00 0. -1.
        -12    1    6    6    0    0 -0.15802787227E+02 -0.26112378838E+02  0.32749293671E+03  0.32891215850E+03  0.00000000000E+00 0.  1.
<mgrwt>
<rscale>  2 0.17567236E+03</rscale>
<asrwt>0</asrwt>
<pdfrwt beam="1">  1        2 0.40108025E+00 0.17567236E+03</pdfrwt>
<pdfrwt beam="2">  1       -2 0.26379792E-02 0.17567236E+03</pdfrwt>
<totfact> 0.18174485E+03</totfact>
</mgrwt>
</event>
<event>
11    1  0.4154313E-002  0.2840387E+03  0.7546771E-02  0.1093503E+00
         -1   -1    0    0    0  501 -0.00000000000E+00  0.00000000000E+00  0.49444600195E+02  0.49444600195E+02  0.00000000000E+00 0.  1.
          1   -1    0    0  502    0  0.00000000000E+00 -0.00000000000E+00 -0.19474978409E+04  0.19474978409E+04  0.00000000000E+00 0. -1.
          6    2    1    2  502    0  0.17567049033E+03  0.14130205755E+03 -0.13520317550E+04  0.13816135935E+04  0.17332011595E+03 0.  0.
         -6    2    1    2    0  501 -0.17567049033E+03 -0.14130205755E+03 -0.54602148574E+03  0.61532884762E+03  0.17223163237E+03 0.  0.
        -24    2    4    4    0    0 -0.89261915877E+02 -0.10525119100E+03 -0.46428772585E+03  0.49095600403E+03  0.80182309066E+02 0.  0.
          5    1    3    3  502    0 -0.64563792499E+01 -0.11162469951E+02 -0.39945527421E+02  0.42237669554E+02  0.47000000000E+01 0. -1.
        -13    1    3    3    0    0  0.59063232357E+02  0.69476407801E+01 -0.14323879623E+03  0.15509380347E+03  0.00000000000E+00 0.  1.
         14    1    3    3    0    0  0.12306363722E+03  0.14551688672E+03 -0.11688474314E+04  0.11842821205E+04  0.00000000000E+00 0. -1.
         -5    1    4    4    0  501 -0.86408574450E+02 -0.36050866546E+02 -0.81733759888E+02  0.12437284359E+03  0.47000000000E+01 0.  1.
         11    1    5    5    0    0 -0.99182895648E+02 -0.67384367346E+02 -0.36684708327E+03  0.38594647589E+03  0.00000000000E+00 0. -1.
        -12    1    5    5    0    0  0.99209797705E+01 -0.37866823655E+02 -0.97440642583E+02  0.10500952814E+03  0.00000000000E+00 0.  1.
<mgrwt>
<rscale>  2 0.28403868E+03</rscale>
<asrwt>0</asrwt>
<pdfrwt beam="2">  1        1 0.29961501E+00 0.28403868E+03</pdfrwt>
<pdfrwt beam="1">  1       -1 0.76068627E-02 0.28403868E+03</pdfrwt>
<totfact> 0.33900450E+02</totfact>
</mgrwt>
</event>
<event>
12    1  0.4154313E-002  0.1869791E+03  0.7546771E-02  0.1161215E+00
          2   -1    0    0  502    0  0.00000000000E+00  0.00000000000E+00  0.43756046077E+03  0.43756046077E+03  0.00000000000E+00 0. -1.
         -2   -1    0    0    0  501 -0.00000000000E+00 -0.00000000000E+00 -0.81342693520E+02  0.81342693520E+02  0.00000000000E+00 0.  1.
          6    2    1    2  502    0  0.68854869644E+02  0.26272127264E+02  0.14296382513E+03  0.23485749444E+03  0.17113786738E+03 0.  0.
         24    2    3    3    0    0  0.68799800360E+02 -0.32382001252E+02  0.50433385240E+02  0.12520220669E+03  0.85732489050E+02 0.  0.
         -6    2    1    2    0  501 -0.68854869644E+02 -0.26272127264E+02  0.21325394212E+03  0.28404565985E+03  0.17254992120E+03 0.  0.
        -24    2    5    5    0    0  0.15651424533E+02 -0.45205615440E+02  0.14851840391E+03  0.17582102939E+03  0.81035815051E+02 0.  0.
          5    1    3    3  502    0  0.55069283521E-01  0.58654128516E+02  0.92530439889E+02  0.10965528775E+03  0.47000000000E+01 0. -1.
        -13    1    4    4    0    0  0.36644223397E+02 -0.56421690899E+02  0.51988791771E+02  0.85023765984E+02  0.00000000000E+00 0.  1.
         14    1    4    4    0    0  0.32155576963E+02  0.24039689647E+02 -0.15554065305E+01  0.40178440707E+02  0.00000000000E+00 0. -1.
         -5    1    5    5    0  501 -0.84506294177E+02  0.18933488176E+02  0.64735538213E+02  0.10822463046E+03  0.47000000000E+01 0.  1.
         13    1    6    6    0    0 -0.15206532161E+02 -0.61435054520E+01  0.11416689950E+03  0.11533890160E+03  0.00000000000E+00 0. -1.
        -14    1    6    6    0    0  0.30857956694E+02 -0.39062109988E+02  0.34351504405E+02  0.60482127798E+02  0.00000000000E+00 0.  1.
<mgrwt>
<rscale>  2 0.18697914E+03</rscale>
<asrwt>0</asrwt>
<pdfrwt beam="1">  1        2 0.67316993E-01 0.18697914E+03</pdfrwt>
<pdfrwt beam="2">  1       -2 0.12514261E-01 0.18697914E+03</pdfrwt>
<totfact> 0.32815971E+03</totfact>
</mgrwt>
</event>
<event>
12    1  0.4154313E-002  0.1770761E+03  0.7546771E-02  0.1170663E+00
         -1   -1    0    0    0  501 -0.00000000000E+00  0.00000000000E+00  0.12002443642E+03  0.12002443642E+03  0.00000000000E+00 0. -1.
          1   -1    0    0  502    0  0.00000000000E+00 -0.00000000000E+00 -0.30022101552E+03  0.30022101552E+03  0.00000000000E+00 0.  1.
          6    2    1    2  502    0  0.36573395051E+02 -0.12526697763E+02 -0.14320502193E+02  0.17749716870E+03  0.17264309060E+03 0.  0.
         24    2    3    3    0    0 -0.33555976300E+02  0.13131606381E+02  0.27199648466E+02  0.91925618470E+02  0.80075313442E+02 0.  0.
         -6    2    1    2    0  501 -0.36573395051E+02  0.12526697763E+02 -0.16587607690E+03  0.24274828324E+03  0.17296625320E+03 0.  0.
        -24    2    5    5    0    0 -0.49718824862E+02 -0.40619867781E+02 -0.50311064249E+02  0.11478453094E+03  0.80761068301E+02 0.  0.
          5    1    3    3  502    0  0.70129371351E+02 -0.25658304144E+02 -0.41520150659E+02  0.85571550228E+02  0.47000000000E+01 0. -1.
        -11    1    4    4    0    0  0.10286869717E+01 -0.71598588637E+01 -0.25044118326E+02  0.26067789292E+02  0.00000000000E+00 0.  1.
         12    1    4    4    0    0 -0.34584663272E+02  0.20291465244E+02  0.52243766792E+02  0.65857829178E+02  0.00000000000E+00 0. -1.
         -5    1    5    5    0  501  0.13145429811E+02  0.53146565544E+02 -0.11556501265E+03  0.12796375230E+03  0.47000000000E+01 0.  1.
         13    1    6    6    0    0 -0.39127522467E+02  0.16418332969E+02 -0.85029745175E+01  0.43276151025E+02  0.00000000000E+00 0. -1.
        -14    1    6    6    0    0 -0.10591302395E+02 -0.57038200750E+02 -0.41808089731E+02  0.71508379916E+02  0.00000000000E+00 0.  1.
<mgrwt>
<rscale>  2 0.17707615E+03</rscale>
<asrwt>0</asrwt>
<pdfrwt beam="2">  1        1 0.46187848E-01 0.17707615E+03</pdfrwt>
<pdfrwt beam="1">  1       -1 0.18465298E-01 0.17707615E+03</pdfrwt>
<totfact> 0.19843524E+03</totfact>
</mgrwt>
</event>
<event>
12    1  0.4154313E-002  0.1886511E+03  0.7546771E-02  0.1159684E+00
          2   -1    0    0  502    0  0.00000000000E+00  0.00000000000E+00  0.26511363831E+03  0.26511363831E+03  0.00000000000E+00 0.  1.
         -2   -1    0    0    0  501 -0.00000000000E+00 -0.00000000000E+00 -0.20005385899E+03  0.20005385899E+03  0.00000000000E+00 0. -1.
          6    2    1    2  502    0 -0.21737036319E+02  0.70585010717E+02 -0.10096454762E+03  0.21323492134E+03  0.17268627425E+03 0.  0.
         24    2    3    3    0    0  0.17692150952E+02  0.98115949371E+02 -0.37189138856E+02  0.13322238385E+03  0.80158716206E+02 0.  0.
         -6    2    1    2    0  501  0.21737036319E+02 -0.70585010717E+02  0.16602432694E+03  0.25193257596E+03  0.17450273124E+03 0.  0.
        -24    2    5    5    0    0 -0.24995141802E+01 -0.46060570137E+02  0.18820913490E+03  0.21066377091E+03  0.82636083064E+02 0.  0.
          5    1    3    3  502    0 -0.39429187272E+02 -0.27530938654E+02 -0.63775408761E+02  0.80012537485E+02  0.47000000000E+01 0. -1.
        -13    1    4    4    0    0  0.46971173010E+02  0.50474538440E+02 -0.34845571648E+02  0.77254022472E+02  0.00000000000E+00 0.  1.
         14    1    4    4    0    0 -0.29279022057E+02  0.47641410932E+02 -0.23435672076E+01  0.55968361379E+02  0.00000000000E+00 0. -1.
         -5    1    5    5    0  501  0.24236550499E+02 -0.24524440580E+02 -0.22184807960E+02  0.41268805048E+02  0.47000000000E+01 0.  1.
         13    1    6    6    0    0 -0.24300252997E+02 -0.26954499681E+02  0.23077777505E+02  0.43007338483E+02  0.00000000000E+00 0. -1.
        -14    1    6    6    0    0  0.21800738817E+02 -0.19106070456E+02  0.16513135739E+03  0.16765643243E+03  0.00000000000E+00 0.  1.
<mgrwt>
<rscale>  2 0.18865106E+03</rscale>
<asrwt>0</asrwt>
<pdfrwt beam="1">  1        2 0.40786714E-01 0.18865106E+03</pdfrwt>
<pdfrwt beam="2">  1       -2 0.30777517E-01 0.18865106E+03</pdfrwt>
<totfact> 0.12123580E+03</totfact>
</mgrwt>
</event>
<event>
12    1  0.4154313E-002  0.1771651E+03  0.7546771E-02  0.1170575E+00
          2   -1    0    0  502    0  0.00000000000E+00  0.00000000000E+00  0.18845047754E+04  0.18845047754E+04  0.00000000000E+00 0. -1.
         -2   -1    0    0    0  501 -0.00000000000E+00 -0.00000000000E+00 -0.20177969530E+02  0.20177969530E+02  0.00000000000E+00 0.  1.
          6    2    1    2  502    0 -0.20451306581E+02 -0.23731583147E+02  0.13436380688E+04  0.13556947731E+04  0.17766151557E+03 0.  0.
         24    2    3    3    0    0 -0.76088601973E+02 -0.46958243321E+02  0.87601235496E+03  0.88417501259E+03  0.79832668000E+02 0.  0.
         -6    2    1    2    0  501  0.20451306581E+02  0.23731583147E+02  0.52068873709E+03  0.54898797177E+03  0.17114201190E+03 0.  0.
        -24    2    5    5    0    0  0.60922776652E+01  0.27456370001E+02  0.12447370328E+03  0.15246748205E+03  0.83436575760E+02 0.  0.
          5    1    3    3  502    0  0.55637295392E+02  0.23226660173E+02  0.46762571379E+03  0.47151976054E+03  0.47000000000E+01 0. -1.
        -13    1    4    4    0    0 -0.39774000886E+02  0.69670298892E+01  0.56495552567E+03  0.56639673078E+03  0.00000000000E+00 0.  1.
         14    1    4    4    0    0 -0.36314601087E+02 -0.53925273210E+02  0.31105682929E+03  0.31777828181E+03  0.00000000000E+00 0. -1.
         -5    1    5    5    0  501  0.14359028916E+02 -0.37247868540E+01  0.39621503381E+03  0.39652048972E+03  0.47000000000E+01 0.  1.
         11    1    6    6    0    0 -0.15132109795E+02  0.27811947421E+02  0.12718577648E+03  0.13106756618E+03  0.00000000000E+00 0. -1.
        -12    1    6    6    0    0  0.21224387460E+02 -0.35557741971E+00 -0.27120731968E+01  0.21399915873E+02  0.00000000000E+00 0.  1.
<mgrwt>
<rscale>  2 0.17716506E+03</rscale>
<asrwt>0</asrwt>
<pdfrwt beam="1">  1        2 0.28992367E+00 0.17716506E+03</pdfrwt>
<pdfrwt beam="2">  1       -2 0.31043045E-02 0.17716506E+03</pdfrwt>
<totfact> 0.34362663E+03</totfact>
</mgrwt>
</event>
<event>
12    1  0.4154313E-002  0.1879781E+03  0.7546771E-02  0.1160298E+00
         -1   -1    0    0    0  501 -0.00000000000E+00  0.00000000000E+00  0.15929503077E+04  0.15929503077E+04  0.00000000000E+00 0.  1.
          1   -1    0    0  502    0  0.00000000000E+00 -0.00000000000E+00 -0.22283001355E+02  0.22283001355E+02  0.00000000000E+00 0. -1.
          6    2    1    2  502    0  0.75366924270E+02 -0.45029039073E+01  0.84052921901E+03  0.86134466908E+03  0.17240887892E+03 0.  0.
         24    2    3    3    0    0  0.24756131232E+02 -0.56785694790E+02  0.63594366268E+03  0.64415285880E+03  0.81676693327E+02 0.  0.
         -6    2    1    2    0  501 -0.75366924270E+02  0.45029039073E+01  0.73013808734E+03  0.75388863998E+03  0.17188951534E+03 0.  0.
        -24    2    5    5    0    0 -0.40559115365E+02 -0.13914892812E+02  0.17092135171E+03  0.19326733623E+03  0.79369318411E+02 0.  0.
          5    1    3    3  502    0  0.50610793038E+02  0.52282790883E+02  0.20458555634E+03  0.21719181029E+03  0.47000000000E+01 0. -1.
        -11    1    4    4    0    0 -0.12687855932E+02 -0.62540795566E+02  0.35860726781E+03  0.36424099896E+03  0.00000000000E+00 0.  1.
         12    1    4    4    0    0  0.37443987164E+02  0.57551007760E+01  0.27733639487E+03  0.27991185984E+03  0.00000000000E+00 0. -1.
         -5    1    5    5    0  501 -0.34807808905E+02  0.18417796719E+02  0.55921673563E+03  0.56062130374E+03  0.47000000000E+01 0.  1.
         11    1    6    6    0    0 -0.49375757547E+02  0.20114453287E+02  0.12085195555E+03  0.13208993839E+03  0.00000000000E+00 0. -1.
        -12    1    6    6    0    0  0.88166421824E+01 -0.34029346098E+02  0.50069396158E+02  0.61177397843E+02  0.00000000000E+00 0.  1.
<mgrwt>
<rscale>  2 0.18797806E+03</rscale>
<asrwt>0</asrwt>
<pdfrwt beam="2">  1        1 0.34281553E-02 0.18797806E+03</pdfrwt>
<pdfrwt beam="1">  1       -1 0.24506919E+00 0.18797806E+03</pdfrwt>
<totfact> 0.24166075E+02</totfact>
</mgrwt>
</event>
<event>
12    1  0.4154313E-002  0.2080094E+03  0.7546771E-02  0.1143152E+00
         -2   -1    0    0    0  501 -0.00000000000E+00  0.00000000000E+00  0.44419354749E+03  0.44419354749E+03  0.00000000000E+00 0.  1.
          2   -1    0    0  502    0  0.00000000000E+00 -0.00000000000E+00 -0.10409957400E+03  0.10409957400E+03  0.00000000000E+00 0. -1.
          6    2    1    2  502    0 -0.10701407173E+03  0.51413369047E+02  0.99501005808E+02  0.22933424697E+03  0.16911061650E+03 0.  0.
         24    2    3    3    0    0 -0.30262449793E+02  0.62651792329E+02  0.10666669833E+03  0.15129226611E+03  0.81673143087E+02 0.  0.
         -6    2    1    2    0  501  0.10701407173E+03 -0.51413369047E+02  0.24059296768E+03  0.31895887452E+03  0.17249475780E+03 0.  0.
        -24    2    5    5    0    0  0.34302319807E+02  0.15720737359E+02  0.66410386853E+02  0.11857013088E+03  0.90690383878E+02 0.  0.
          5    1    3    3  502    0 -0.76751621937E+02 -0.11238423282E+02 -0.71656925259E+01  0.78041980864E+02  0.47000000000E+01 0. -1.
        -11    1    4    4    0    0  0.24996280501E+02  0.39860359597E+02  0.54043624744E+02  0.71654557996E+02  0.00000000000E+00 0.  1.
         12    1    4    4    0    0 -0.55258730294E+02  0.22791432731E+02  0.52623073589E+02  0.79637708114E+02  0.00000000000E+00 0. -1.
         -5    1    5    5    0  501  0.72711751923E+02 -0.67134106406E+02  0.17418258083E+03  0.20038874363E+03  0.47000000000E+01 0.  1.
         13    1    6    6    0    0 -0.10815678397E+02  0.31566684879E+02  0.62174988804E+02  0.70563189598E+02  0.00000000000E+00 0. -1.
        -14    1    6    6    0    0  0.45117998204E+02 -0.15845947520E+02  0.42353980488E+01  0.48006941283E+02  0.00000000000E+00 0.  1.
<mgrwt>
<rscale>  2 0.20800939E+03</rscale>
<asrwt>0</asrwt>
<pdfrwt beam="2">  1        2 0.16015319E-01 0.20800939E+03</pdfrwt>
<pdfrwt beam="1">  1       -2 0.68337468E-01 0.20800939E+03</pdfrwt>
<totfact> 0.72079912E+02</totfact>
</mgrwt>
</event>
<event>
12    1  0.4154313E-002  0.2031536E+03  0.7546771E-02  0.1147105E+00
          1   -1    0    0  502    0  0.00000000000E+00  0.00000000000E+00  0.53025221101E+03  0.53025221101E+03  0.00000000000E+00 0. -1.
         -1   -1    0    0    0  501 -0.00000000000E+00 -0.00000000000E+00 -0.88563658662E+02  0.88563658662E+02  0.00000000000E+00 0.  1.
          6    2    1    2  502    0 -0.85080088851E+02  0.66336600174E+02  0.32851426253E+03  0.38623982605E+03  0.17210582937E+03 0.  0.
         24    2    3    3    0    0 -0.88627580823E+02  0.37917917877E+02  0.11003748258E+03  0.16584381978E+03  0.78123673806E+02 0.  0.
         -6    2    1    2    0  501  0.85080088851E+02 -0.66336600174E+02  0.11317428982E+03  0.23257604362E+03  0.17217441781E+03 0.  0.
        -24    2    5    5    0    0  0.96597983450E+02  0.10084785492E+02  0.66720205826E+02  0.14228228967E+03  0.79748296429E+02 0.  0.
          5    1    3    3  502    0  0.35474919720E+01  0.28418682297E+02  0.21847677994E+03  0.22039600626E+03  0.47000000000E+01 0. -1.
        -13    1    4    4    0    0 -0.29622542189E+02  0.54613022939E+02  0.47034295549E+02  0.77924978268E+02  0.00000000000E+00 0.  1.
         14    1    4    4    0    0 -0.59005038634E+02 -0.16695105063E+02  0.63003187033E+02  0.87918841516E+02  0.00000000000E+00 0. -1.
         -5    1    5    5    0  501 -0.11517894599E+02 -0.76421385666E+02  0.46454083998E+02  0.90293753954E+02  0.47000000000E+01 0.  1.
         13    1    6    6    0    0  0.75200055555E+02  0.90058848185E+01  0.38204470253E+01  0.75833700505E+02  0.00000000000E+00 0. -1.
        -14    1    6    6    0    0  0.21397927895E+02  0.10789006734E+01  0.62899758801E+02  0.66448589166E+02  0.00000000000E+00 0.  1.
<mgrwt>
<rscale>  2 0.20315361E+03</rscale>
<asrwt>0</asrwt>
<pdfrwt beam="1">  1        1 0.81577262E-01 0.20315361E+03</pdfrwt>
<pdfrwt beam="2">  1       -1 0.13625179E-01 0.20315361E+03</pdfrwt>
<totfact> 0.15559890E+03</totfact>
</mgrwt>
</event>
<event>
12    1  0.4154313E-002  0.2151179E+03  0.7546771E-02  0.1137576E+00
         -2   -1    0    0    0  501 -0.00000000000E+00  0.00000000000E+00  0.29058983438E+02  0.29058983438E+02  0.00000000000E+00 0. -1.
          2   -1    0    0  502    0  0.00000000000E+00 -0.00000000000E+00 -0.18204355729E+04  0.18204355729E+04  0.00000000000E+00 0.  1.
          6    2    1    2  502    0 -0.34450955702E+02 -0.12003276919E+03 -0.55573395946E+03  0.59464058562E+03  0.17077019163E+03 0.  0.
         24    2    3    3    0    0 -0.37417678332E+02 -0.15343991731E+03 -0.47807460343E+03  0.50991807051E+03  0.80729308859E+02 0.  0.
         -6    2    1    2    0  501  0.34450955702E+02  0.12003276919E+03 -0.12356426300E+04  0.12548539707E+04  0.17958575863E+03 0.  0.
        -24    2    5    5    0    0  0.51037809829E+02  0.10009221336E+03 -0.49936695802E+03  0.51810658887E+03  0.80273093014E+02 0.  0.
          5    1    3    3  502    0  0.29667226309E+01  0.33407148124E+02 -0.77659356026E+02  0.84722515114E+02  0.47000000000E+01 0. -1.
        -13    1    4    4    0    0 -0.44212775874E+01 -0.11818784278E+03 -0.40816216377E+03  0.42495207472E+03  0.00000000000E+00 0.  1.
         14    1    4    4    0    0 -0.32996400745E+02 -0.35252074527E+02 -0.69912439664E+02  0.84965995789E+02  0.00000000000E+00 0. -1.
         -5    1    5    5    0  501 -0.16586854127E+02  0.19940555829E+02 -0.73627567195E+03  0.73674738181E+03  0.47000000000E+01 0.  1.
         13    1    6    6    0    0  0.36082738597E+02 -0.56627987268E+00 -0.14436092310E+03  0.14880309411E+03  0.00000000000E+00 0. -1.
        -14    1    6    6    0    0  0.14955071232E+02  0.10065849323E+03 -0.35500603492E+03  0.36930349476E+03  0.00000000000E+00 0.  1.
<mgrwt>
<rscale>  2 0.21511793E+03</rscale>
<asrwt>0</asrwt>
<pdfrwt beam="2">  1        2 0.28006702E+00 0.21511793E+03</pdfrwt>
<pdfrwt beam="1">  1       -2 0.44706128E-02 0.21511793E+03</pdfrwt>
<totfact> 0.21486590E+03</totfact>
</mgrwt>
</event>
<event>
12    1  0.4154313E-002  0.2451777E+03  0.7546771E-02  0.1116391E+00
         -1   -1    0    0    0  501 -0.00000000000E+00  0.00000000000E+00  0.10821770933E+04  0.10821770933E+04  0.00000000000E+00 0.  1.
          1   -1    0    0  502    0  0.00000000000E+00 -0.00000000000E+00 -0.56210509858E+02  0.56210509858E+02  0.00000000000E+00 0. -1.
          6    2    1    2  502    0 -0.12956754492E+03 -0.11683097582E+03  0.57301023306E+03  0.62292536559E+03  0.17104987081E+03 0.  0.
         24    2    3    3    0    0 -0.55796669142E+02 -0.11516247641E+03  0.48822514686E+03  0.51042857966E+03  0.76143789295E+02 0.  0.
         -6    2    1    2    0  501  0.12956754492E+03  0.11683097582E+03  0.45295635037E+03  0.51546223755E+03  0.17347806026E+03 0.  0.
        -24    2    5    5    0    0  0.13844912775E+03  0.47145678201E+02  0.25001251167E+03  0.30065251970E+03  0.80590357131E+02 0.  0.
          5    1    3    3  502    0 -0.73770875779E+02 -0.16684994043E+01  0.84785086203E+02  0.11249678594E+03  0.47000000000E+01 0. -1.
        -11    1    4    4    0    0 -0.69713462816E+02 -0.62939587082E+02  0.28148161401E+03  0.29673769148E+03  0.00000000000E+00 0.  1.
         12    1    4    4    0    0  0.13916793674E+02 -0.52222889331E+02  0.20674353285E+03  0.21369088818E+03  0.00000000000E+00 0. -1.
         -5    1    5    5    0  501 -0.88815828250E+01  0.69685297616E+02  0.20294383870E+03  0.21480971785E+03  0.47000000000E+01 0.  1.
         11    1    6    6    0    0  0.14015444182E+03  0.48228963463E+02  0.19176408446E+03  0.24236906685E+03  0.00000000000E+00 0. -1.
        -12    1    6    6    0    0 -0.17053140732E+01 -0.10832852614E+01  0.58248427213E+02  0.58283452847E+02  0.00000000000E+00 0.  1.
<mgrwt>
<rscale>  2 0.24517773E+03</rscale>
<asrwt>0</asrwt>
<pdfrwt beam="2">  1        1 0.86477716E-02 0.24517773E+03</pdfrwt>
<pdfrwt beam="1">  1       -1 0.16648877E+00 0.24517773E+03</pdfrwt>
<totfact> 0.22360143E+02</totfact>
</mgrwt>
</event>
<event>
12    1  0.4154313E-002  0.1956685E+03  0.7546771E-02  0.1153446E+00
         -1   -1    0    0    0  501 -0.00000000000E+00  0.00000000000E+00  0.37622450873E+03  0.37622450873E+03  0.00000000000E+00 0.  1.
          1   -1    0    0  502    0  0.00000000000E+00 -0.00000000000E+00 -0.10196001942E+03  0.10196001942E+03  0.00000000000E+00 0. -1.
          6    2    1    2  502    0 -0.92844724374E+02 -0.70166099776E+01  0.12730700934E+03  0.23416171781E+03  0.17307587874E+03 0.  0.
         24    2    3    3    0    0 -0.28853962204E+02 -0.65998526962E+02  0.82499212024E+02  0.13616420318E+03  0.80908674107E+02 0.  0.
         -6    2    1    2    0  501  0.92844724374E+02  0.70166099776E+01  0.14695747996E+03  0.24402281033E+03  0.17111766533E+03 0.  0.
        -24    2    5    5    0    0 -0.17658765060E+01  0.42035166278E+02  0.47362797839E+02  0.10218256290E+03  0.80174609562E+02 0.  0.
          5    1    3    3  502    0 -0.63990762171E+02  0.58981916985E+02  0.44807797318E+02  0.97997514636E+02  0.47000000000E+01 0. -1.
        -11    1    4    4    0    0 -0.30295832400E+02 -0.18228478574E+02  0.80964258441E+02  0.88347756264E+02  0.00000000000E+00 0.  1.
         12    1    4    4    0    0  0.14418701970E+01 -0.47770048389E+02  0.15349535832E+01  0.47816446911E+02  0.00000000000E+00 0. -1.
         -5    1    5    5    0  501  0.94610600880E+02 -0.35018556300E+02  0.99594682124E+02  0.14184024743E+03  0.47000000000E+01 0.  1.
         13    1    6    6    0    0  0.27814429415E+02  0.49598971581E+02  0.43102054042E+02  0.71354660172E+02  0.00000000000E+00 0. -1.
        -14    1    6    6    0    0 -0.29580305921E+02 -0.75638053036E+01  0.42607437962E+01  0.30827902730E+02  0.00000000000E+00 0.  1.
<mgrwt>
<rscale>  2 0.19566847E+03</rscale>
<asrwt>0</asrwt>
<pdfrwt beam="2">  1        1 0.15686157E-01 0.19566847E+03</pdfrwt>
<pdfrwt beam="1">  1       -1 0.57880693E-01 0.19566847E+03</pdfrwt>
<totfact> 0.10875377E+03</totfact>
</mgrwt>
</event>
<event>
12    1  0.4154313E-002  0.2353722E+03  0.7546771E-02  0.1122915E+00
         -1   -1    0    0    0  501 -0.00000000000E+00  0.00000000000E+00  0.41461932679E+03  0.41461932679E+03  0.00000000000E+00 0.  1.
          1   -1    0    0  502    0  0.00000000000E+00 -0.00000000000E+00 -0.17120194763E+03  0.17120194763E+03  0.00000000000E+00 0. -1.
          6    2    1    2  502    0  0.91610604531E+02 -0.13286706418E+03 -0.15284982237E+02  0.23647980005E+03  0.17217115189E+03 0.  0.
         24    2    3    3    0    0  0.94123067904E+02 -0.15907081723E+03 -0.32115881775E+02  0.20488362425E+03  0.82360140971E+02 0.  0.
         -6    2    1    2    0  501 -0.91610604531E+02  0.13286706418E+03  0.25870236139E+03  0.34934147437E+03  0.17048869264E+03 0.  0.
        -24    2    5    5    0    0 -0.19055050965E+02  0.41096576252E+02  0.37757673466E+02  0.99291927416E+02  0.79882547515E+02 0.  0.
          5    1    3    3  502    0 -0.25124633731E+01  0.26203753044E+02  0.16830899539E+02  0.31596175798E+02  0.47000000000E+01 0. -1.
        -13    1    4    4    0    0  0.65486234378E+02 -0.64881822928E+02  0.18750705265E+02  0.94072773890E+02  0.00000000000E+00 0.  1.
         14    1    4    4    0    0  0.28636833526E+02 -0.94188994298E+02 -0.50866587041E+02  0.11081085036E+03  0.00000000000E+00 0. -1.
         -5    1    5    5    0  501 -0.72555553566E+02  0.91770487929E+02  0.22094468793E+03  0.25004954695E+03  0.47000000000E+01 0.  1.
         11    1    6    6    0    0 -0.44390462946E+01 -0.10129374233E+02 -0.18664890830E+02  0.21695333693E+02  0.00000000000E+00 0. -1.
        -12    1    6    6    0    0 -0.14616004671E+02  0.51225950486E+02  0.56422564296E+02  0.77596593723E+02  0.00000000000E+00 0.  1.
<mgrwt>
<rscale>  2 0.23537217E+03</rscale>
<asrwt>0</asrwt>
<pdfrwt beam="2">  1        1 0.26338761E-01 0.23537217E+03</pdfrwt>
<pdfrwt beam="1">  1       -1 0.63787588E-01 0.23537217E+03</pdfrwt>
<totfact> 0.46351449E+02</totfact>
</mgrwt>
</event>
<event>
12    1  0.4154313E-002  0.1761588E+03  0.7546771E-02  0.1171573E+00
          2   -1    0    0  502    0  0.00000000000E+00  0.00000000000E+00  0.27585784360E+03  0.27585784360E+03  0.00000000000E+00 0.  1.
         -2   -1    0    0    0  501 -0.00000000000E+00 -0.00000000000E+00 -0.12804948370E+03  0.12804948370E+03  0.00000000000E+00 0. -1.
          6    2    1    2  502    0  0.23220618926E+02  0.18457663470E+02  0.14416130974E+03  0.22734632496E+03  0.17327430786E+03 0.  0.
         24    2    3    3    0    0  0.22430733844E+02 -0.46431913862E+02  0.33779409173E+02  0.99215395294E+02  0.77740502530E+02 0.  0.
         -6    2    1    2    0  501 -0.23220618926E+02 -0.18457663470E+02  0.36470501664E+01  0.17656100234E+03  0.17401322963E+03 0.  0.
        -24    2    5    5    0    0 -0.72582540225E+02 -0.24845028340E+01  0.35680872564E+02  0.11540548818E+03  0.82285503792E+02 0.  0.
          5    1    3    3  502    0  0.78988508188E+00  0.64889577332E+02  0.11038190056E+03  0.12813092966E+03  0.47000000000E+01 0. -1.
        -11    1    4    4    0    0  0.14921567462E+02  0.31858573694E+01  0.45237343084E+02  0.47741177949E+02  0.00000000000E+00 0.  1.
         12    1    4    4    0    0  0.75091663821E+01 -0.49617771232E+02 -0.11457933911E+02  0.51474217345E+02  0.00000000000E+00 0. -1.
         -5    1    5    5    0  501  0.49361921299E+02 -0.15973160636E+02 -0.32033822398E+02  0.61155514162E+02  0.47000000000E+01 0.  1.
         13    1    6    6    0    0 -0.22768113112E+01 -0.66755455199E+00 -0.23420598709E+02  0.23540474565E+02  0.00000000000E+00 0. -1.
        -14    1    6    6    0    0 -0.70305728914E+02 -0.18169482820E+01  0.59101471274E+02  0.91865013612E+02  0.00000000000E+00 0.  1.
<mgrwt>
<rscale>  2 0.17615877E+03</rscale>
<asrwt>0</asrwt>
<pdfrwt beam="1">  1        2 0.42439668E-01 0.17615877E+03</pdfrwt>
<pdfrwt beam="2">  1       -2 0.19699921E-01 0.17615877E+03</pdfrwt>
<totfact> 0.25372848E+03</totfact>
</mgrwt>
</event>
<event>
12    1  0.4154313E-002  0.2111735E+03  0.7546771E-02  0.1140640E+00
          1   -1    0    0  502    0  0.00000000000E+00  0.00000000000E+00  0.12861907677E+04  0.12861907677E+04  0.00000000000E+00 0.  1.
         -1   -1    0    0    0  501 -0.00000000000E+00 -0.00000000000E+00 -0.57433071207E+02  0.57433071207E+02  0.00000000000E+00 0. -1.
          6    2    1    2  502    0  0.10645937164E+03  0.58328938439E+02  0.10371177572E+04  0.10583769853E+04  0.17266365561E+03 0.  0.
         24    2    3    3    0    0  0.13841364055E+03  0.65477800596E+02  0.94484707887E+03  0.96035581616E+03  0.78112821707E+02 0.  0.
         -6    2    1    2    0  501 -0.10645937164E+03 -0.58328938439E+02  0.19163993937E+03  0.28524685362E+03  0.17292784123E+03 0.  0.
        -24    2    5    5    0    0 -0.14113105088E+03 -0.67194094968E+02  0.16026078323E+03  0.23741947881E+03  0.79066240293E+02 0.  0.
          5    1    3    3  502    0 -0.31954268913E+02 -0.71488621572E+01  0.92270678298E+02  0.98021169170E+02  0.47000000000E+01 0. -1.
        -11    1    4    4    0    0 -0.58410201624E+01  0.16491627104E+02  0.15211463879E+03  0.15311745366E+03  0.00000000000E+00 0.  1.
         12    1    4    4    0    0  0.14425466072E+03  0.48986173492E+02  0.79273244008E+03  0.80723836250E+03  0.00000000000E+00 0. -1.
         -5    1    5    5    0  501  0.34671679242E+02  0.88651565290E+01  0.31379156143E+02  0.47827374818E+02  0.47000000000E+01 0.  1.
         11    1    6    6    0    0 -0.60795297760E+02 -0.81672832044E+01  0.18414167756E+02  0.64045720535E+02  0.00000000000E+00 0. -1.
        -12    1    6    6    0    0 -0.80335753124E+02 -0.59026811763E+02  0.14184661547E+03  0.17337375827E+03  0.00000000000E+00 0.  1.
<mgrwt>
<rscale>  2 0.21117345E+03</rscale>
<asrwt>0</asrwt>
<pdfrwt beam="1">  1        1 0.19787548E+00 0.21117345E+03</pdfrwt>
<pdfrwt beam="2">  1       -1 0.88358581E-02 0.21117345E+03</pdfrwt>
<totfact> 0.74198265E+02</totfact>
</mgrwt>
</event>
<event>
12    1  0.4154313E-002  0.1878143E+03  0.7546771E-02  0.1160448E+00
         -1   -1    0    0    0  501 -0.00000000000E+00  0.00000000000E+00  0.41996788458E+02  0.41996788458E+02  0.00000000000E+00 0.  1.
          1   -1    0    0  502    0  0.00000000000E+00 -0.00000000000E+00 -0.85289988856E+03  0.85289988856E+03  0.00000000000E+00 0. -1.
          6    2    1    2  502    0  0.54577233318E+01 -0.75065174622E+02 -0.45964188358E+03  0.49635832678E+03  0.17157027782E+03 0.  0.
         24    2    3    3    0    0 -0.40392882255E+02 -0.88937810049E+02 -0.22961351977E+03  0.26134797338E+03  0.77710203542E+02 0.  0.
         -6    2    1    2    0  501 -0.54577233318E+01  0.75065174622E+02 -0.35126121652E+03  0.39853835024E+03  0.17257985745E+03 0.  0.
        -24    2    5    5    0    0 -0.70348972547E+02  0.46614024890E+02 -0.21263485104E+03  0.24278308917E+03  0.81290855911E+02 0.  0.
          5    1    3    3  502    0  0.45850605586E+02  0.13872635427E+02 -0.23002836381E+03  0.23501035340E+03  0.47000000000E+01 0. -1.
        -11    1    4    4    0    0  0.96630256386E+01  0.99610734686E+01 -0.22419299259E+02  0.26367063325E+02  0.00000000000E+00 0.  1.
         12    1    4    4    0    0 -0.50055907893E+02 -0.98898883517E+02 -0.20719422051E+03  0.23498091005E+03  0.00000000000E+00 0. -1.
         -5    1    5    5    0  501  0.64891249215E+02  0.28451149732E+02 -0.13862636547E+03  0.15575526107E+03  0.47000000000E+01 0.  1.
         11    1    6    6    0    0 -0.65075942405E+02  0.26828029431E+02 -0.21078022059E+03  0.22222268749E+03  0.00000000000E+00 0. -1.
        -12    1    6    6    0    0 -0.52730301423E+01  0.19785995458E+02 -0.18546304513E+01  0.20560401681E+02  0.00000000000E+00 0.  1.
<mgrwt>
<rscale>  2 0.18781433E+03</rscale>
<asrwt>0</asrwt>
<pdfrwt beam="2">  1        1 0.13121536E+00 0.18781433E+03</pdfrwt>
<pdfrwt beam="1">  1       -1 0.64610447E-02 0.18781433E+03</pdfrwt>
<totfact> 0.24688301E+03</totfact>
</mgrwt>
</event>
<event>
12    1  0.4154313E-002  0.1711581E+03  0.7546771E-02  0.1176645E+00
          1   -1    0    0  502    0  0.00000000000E+00  0.00000000000E+00  0.12317513047E+04  0.12317513047E+04  0.00000000000E+00 0. -1.
         -1   -1    0    0    0  501 -0.00000000000E+00 -0.00000000000E+00 -0.24333457246E+02  0.24333457246E+02  0.00000000000E+00 0.  1.
          6    2    1    2  502    0  0.86863879524E+01 -0.18442720710E+02  0.67818819241E+03  0.69821328723E+03  0.16476341478E+03 0.  0.
         24    2    3    3    0    0  0.29463505529E+02 -0.36946612504E+01  0.66321983289E+03  0.66829112722E+03  0.76620723718E+02 0.  0.
         -6    2    1    2    0  501 -0.86863879524E+01  0.18442720710E+02  0.52922965509E+03  0.55787147476E+03  0.17527397767E+03 0.  0.
        -24    2    5    5    0    0 -0.20618946911E+02 -0.51320377087E+02  0.38266004692E+03  0.39504022526E+03  0.81050268266E+02 0.  0.
          5    1    3    3  502    0 -0.20777117576E+02 -0.14748059460E+02  0.14968359518E+02  0.29922160003E+02  0.47000000000E+01 0. -1.
        -13    1    4    4    0    0  0.31173158113E+02  0.12337654549E+02  0.11382245233E+03  0.11865721285E+03  0.00000000000E+00 0.  1.
         14    1    4    4    0    0 -0.17096525847E+01 -0.16032315800E+02  0.54939738056E+03  0.54963391437E+03  0.00000000000E+00 0. -1.
         -5    1    5    5    0  501  0.11932558958E+02  0.69763097797E+02  0.14656960816E+03  0.16283124950E+03  0.47000000000E+01 0.  1.
         11    1    6    6    0    0  0.14269261610E+02 -0.58198052082E+02  0.19346055549E+03  0.20252805145E+03  0.00000000000E+00 0. -1.
        -12    1    6    6    0    0 -0.34888208520E+02  0.68776749947E+01  0.18919949143E+03  0.19251217381E+03  0.00000000000E+00 0.  1.
<mgrwt>
<rscale>  2 0.17115814E+03</rscale>
<asrwt>0</asrwt>
<pdfrwt beam="1">  1        1 0.18950015E+00 0.17115814E+03</pdfrwt>
<pdfrwt beam="2">  1       -1 0.37436098E-02 0.17115814E+03</pdfrwt>
<totfact> 0.29338307E+03</totfact>
</mgrwt>
</event>
<event>
12    1  0.4154313E-002  0.2074192E+03  0.7546771E-02  0.1143626E+00
         -1   -1    0    0    0  501 -0.00000000000E+00  0.00000000000E+00  0.48787523246E+02  0.48787523246E+02  0.00000000000E+00 0. -1.
          1   -1    0    0  502    0  0.00000000000E+00 -0.00000000000E+00 -0.16573014002E+04  0.16573014002E+04  0.00000000000E+00 0.  1.
          6    2    1    2  502    0 -0.11168289285E+03 -0.77826935460E+01 -0.13843191038E+04  0.13995284276E+04  0.17264645855E+03 0.  0.
         24    2    3    3    0    0 -0.10163257458E+03 -0.64701182122E+02 -0.96153669675E+03  0.97278754961E+03  0.85131511765E+02 0.  0.
         -6    2    1    2    0  501  0.11168289285E+03  0.77826935460E+01 -0.22419477310E+03  0.30656049579E+03  0.17658539696E+03 0.  0.
        -24    2    5    5    0    0  0.31401801597E+02 -0.57675896852E+02 -0.12541617426E+03  0.16335022291E+03  0.81495376174E+02 0.  0.
          5    1    3    3  502    0 -0.10050318265E+02  0.56918488576E+02 -0.42278240707E+03  0.42674087801E+03  0.47000000000E+01 0. -1.
        -11    1    4    4    0    0 -0.69633476684E+02  0.18887590238E+01 -0.57961096523E+03  0.58378185952E+03  0.00000000000E+00 0.  1.
         12    1    4    4    0    0 -0.31999097898E+02 -0.66589941146E+02 -0.38192573152E+03  0.38900569009E+03  0.00000000000E+00 0. -1.
         -5    1    5    5    0  501  0.80281091251E+02  0.65458590398E+02 -0.98778598840E+02  0.14321027288E+03  0.47000000000E+01 0.  1.
         13    1    6    6    0    0  0.58470759100E+02 -0.41174509753E+02 -0.73717900755E+02  0.10270588501E+03  0.00000000000E+00 0. -1.
        -14    1    6    6    0    0 -0.27068957503E+02 -0.16501387099E+02 -0.51698273507E+02  0.60644337906E+02  0.00000000000E+00 0.  1.
<mgrwt>
<rscale>  2 0.20741924E+03</rscale>
<asrwt>0</asrwt>
<pdfrwt beam="2">  1        1 0.25496939E+00 0.20741924E+03</pdfrwt>
<pdfrwt beam="1">  1       -1 0.75057744E-02 0.20741924E+03</pdfrwt>
<totfact> 0.54079559E+02</totfact>
</mgrwt>
</event>
<event>
12    1  0.4154313E-002  0.3861383E+03  0.7546771E-02  0.1048688E+00
         -2   -1    0    0    0  501 -0.00000000000E+00  0.00000000000E+00  0.84005344096E+02  0.84005344096E+02  0.00000000000E+00 0. -1.
          2   -1    0    0  502    0  0.00000000000E+00 -0.00000000000E+00 -0.19218426850E+04  0.19218426850E+04  0.00000000000E+00 0.  1.
          6    2    1    2  502    0 -0.32465153493E+03  0.12038986608E+03 -0.11978448617E+04  0.12587728962E+04  0.17258201674E+03 0.  0.
         24    2    3    3    0    0 -0.29242671462E+03  0.15360466399E+03 -0.10655469332E+04  0.11185356197E+04  0.81387280135E+02 0.  0.
         -6    2    1    2    0  501  0.32465153493E+03 -0.12038986608E+03 -0.63999247921E+03  0.74707513291E+03  0.16922925806E+03 0.  0.
        -24    2    5    5    0    0  0.14713243186E+03 -0.12025492850E+03 -0.35973294434E+03  0.41529124685E+03  0.83365629223E+02 0.  0.
          5    1    3    3  502    0 -0.32224820309E+02 -0.33214797914E+02 -0.13229792849E+03  0.14023727653E+03  0.47000000000E+01 0. -1.
        -13    1    4    4    0    0 -0.66735026058E+02  0.52818909611E+02 -0.39030475908E+03  0.39947616434E+03  0.00000000000E+00 0.  1.
         14    1    4    4    0    0 -0.22569168856E+03  0.10078575438E+03 -0.67524217414E+03  0.71905945533E+03  0.00000000000E+00 0. -1.
         -5    1    5    5    0  501  0.17751910306E+03 -0.13493757261E+00 -0.28025953488E+03  0.33178388606E+03  0.47000000000E+01 0.  1.
         13    1    6    6    0    0  0.58781305054E+02 -0.63198827948E+02 -0.85096566266E+02  0.12120544240E+03  0.00000000000E+00 0. -1.
        -14    1    6    6    0    0  0.88351126811E+02 -0.57056100557E+02 -0.27463637807E+03  0.29408580445E+03  0.00000000000E+00 0.  1.
<mgrwt>
<rscale>  2 0.38613830E+03</rscale>
<asrwt>0</asrwt>
<pdfrwt beam="2">  1        2 0.29566806E+00 0.38613830E+03</pdfrwt>
<pdfrwt beam="1">  1       -2 0.12923901E-01 0.38613830E+03</pdfrwt>
<totfact> 0.35214698E+02</totfact>
</mgrwt>
</event>
<event>
12    1  0.4154313E-002  0.2118743E+03  0.7546771E-02  0.1140090E+00
          1   -1    0    0  502    0  0.00000000000E+00  0.00000000000E+00  0.36182686955E+03  0.36182686955E+03  0.00000000000E+00 0.  1.
         -1   -1    0    0    0  501 -0.00000000000E+00 -0.00000000000E+00 -0.14349181498E+03  0.14349181498E+03  0.00000000000E+00 0. -1.
          6    2    1    2  502    0  0.11096881435E+03 -0.75174345475E+02  0.20420541721E+03  0.29799933450E+03  0.17070000283E+03 0.  0.
         24    2    3    3    0    0  0.93519262813E+02 -0.11666657063E+03  0.17566025055E+03  0.24449224957E+03  0.81012315478E+02 0.  0.
         -6    2    1    2    0  501 -0.11096881435E+03  0.75174345475E+02  0.14129637364E+02  0.20731935003E+03  0.15753223883E+03 0.  0.
        -24    2    5    5    0    0 -0.92324051756E+02 -0.30460841488E+01 -0.12601570128E+02  0.12245056757E+03  0.79387233026E+02 0.  0.
          5    1    3    3  502    0  0.17449551532E+02  0.41492225155E+02  0.28545166666E+02  0.53507084924E+02  0.47000000000E+01 0. -1.
        -11    1    4    4    0    0  0.56228212322E+02 -0.10317057113E+02  0.53669055792E+02  0.78411868221E+02  0.00000000000E+00 0.  1.
         12    1    4    4    0    0  0.37291050491E+02 -0.10634951352E+03  0.12199119476E+03  0.16608038135E+03  0.00000000000E+00 0. -1.
         -5    1    5    5    0  501 -0.18644762590E+02  0.78220429623E+02  0.26731207492E+02  0.84868782461E+02  0.47000000000E+01 0.  1.
         13    1    6    6    0    0 -0.44404809086E+02 -0.65963039828E+01 -0.45733429959E+02  0.64084669867E+02  0.00000000000E+00 0. -1.
        -14    1    6    6    0    0 -0.47919242670E+02  0.35502198340E+01  0.33131859831E+02  0.58365897704E+02  0.00000000000E+00 0.  1.
<mgrwt>
<rscale>  2 0.21187431E+03</rscale>
<asrwt>0</asrwt>
<pdfrwt beam="1">  1        1 0.55665672E-01 0.21187431E+03</pdfrwt>
<pdfrwt beam="2">  1       -1 0.22075664E-01 0.21187431E+03</pdfrwt>
<totfact> 0.11791326E+03</totfact>
</mgrwt>
</event>
<event>
12    1  0.4154313E-002  0.2076417E+03  0.7546771E-02  0.1143447E+00
         -1   -1    0    0    0  501 -0.00000000000E+00  0.00000000000E+00  0.34762729248E+02  0.34762729248E+02  0.00000000000E+00 0.  1.
          1   -1    0    0  502    0  0.00000000000E+00 -0.00000000000E+00 -0.12894167876E+04  0.12894167876E+04  0.00000000000E+00 0. -1.
          6    2    1    2  502    0 -0.11403004181E+03  0.14396106852E+02 -0.49877103290E+03  0.54035979655E+03  0.17322259710E+03 0.  0.
         24    2    3    3    0    0 -0.12001578922E+02 -0.18905403453E+00 -0.10647924852E+03  0.13472761310E+03  0.81667776570E+02 0.  0.
         -6    2    1    2    0  501  0.11403004181E+03 -0.14396106852E+02 -0.75588302541E+03  0.78381972025E+03  0.17263866144E+03 0.  0.
        -24    2    5    5    0    0 -0.86398894589E+01 -0.21457701562E+01 -0.22494292258E+03  0.23873489605E+03  0.79471882772E+02 0.  0.
          5    1    3    3  502    0 -0.10202846288E+03  0.14585160887E+02 -0.39229178438E+03  0.40563218345E+03  0.47000000000E+01 0. -1.
        -11    1    4    4    0    0 -0.35980309394E+02  0.27734256572E+02 -0.52976929909E+02  0.69787726387E+02  0.00000000000E+00 0.  1.
         12    1    4    4    0    0  0.23978730472E+02 -0.27923310607E+02 -0.53502318607E+02  0.64939886716E+02  0.00000000000E+00 0. -1.
         -5    1    5    5    0  501  0.12266993127E+03 -0.12250336696E+02 -0.53094010283E+03  0.54508482420E+03  0.47000000000E+01 0.  1.
         11    1    6    6    0    0 -0.24246310119E+02  0.28282682352E+02 -0.62741473439E+02  0.72967706314E+02  0.00000000000E+00 0. -1.
        -12    1    6    6    0    0  0.15606420660E+02 -0.30428452508E+02 -0.16220144914E+03  0.16576718973E+03  0.00000000000E+00 0.  1.
<mgrwt>
<rscale>  2 0.20764168E+03</rscale>
<asrwt>0</asrwt>
<pdfrwt beam="2">  1        1 0.19837177E+00 0.20764168E+03</pdfrwt>
<pdfrwt beam="1">  1       -1 0.53481133E-02 0.20764168E+03</pdfrwt>
<totfact> 0.15796028E+03</totfact>
</mgrwt>
</event>
<event>
12    1  0.4154313E-002  0.2713115E+03  0.7546771E-02  0.1100531E+00
         -1   -1    0    0    0  501 -0.00000000000E+00  0.00000000000E+00  0.15177199549E+03  0.15177199549E+03  0.00000000000E+00 0.  1.
          1   -1    0    0  502    0  0.00000000000E+00 -0.00000000000E+00 -0.53083769307E+03  0.53083769307E+03  0.00000000000E+00 0. -1.
          6    2    1    2  502    0 -0.16964787634E+03 -0.12320131483E+03 -0.90145893744E+02  0.28721924446E+03  0.17438361824E+03 0.  0.
         24    2    3    3    0    0 -0.19600963510E+03 -0.94939287590E+02 -0.89656068469E+02  0.24828321439E+03  0.78569068693E+02 0.  0.
         -6    2    1    2    0  501  0.16964787634E+03  0.12320131483E+03 -0.28891980384E+03  0.39539044410E+03  0.16999995385E+03 0.  0.
        -24    2    5    5    0    0  0.59440223765E+02  0.69933126853E+01 -0.16299880585E+03  0.19160571900E+03  0.81006754171E+02 0.  0.
          5    1    3    3  502    0  0.26361758766E+02 -0.28262027236E+02 -0.48982527578E+00  0.38936030069E+02  0.47000000000E+01 0. -1.
        -13    1    4    4    0    0 -0.16666443593E+03 -0.56676695588E+02 -0.43058464141E+02  0.18122724232E+03  0.00000000000E+00 0.  1.
         14    1    4    4    0    0 -0.29345199176E+02 -0.38262592002E+02 -0.46597604328E+02  0.67055972072E+02  0.00000000000E+00 0. -1.
         -5    1    5    5    0  501  0.11020765257E+03  0.11620800214E+03 -0.12592099799E+03  0.20378472509E+03  0.47000000000E+01 0.  1.
         13    1    6    6    0    0  0.40570945901E+02  0.43586414677E+02 -0.96277119043E+02  0.11320362559E+03  0.00000000000E+00 0. -1.
        -14    1    6    6    0    0  0.18869277864E+02 -0.36593101992E+02 -0.66721686812E+02  0.78402093413E+02  0.00000000000E+00 0.  1.
<mgrwt>
<rscale>  2 0.27131147E+03</rscale>
<asrwt>0</asrwt>
<pdfrwt beam="2">  1        1 0.81667337E-01 0.27131147E+03</pdfrwt>
<pdfrwt beam="1">  1       -1 0.23349538E-01 0.27131147E+03</pdfrwt>
<totfact> 0.65274567E+02</totfact>
</mgrwt>
</event>
<event>
12    1  0.4154313E-002  0.1796403E+03  0.7546771E-02  0.1168152E+00
          2   -1    0    0  502    0  0.00000000000E+00  0.00000000000E+00  0.67497042438E+03  0.67497042438E+03  0.00000000000E+00 0.  1.
         -2   -1    0    0    0  501 -0.00000000000E+00 -0.00000000000E+00 -0.11059762526E+03  0.11059762526E+03  0.00000000000E+00 0. -1.
          6    2    1    2  502    0 -0.47367047545E+02 -0.92097622881E+01  0.57874857751E+03  0.60625836484E+03  0.17398514896E+03 0.  0.
         24    2    3    3    0    0  0.16456298154E+02 -0.53526151051E+02  0.38278638707E+03  0.39540146586E+03  0.81737644192E+02 0.  0.
         -6    2    1    2    0  501  0.47367047545E+02  0.92097622881E+01 -0.14375778386E+02  0.17930968480E+03  0.17209544778E+03 0.  0.
        -24    2    5    5    0    0  0.18566249252E+02  0.82149408639E+01 -0.75154375929E+02  0.11188117769E+03  0.80355627278E+02 0.  0.
          5    1    3    3  502    0 -0.63823345699E+02  0.44316388763E+02  0.19596219044E+03  0.21085689899E+03  0.47000000000E+01 0. -1.
        -11    1    4    4    0    0  0.46015311491E+02 -0.12080938542E+02  0.20669653312E+03  0.21210095420E+03  0.00000000000E+00 0.  1.
         12    1    4    4    0    0 -0.29559013337E+02 -0.41445212509E+02  0.17608985395E+03  0.18330051165E+03  0.00000000000E+00 0. -1.
         -5    1    5    5    0  501  0.28800798293E+02  0.99482142420E+00  0.60778597544E+02  0.67428507112E+02  0.47000000000E+01 0.  1.
         11    1    6    6    0    0  0.41363457970E+02 -0.14669103289E+02 -0.20601490204E+02  0.48482364269E+02  0.00000000000E+00 0. -1.
        -12    1    6    6    0    0 -0.22797208718E+02  0.22884044153E+02 -0.54552885725E+02  0.63398813420E+02  0.00000000000E+00 0.  1.
<mgrwt>
<rscale>  2 0.17964030E+03</rscale>
<asrwt>0</asrwt>
<pdfrwt beam="1">  1        2 0.10384160E+00 0.17964030E+03</pdfrwt>
<pdfrwt beam="2">  1       -2 0.17015020E-01 0.17964030E+03</pdfrwt>
<totfact> 0.12130147E+03</totfact>
</mgrwt>
</event>
<event>
12    1  0.4154313E-002  0.1936098E+03  0.7546771E-02  0.1155245E+00
          2   -1    0    0  502    0  0.00000000000E+00  0.00000000000E+00  0.72452122742E+03  0.72452122742E+03  0.00000000000E+00 0.  1.
         -2   -1    0    0    0  501 -0.00000000000E+00 -0.00000000000E+00 -0.51956775258E+02  0.51956775258E+02  0.00000000000E+00 0. -1.
          6    2    1    2  502    0 -0.71184608046E+02 -0.50963434417E+02  0.36273192560E+03  0.41151142149E+03  0.17350123946E+03 0.  0.
         24    2    3    3    0    0  0.72029299720E+01 -0.41008705175E+02  0.90177721638E+02  0.12769530699E+03  0.80252562870E+02 0.  0.
         -6    2    1    2    0  501  0.71184608046E+02  0.50963434417E+02  0.30983252656E+03  0.36496658119E+03  0.17187172775E+03 0.  0.
        -24    2    5    5    0    0  0.79624255819E+02 -0.23241145571E+02  0.15556672884E+03  0.19350937460E+03  0.79779057232E+02 0.  0.
          5    1    3    3  502    0 -0.78387538018E+02 -0.99547292418E+01  0.27255420396E+03  0.28381611450E+03  0.47000000000E+01 0. -1.
        -11    1    4    4    0    0 -0.35691776174E+02 -0.93125431017E+01  0.40961350054E+02  0.55122214612E+02  0.00000000000E+00 0.  1.
         12    1    4    4    0    0  0.42894706146E+02 -0.31696162073E+02  0.49216371584E+02  0.72573092379E+02  0.00000000000E+00 0. -1.
         -5    1    5    5    0  501 -0.84396477729E+01  0.74204579988E+02  0.15426579772E+03  0.17145720659E+03  0.47000000000E+01 0.  1.
         11    1    6    6    0    0  0.35302077144E+02 -0.29772884043E+02  0.19272681818E+02  0.50040958617E+02  0.00000000000E+00 0. -1.
        -12    1    6    6    0    0  0.44322178675E+02  0.65317384715E+01  0.13629404702E+03  0.14346841598E+03  0.00000000000E+00 0.  1.
<mgrwt>
<rscale>  2 0.19360979E+03</rscale>
<asrwt>0</asrwt>
<pdfrwt beam="1">  1        2 0.11146480E+00 0.19360979E+03</pdfrwt>
<pdfrwt beam="2">  1       -2 0.79933505E-02 0.19360979E+03</pdfrwt>
<totfact> 0.37575203E+03</totfact>
</mgrwt>
</event>
<event>
12    1  0.4154313E-002  0.1807867E+03  0.7546771E-02  0.1167044E+00
          1   -1    0    0  502    0  0.00000000000E+00  0.00000000000E+00  0.16602524714E+04  0.16602524714E+04  0.00000000000E+00 0. -1.
         -1   -1    0    0    0  501 -0.00000000000E+00 -0.00000000000E+00 -0.28610222772E+02  0.28610222772E+02  0.00000000000E+00 0.  1.
          6    2    1    2  502    0  0.14330653275E+02 -0.50541783058E+02  0.34393062472E+03  0.38850999086E+03  0.17289273818E+03 0.  0.
         24    2    3    3    0    0  0.31648647685E+02  0.15962255793E+02  0.28387534860E+03  0.29712385239E+03  0.80255464648E+02 0.  0.
         -6    2    1    2    0  501 -0.14330653275E+02  0.50541783058E+02  0.12877116239E+04  0.13003527034E+04  0.17307826906E+03 0.  0.
        -24    2    5    5    0    0  0.45248801984E+02  0.12856616998E+02  0.45116346367E+03  0.46082617150E+03  0.81237569547E+02 0.  0.
          5    1    3    3  502    0 -0.17317994410E+02 -0.66504038852E+02  0.60055276122E+02  0.91386138468E+02  0.47000000000E+01 0. -1.
        -13    1    4    4    0    0  0.33029101780E+02 -0.24068170353E+02  0.85757739114E+02  0.94997832641E+02  0.00000000000E+00 0.  1.
         14    1    4    4    0    0 -0.13804540952E+01  0.40030426146E+02  0.19811760949E+03  0.20212601975E+03  0.00000000000E+00 0. -1.
         -5    1    5    5    0  501 -0.59579455259E+02  0.37685166061E+02  0.83654816027E+03  0.83952653185E+03  0.47000000000E+01 0.  1.
         11    1    6    6    0    0  0.15685713783E+02 -0.80042282043E+01  0.38510732902E+03  0.38550974586E+03  0.00000000000E+00 0. -1.
        -12    1    6    6    0    0  0.29563088201E+02  0.20860845202E+02  0.66056134653E+02  0.75316425644E+02  0.00000000000E+00 0.  1.
<mgrwt>
<rscale>  2 0.18078666E+03</rscale>
<asrwt>0</asrwt>
<pdfrwt beam="1">  1        1 0.25542338E+00 0.18078666E+03</pdfrwt>
<pdfrwt beam="2">  1       -1 0.44015740E-02 0.18078666E+03</pdfrwt>
<totfact> 0.12032233E+03</totfact>
</mgrwt>
</event>
<event>
12    1  0.4154313E-002  0.1836800E+03  0.7546771E-02  0.1164288E+00
         -1   -1    0    0    0  501 -0.00000000000E+00  0.00000000000E+00  0.34821216575E+02  0.34821216575E+02  0.00000000000E+00 0. -1.
          1   -1    0    0  502    0  0.00000000000E+00 -0.00000000000E+00 -0.10002523461E+04  0.10002523461E+04  0.00000000000E+00 0.  1.
          6    2    1    2  502    0  0.16400816172E+02  0.59826915801E+02 -0.57509713133E+03  0.60380888082E+03  0.17320567965E+03 0.  0.
         24    2    3    3    0    0  0.78321476497E+02  0.40340404864E+02 -0.36577597183E+03  0.38460274473E+03  0.79784758822E+02 0.  0.
         -6    2    1    2    0  501 -0.16400816172E+02 -0.59826915801E+02 -0.39033399822E+03  0.43126468188E+03  0.17256983818E+03 0.  0.
        -24    2    5    5    0    0  0.53078396757E+02 -0.46704955064E+02 -0.27463664667E+03  0.29559038794E+03  0.83364984947E+02 0.  0.
          5    1    3    3  502    0 -0.61920660325E+02  0.19486510937E+02 -0.20932115950E+03  0.21920613609E+03  0.47000000000E+01 0. -1.
        -11    1    4    4    0    0 -0.59512050969E+01 -0.15401831514E+02 -0.34264269408E+02  0.38035160236E+02  0.00000000000E+00 0.  1.
         12    1    4    4    0    0  0.84272681594E+02  0.55742236378E+02 -0.33151170242E+03  0.34656758449E+03  0.00000000000E+00 0. -1.
         -5    1    5    5    0  501 -0.69479212930E+02 -0.13121960737E+02 -0.11569735154E+03  0.13567429394E+03  0.47000000000E+01 0.  1.
         11    1    6    6    0    0 -0.13134871231E+02  0.13487658021E+02 -0.64572009883E+02  0.67260584457E+02  0.00000000000E+00 0. -1.
        -12    1    6    6    0    0  0.66213267989E+02 -0.60192613085E+02 -0.21006463679E+03  0.22832980348E+03  0.00000000000E+00 0.  1.
<mgrwt>
<rscale>  2 0.18368001E+03</rscale>
<asrwt>0</asrwt>
<pdfrwt beam="2">  1        1 0.15388499E+00 0.18368001E+03</pdfrwt>
<pdfrwt beam="1">  1       -1 0.53571098E-02 0.18368001E+03</pdfrwt>
<totfact> 0.25191655E+03</totfact>
</mgrwt>
</event>
<event>
12    1  0.4154313E-002  0.2221777E+03  0.7546771E-02  0.1132270E+00
          2   -1    0    0  502    0  0.00000000000E+00  0.00000000000E+00  0.83674943727E+03  0.83674943727E+03  0.00000000000E+00 0.  1.
         -2   -1    0    0    0  501 -0.00000000000E+00 -0.00000000000E+00 -0.59784165574E+02  0.59784165574E+02  0.00000000000E+00 0. -1.
          6    2    1    2  502    0 -0.37846882991E+02 -0.13338701709E+03  0.33953013777E+03  0.40656356723E+03  0.17546719597E+03 0.  0.
         24    2    3    3    0    0 -0.18188268266E+02 -0.15886710951E+03  0.32506279606E+03  0.37096735650E+03  0.79883581643E+02 0.  0.
         -6    2    1    2    0  501  0.37846882991E+02  0.13338701709E+03  0.43743513392E+03  0.48997003561E+03  0.17174590688E+03 0.  0.
        -24    2    5    5    0    0  0.46680214929E+02  0.88707166676E+02  0.10283592279E+03  0.15225264063E+03  0.50573072649E+02 0.  0.
          5    1    3    3  502    0 -0.19658614725E+02  0.25480092414E+02  0.14467341712E+02  0.35596210733E+02  0.47000000000E+01 0. -1.
        -11    1    4    4    0    0 -0.42068488535E+02 -0.60341826738E+02  0.17541101187E+03  0.19021019128E+03  0.00000000000E+00 0.  1.
         12    1    4    4    0    0  0.23880220269E+02 -0.98525282771E+02  0.14965178420E+03  0.18075716522E+03  0.00000000000E+00 0. -1.
         -5    1    5    5    0  501 -0.88333319384E+01  0.44679850418E+02  0.33459921112E+03  0.33771739498E+03  0.47000000000E+01 0.  1.
         11    1    6    6    0    0  0.40785591274E+02  0.47110443281E+02  0.87728832272E+02  0.10760672067E+03  0.00000000000E+00 0. -1.
        -12    1    6    6    0    0  0.58946236551E+01  0.41596723395E+02  0.15107090523E+02  0.44645919963E+02  0.00000000000E+00 0.  1.
<mgrwt>
<rscale>  2 0.22217775E+03</rscale>
<asrwt>0</asrwt>
<pdfrwt beam="1">  1        2 0.12873067E+00 0.22217775E+03</pdfrwt>
<pdfrwt beam="2">  1       -2 0.91975645E-02 0.22217775E+03</pdfrwt>
<totfact> 0.25257603E+03</totfact>
</mgrwt>
</event>
<event>
12    1  0.4154313E-002  0.1860431E+03  0.7546771E-02  0.1162079E+00
          2   -1    0    0  502    0  0.00000000000E+00  0.00000000000E+00  0.50179987743E+03  0.50179987743E+03  0.00000000000E+00 0. -1.
         -2   -1    0    0    0  501 -0.00000000000E+00 -0.00000000000E+00 -0.83789459784E+02  0.83789459784E+02  0.00000000000E+00 0.  1.
          6    2    1    2  502    0 -0.65983050215E+02 -0.17005757672E+02  0.33190056891E+03  0.38037247204E+03  0.17286489271E+03 0.  0.
         24    2    3    3    0    0 -0.10206138812E+03  0.19730987842E+02  0.26293467588E+03  0.29417723239E+03  0.81238915871E+02 0.  0.
         -6    2    1    2    0  501  0.65983050215E+02  0.17005757672E+02  0.86109848734E+02  0.20521686517E+03  0.17336694319E+03 0.  0.
        -24    2    5    5    0    0 -0.28045447781E+02 -0.27192460823E+01  0.31222756005E+02  0.94468875770E+02  0.84590581959E+02 0.  0.
          5    1    3    3  502    0  0.36078337900E+02 -0.36736745514E+02  0.68965893028E+02  0.86195239647E+02  0.47000000000E+01 0. -1.
        -11    1    4    4    0    0 -0.21294493555E+02  0.17188321201E+02  0.10816904732E+02  0.29426166408E+02  0.00000000000E+00 0.  1.
         12    1    4    4    0    0 -0.80766894560E+02  0.25426666413E+01  0.25211777115E+03  0.26475106599E+03  0.00000000000E+00 0. -1.
         -5    1    5    5    0  501  0.94028497996E+02  0.19725003755E+02  0.54887092728E+02  0.11074798940E+03  0.47000000000E+01 0.  1.
         11    1    6    6    0    0 -0.28942269905E+02  0.26212791463E+02  0.47317645660E+02  0.61349205490E+02  0.00000000000E+00 0. -1.
        -12    1    6    6    0    0  0.89682212327E+00 -0.28932037545E+02 -0.16094889655E+02  0.33119670279E+02  0.00000000000E+00 0.  1.
<mgrwt>
<rscale>  2 0.18604310E+03</rscale>
<asrwt>0</asrwt>
<pdfrwt beam="1">  1        2 0.77199979E-01 0.18604310E+03</pdfrwt>
<pdfrwt beam="2">  1       -2 0.12890686E-01 0.18604310E+03</pdfrwt>
<totfact> 0.26898574E+03</totfact>
</mgrwt>
</event>
<event>
12    1  0.4154313E-002  0.1853638E+03  0.7546771E-02  0.1162711E+00
         -3   -1    0    0    0  501 -0.00000000000E+00  0.00000000000E+00  0.12082714386E+03  0.12082714386E+03  0.00000000000E+00 0.  1.
          3   -1    0    0  502    0  0.00000000000E+00 -0.00000000000E+00 -0.29043375598E+03  0.29043375598E+03  0.00000000000E+00 0. -1.
          6    2    1    2  502    0 -0.61773181578E+02 -0.20711608112E+02 -0.54618462488E+02  0.19217353217E+03  0.17234440331E+03 0.  0.
         24    2    3    3    0    0  0.14843007238E+02 -0.30934917320E+02  0.14328171744E+02  0.88489951933E+02  0.80298761598E+02 0.  0.
         -6    2    1    2    0  501  0.61773181578E+02  0.20711608112E+02 -0.11498814964E+03  0.21908736766E+03  0.17473437967E+03 0.  0.
        -24    2    5    5    0    0 -0.16966319237E+02 -0.11318577747E+02 -0.10362995893E+03  0.13319825141E+03  0.81158114813E+02 0.  0.
          5    1    3    3  502    0 -0.76616188816E+02  0.10223309207E+02 -0.68946634232E+02  0.10368358024E+03  0.47000000000E+01 0. -1.
        -13    1    4    4    0    0  0.44007164386E+01  0.16859063815E+02 -0.21630047234E+02  0.27775047817E+02  0.00000000000E+00 0.  1.
         14    1    4    4    0    0  0.10442290800E+02 -0.47793981134E+02  0.35958218978E+02  0.60714904116E+02  0.00000000000E+00 0. -1.
         -5    1    5    5    0  501  0.78739500815E+02  0.32030185859E+02 -0.11358190708E+02  0.85889116255E+02  0.47000000000E+01 0.  1.
         11    1    6    6    0    0 -0.78975951718E+01 -0.38329914595E+02 -0.96046226742E+02  0.10371322015E+03  0.00000000000E+00 0. -1.
        -12    1    6    6    0    0 -0.90687240656E+01  0.27011336848E+02 -0.75837321869E+01  0.29485031259E+02  0.00000000000E+00 0.  1.
<mgrwt>
<rscale>  2 0.18536381E+03</rscale>
<asrwt>0</asrwt>
<pdfrwt beam="2">  1        3 0.44682116E-01 0.18536381E+03</pdfrwt>
<pdfrwt beam="1">  1       -3 0.18588792E-01 0.18536381E+03</pdfrwt>
<totfact> 0.30925137E+02</totfact>
</mgrwt>
</event>
<event>
12    1  0.4154313E-002  0.2180305E+03  0.7546771E-02  0.1135360E+00
          1   -1    0    0  502    0  0.00000000000E+00  0.00000000000E+00  0.18754090406E+04  0.18754090406E+04  0.00000000000E+00 0.  1.
         -1   -1    0    0    0  501 -0.00000000000E+00 -0.00000000000E+00 -0.29435093200E+02  0.29435093200E+02  0.00000000000E+00 0. -1.
          6    2    1    2  502    0 -0.88717328506E+00 -0.13123830606E+03  0.12746692409E+04  0.12930339282E+04  0.17300516076E+03 0.  0.
         24    2    3    3    0    0  0.23760010007E+02 -0.51161704065E+02  0.32655981583E+03  0.34121812785E+03  0.81280006279E+02 0.  0.
         -6    2    1    2    0  501  0.88717328506E+00  0.13123830606E+03  0.57130470649E+03  0.61181020562E+03  0.17520953168E+03 0.  0.
        -24    2    5    5    0    0  0.55577871132E+02  0.13100203288E+03  0.42316702807E+03  0.45382922567E+03  0.81487422687E+02 0.  0.
          5    1    3    3  502    0 -0.24647183292E+02 -0.80076601993E+02  0.94810942506E+03  0.95181580031E+03  0.47000000000E+01 0. -1.
        -11    1    4    4    0    0  0.11641176783E+02 -0.66618651660E+02  0.30342442863E+03  0.31086966020E+03  0.00000000000E+00 0.  1.
         12    1    4    4    0    0  0.12118833224E+02  0.15456947595E+02  0.23135387203E+02  0.30348467650E+02  0.00000000000E+00 0. -1.
         -5    1    5    5    0  501 -0.54690697847E+02  0.23627318150E+00  0.14813767842E+03  0.15798097995E+03  0.47000000000E+01 0.  1.
         13    1    6    6    0    0  0.20476083912E+02  0.58987562381E+02  0.80260603964E+02  0.10168857889E+03  0.00000000000E+00 0. -1.
        -14    1    6    6    0    0  0.35101787220E+02  0.72014470496E+02  0.34290642410E+03  0.35214064678E+03  0.00000000000E+00 0.  1.
<mgrwt>
<rscale>  2 0.21803053E+03</rscale>
<asrwt>0</asrwt>
<pdfrwt beam="1">  1        1 0.28852437E+00 0.21803053E+03</pdfrwt>
<pdfrwt beam="2">  1       -1 0.45284773E-02 0.21803053E+03</pdfrwt>
<totfact> 0.83480470E+02</totfact>
</mgrwt>
</event>
<event>
12    1  0.4154313E-002  0.2010573E+03  0.7546771E-02  0.1148850E+00
          4   -1    0    0  502    0  0.00000000000E+00  0.00000000000E+00  0.48729372314E+03  0.48729372314E+03  0.00000000000E+00 0. -1.
         -4   -1    0    0    0  501 -0.00000000000E+00 -0.00000000000E+00 -0.83042818402E+02  0.83042818402E+02  0.00000000000E+00 0.  1.
          6    2    1    2  502    0 -0.57850290535E+02 -0.85135884773E+02  0.21142308848E+03  0.29182228199E+03  0.17281709096E+03 0.  0.
         24    2    3    3    0    0  0.14990452542E+02 -0.28644058165E+02  0.17207628838E+03  0.19148604225E+03  0.77533603163E+02 0.  0.
         -6    2    1    2    0  501  0.57850290535E+02  0.85135884773E+02  0.19282781626E+03  0.27851425956E+03  0.17260605744E+03 0.  0.
        -24    2    5    5    0    0  0.65308019882E+02  0.54042634755E+02  0.42398771196E+02  0.12465264797E+03  0.80962232022E+02 0.  0.
          5    1    3    3  502    0 -0.72840743077E+02 -0.56491826608E+02  0.39346800102E+02  0.10033623973E+03  0.47000000000E+01 0. -1.
        -13    1    4    4    0    0  0.38459948307E+02 -0.16824753704E+02  0.44279783195E+02  0.61015892690E+02  0.00000000000E+00 0.  1.
         14    1    4    4    0    0 -0.23469495765E+02 -0.11819304461E+02  0.12779650518E+03  0.13047014956E+03  0.00000000000E+00 0. -1.
         -5    1    5    5    0  501 -0.74577293467E+01  0.31093250019E+02  0.15042904506E+03  0.15386161159E+03  0.47000000000E+01 0.  1.
         13    1    6    6    0    0 -0.29503283006E+01 -0.16974004476E+02 -0.45112259532E+00  0.17234406768E+02  0.00000000000E+00 0. -1.
        -14    1    6    6    0    0  0.68258348182E+02  0.71016639231E+02  0.42849893792E+02  0.10741824120E+03  0.00000000000E+00 0.  1.
<mgrwt>
<rscale>  2 0.20105735E+03</rscale>
<asrwt>0</asrwt>
<pdfrwt beam="1">  1        4 0.74968264E-01 0.20105735E+03</pdfrwt>
<pdfrwt beam="2">  1       -4 0.12775818E-01 0.20105735E+03</pdfrwt>
<totfact> 0.14560183E+02</totfact>
</mgrwt>
</event>
<event>
12    1  0.4154313E-002  0.2507886E+03  0.7546771E-02  0.1112807E+00
          2   -1    0    0  502    0  0.00000000000E+00  0.00000000000E+00  0.12278675488E+04  0.12278675488E+04  0.00000000000E+00 0. -1.
         -2   -1    0    0    0  501 -0.00000000000E+00 -0.00000000000E+00 -0.86193786302E+02  0.86193786302E+02  0.00000000000E+00 0.  1.
          6    2    1    2  502    0 -0.87433699662E+02  0.15911789830E+03  0.15221998550E+03  0.29329934613E+03  0.17288847578E+03 0.  0.
         24    2    3    3    0    0 -0.10064082317E+02  0.15758228268E+02  0.81725424325E+02  0.11573351091E+03  0.79784666800E+02 0.  0.
         -6    2    1    2    0  501  0.87433699662E+02 -0.15911789830E+03  0.98945377696E+03  0.10207619889E+04  0.17312742102E+03 0.  0.
        -24    2    5    5    0    0 -0.76641955979E+01 -0.24501791047E+02  0.32314866417E+03  0.33435853662E+03  0.81923709612E+02 0.  0.
          5    1    3    3  502    0 -0.77369617345E+02  0.14335967004E+03  0.70494561171E+02  0.17756583522E+03  0.47000000000E+01 0. -1.
        -11    1    4    4    0    0 -0.21108237657E+02  0.45480907811E+02  0.47291991356E+02  0.68924619105E+02  0.00000000000E+00 0.  1.
         12    1    4    4    0    0  0.11044155340E+02 -0.29722679543E+02  0.34433432969E+02  0.46808891809E+02  0.00000000000E+00 0. -1.
         -5    1    5    5    0  501  0.95097895260E+02 -0.13461610726E+03  0.66630511279E+03  0.68640345232E+03  0.47000000000E+01 0.  1.
         13    1    6    6    0    0  0.92219689482E+01 -0.51730381841E+02  0.17181692376E+03  0.17967229171E+03  0.00000000000E+00 0. -1.
        -14    1    6    6    0    0 -0.16886164546E+02  0.27228590794E+02  0.15133174040E+03  0.15468624491E+03  0.00000000000E+00 0.  1.
<mgrwt>
<rscale>  2 0.25078857E+03</rscale>
<asrwt>0</asrwt>
<pdfrwt beam="1">  1        2 0.18890269E+00 0.25078857E+03</pdfrwt>
<pdfrwt beam="2">  1       -2 0.13260583E-01 0.25078857E+03</pdfrwt>
<totfact> 0.81218868E+02</totfact>
</mgrwt>
</event>
<event>
12    1  0.4154313E-002  0.3045956E+03  0.7546771E-02  0.1082966E+00
          2   -1    0    0  502    0  0.00000000000E+00  0.00000000000E+00  0.18312215916E+03  0.18312215916E+03  0.00000000000E+00 0. -1.
         -2   -1    0    0    0  501 -0.00000000000E+00 -0.00000000000E+00 -0.52722061930E+03  0.52722061930E+03  0.00000000000E+00 0.  1.
          6    2    1    2  502    0 -0.13361705717E+03 -0.21331526511E+03 -0.24185322108E+03  0.38843035398E+03  0.17037675619E+03 0.  0.
         24    2    3    3    0    0 -0.15540688968E+03 -0.13126473435E+03 -0.17633843268E+03  0.28109273756E+03  0.80846474419E+02 0.  0.
         -6    2    1    2    0  501  0.13361705717E+03  0.21331526511E+03 -0.10224523906E+03  0.32191242448E+03  0.17267483843E+03 0.  0.
        -24    2    5    5    0    0  0.13989641981E+03  0.14565495624E+03 -0.23878155507E+02  0.21808161221E+03  0.78759435756E+02 0.  0.
          5    1    3    3  502    0  0.21789832508E+02 -0.82050530764E+02 -0.65514788399E+02  0.10733761642E+03  0.47000000000E+01 0. -1.
        -13    1    4    4    0    0 -0.70027026450E+02 -0.10895581255E+02 -0.48839417518E+02  0.86068500788E+02  0.00000000000E+00 0.  1.
         14    1    4    4    0    0 -0.85379863228E+02 -0.12036915310E+03 -0.12749901516E+03  0.19502423677E+03  0.00000000000E+00 0. -1.
         -5    1    5    5    0  501 -0.62793626416E+01  0.67660308872E+02 -0.78367083551E+02  0.10383081227E+03  0.47000000000E+01 0.  1.
         11    1    6    6    0    0  0.13651308909E+03  0.15191947210E+03 -0.12456840814E+02  0.20462287843E+03  0.00000000000E+00 0. -1.
        -12    1    6    6    0    0  0.33833307257E+01 -0.62645158548E+01 -0.11421314693E+02  0.13458733782E+02  0.00000000000E+00 0.  1.
<mgrwt>
<rscale>  2 0.30459564E+03</rscale>
<asrwt>0</asrwt>
<pdfrwt beam="1">  1        2 0.28172640E-01 0.30459564E+03</pdfrwt>
<pdfrwt beam="2">  1       -2 0.81110865E-01 0.30459564E+03</pdfrwt>
<totfact> 0.26087798E+02</totfact>
</mgrwt>
</event>
<event>
12    1  0.4154313E-002  0.2269283E+03  0.7546771E-02  0.1128821E+00
         -2   -1    0    0    0  501 -0.00000000000E+00  0.00000000000E+00  0.21700894786E+03  0.21700894786E+03  0.00000000000E+00 0.  1.
          2   -1    0    0  502    0  0.00000000000E+00 -0.00000000000E+00 -0.25881861472E+03  0.25881861472E+03  0.00000000000E+00 0. -1.
          6    2    1    2  502    0  0.40039713890E+02 -0.14074608966E+03  0.47715856746E+02  0.23163356287E+03  0.17310304451E+03 0.  0.
         24    2    3    3    0    0 -0.12135360617E+02 -0.99311759990E+01  0.39406423616E+02  0.90474373599E+02  0.79917775381E+02 0.  0.
         -6    2    1    2    0  501 -0.40039713890E+02  0.14074608966E+03 -0.89525523613E+02  0.24419399972E+03  0.17379082161E+03 0.  0.
        -24    2    5    5    0    0 -0.86748165224E+02  0.65523403905E+02 -0.73940384162E+02  0.15416556837E+03  0.80506406161E+02 0.  0.
          5    1    3    3  502    0  0.52175074507E+02 -0.13081491366E+03  0.83094331305E+01  0.14115918927E+03  0.47000000000E+01 0. -1.
        -13    1    4    4    0    0 -0.33162065068E+02 -0.33578852259E+02  0.12206168923E+02  0.48746819777E+02  0.00000000000E+00 0.  1.
         14    1    4    4    0    0  0.21026704451E+02  0.23647676260E+02  0.27200254693E+02  0.41727553822E+02  0.00000000000E+00 0. -1.
         -5    1    5    5    0  501  0.46708451334E+02  0.75222685755E+02 -0.15585139451E+02  0.90028431342E+02  0.47000000000E+01 0.  1.
         11    1    6    6    0    0 -0.81833748044E+01  0.75995293769E+01 -0.53222593597E+02  0.54381659952E+02  0.00000000000E+00 0. -1.
        -12    1    6    6    0    0 -0.78564790420E+02  0.57923874529E+02 -0.20717790565E+02  0.99783908422E+02  0.00000000000E+00 0.  1.
<mgrwt>
<rscale>  2 0.22692831E+03</rscale>
<asrwt>0</asrwt>
<pdfrwt beam="2">  1        2 0.39818248E-01 0.22692831E+03</pdfrwt>
<pdfrwt beam="1">  1       -2 0.33385992E-01 0.22692831E+03</pdfrwt>
<totfact> 0.10754203E+03</totfact>
</mgrwt>
</event>
<event>
12    1  0.4154313E-002  0.2015839E+03  0.7546771E-02  0.1148410E+00
          1   -1    0    0  502    0  0.00000000000E+00  0.00000000000E+00  0.11027535734E+04  0.11027535734E+04  0.00000000000E+00 0. -1.
         -1   -1    0    0    0  501 -0.00000000000E+00 -0.00000000000E+00 -0.45309893075E+02  0.45309893075E+02  0.00000000000E+00 0.  1.
          6    2    1    2  502    0  0.10188951124E+03 -0.12079052475E+01  0.78001016811E+03  0.80602517165E+03  0.17572075414E+03 0.  0.
         24    2    3    3    0    0  0.72878164278E+02  0.35544452637E+02  0.26092512285E+03  0.28481142635E+03  0.80380307964E+02 0.  0.
         -6    2    1    2    0  501 -0.10188951124E+03  0.12079052475E+01  0.27743351220E+03  0.34203829481E+03  0.17215664347E+03 0.  0.
        -24    2    5    5    0    0 -0.12890854233E+03  0.42107228088E+01  0.27512456011E+03  0.31435316859E+03  0.80555872227E+02 0.  0.
          5    1    3    3  502    0  0.29011346960E+02 -0.36752357884E+02  0.51908504526E+03  0.52121374529E+03  0.47000000000E+01 0. -1.
        -13    1    4    4    0    0 -0.15575355728E+02  0.29461726385E+01  0.16705299138E+02  0.23029082886E+02  0.00000000000E+00 0.  1.
         14    1    4    4    0    0  0.88453520006E+02  0.32598279998E+02  0.24421982371E+03  0.26178234347E+03  0.00000000000E+00 0. -1.
         -5    1    5    5    0  501  0.27019031091E+02 -0.30028175613E+01  0.23089520831E+01  0.27685126225E+02  0.47000000000E+01 0.  1.
         11    1    6    6    0    0 -0.73154806282E+02  0.37168283653E+02  0.19332249513E+03  0.21001593776E+03  0.00000000000E+00 0. -1.
        -12    1    6    6    0    0 -0.55753736047E+02 -0.32957560844E+02  0.81802064989E+02  0.10433723083E+03  0.00000000000E+00 0.  1.
<mgrwt>
<rscale>  2 0.20158385E+03</rscale>
<asrwt>0</asrwt>
<pdfrwt beam="1">  1        1 0.16965437E+00 0.20158385E+03</pdfrwt>
<pdfrwt beam="2">  1       -1 0.69707536E-02 0.20158385E+03</pdfrwt>
<totfact> 0.14293867E+03</totfact>
</mgrwt>
</event>
<event>
12    1  0.4154313E-002  0.2076041E+03  0.7546771E-02  0.1143477E+00
         -1   -1    0    0    0  501 -0.00000000000E+00  0.00000000000E+00  0.13398266992E+02  0.13398266992E+02  0.00000000000E+00 0. -1.
          1   -1    0    0  502    0  0.00000000000E+00 -0.00000000000E+00 -0.34749912648E+04  0.34749912648E+04  0.00000000000E+00 0.  1.
          6    2    1    2  502    0 -0.62018507146E+02 -0.96842313887E+02 -0.12549664178E+04  0.12720137901E+04  0.17278206938E+03 0.  0.
         24    2    3    3    0    0 -0.25787466202E+01 -0.97447615865E+02 -0.10752916802E+04  0.10827030591E+04  0.80566923037E+02 0.  0.
         -6    2    1    2    0  501  0.62018507146E+02  0.96842313887E+02 -0.22066265801E+04  0.22163757417E+04  0.17290412264E+03 0.  0.
        -24    2    5    5    0    0 -0.19112080220E+02  0.17794376255E+02 -0.64496272971E+03  0.65060218843E+03  0.81390253977E+02 0.  0.
          5    1    3    3  502    0 -0.59439760526E+02  0.60530197777E+00 -0.17967473763E+03  0.18931073098E+03  0.47000000000E+01 0. -1.
        -13    1    4    4    0    0 -0.17640829728E+02  0.81965607099E+01 -0.14051039842E+03  0.14185046544E+03  0.00000000000E+00 0.  1.
         14    1    4    4    0    0  0.15062083108E+02 -0.10564417658E+03 -0.93478128174E+03  0.94085259370E+03  0.00000000000E+00 0. -1.
         -5    1    5    5    0  501  0.81130587366E+02  0.79047937632E+02 -0.15616638504E+04  0.15657735533E+04  0.47000000000E+01 0.  1.
         11    1    6    6    0    0  0.81532949791E+00  0.45068662612E+02 -0.23735790361E+03  0.24160013145E+03  0.00000000000E+00 0. -1.
        -12    1    6    6    0    0 -0.19927409718E+02 -0.27274286356E+02 -0.40760482610E+03  0.40900205698E+03  0.00000000000E+00 0.  1.
<mgrwt>
<rscale>  2 0.20760410E+03</rscale>
<asrwt>0</asrwt>
<pdfrwt beam="2">  1        1 0.53461427E+00 0.20760410E+03</pdfrwt>
<pdfrwt beam="1">  1       -1 0.20612710E-02 0.20760410E+03</pdfrwt>
<totfact> 0.21874488E+02</totfact>
</mgrwt>
</event>
<event>
12    1  0.4154313E-002  0.2085533E+03  0.7546771E-02  0.1142717E+00
         -3   -1    0    0    0  501 -0.00000000000E+00  0.00000000000E+00  0.13085481362E+03  0.13085481362E+03  0.00000000000E+00 0. -1.
          3   -1    0    0  502    0  0.00000000000E+00 -0.00000000000E+00 -0.33470070870E+03  0.33470070870E+03  0.00000000000E+00 0.  1.
          6    2    1    2  502    0 -0.57304733597E+02  0.99410117287E+02 -0.12194061644E+03  0.24290842133E+03  0.17597949682E+03 0.  0.
         24    2    3    3    0    0  0.30963250052E+02  0.71027461578E+02 -0.33894541894E+02  0.11495916058E+03  0.77866202415E+02 0.  0.
         -6    2    1    2    0  501  0.57304733597E+02 -0.99410117287E+02 -0.81905278632E+02  0.22264710100E+03  0.17232832908E+03 0.  0.
        -24    2    5    5    0    0  0.10427142004E+03 -0.56411200789E+02 -0.48480994103E+02  0.15057734832E+03  0.79173091555E+02 0.  0.
          5    1    3    3  502    0 -0.88267983649E+02  0.28382655709E+02 -0.88046074550E+02  0.12794926075E+03  0.47000000000E+01 0. -1.
        -13    1    4    4    0    0  0.41483214037E+01 -0.17117899946E+02 -0.36449405727E+01  0.17986568900E+02  0.00000000000E+00 0.  1.
         14    1    4    4    0    0  0.26814928648E+02  0.88145361524E+02 -0.30249601321E+02  0.96972591677E+02  0.00000000000E+00 0. -1.
         -5    1    5    5    0  501 -0.46966686440E+02 -0.42998916498E+02 -0.33424284529E+02  0.72069752681E+02  0.47000000000E+01 0.  1.
         11    1    6    6    0    0  0.83825208477E+02 -0.23557010040E+01 -0.20304353038E+02  0.86281409677E+02  0.00000000000E+00 0. -1.
        -12    1    6    6    0    0  0.20446211560E+02 -0.54055499785E+02 -0.28176641065E+02  0.64295938642E+02  0.00000000000E+00 0.  1.
<mgrwt>
<rscale>  2 0.20855329E+03</rscale>
<asrwt>0</asrwt>
<pdfrwt beam="2">  1        3 0.51492416E-01 0.20855329E+03</pdfrwt>
<pdfrwt beam="1">  1       -3 0.20131510E-01 0.20855329E+03</pdfrwt>
<totfact> 0.20492787E+02</totfact>
</mgrwt>
</event>
<event>
12    1  0.4154313E-002  0.1752987E+03  0.7546771E-02  0.1172432E+00
         -2   -1    0    0    0  501 -0.00000000000E+00  0.00000000000E+00  0.61715199644E+03  0.61715199644E+03  0.00000000000E+00 0.  1.
          2   -1    0    0  502    0  0.00000000000E+00 -0.00000000000E+00 -0.13534328352E+03  0.13534328352E+03  0.00000000000E+00 0. -1.
          6    2    1    2  502    0  0.43506140397E+02  0.28567178527E+02  0.54383087388E+03  0.57397880932E+03  0.17604200131E+03 0.  0.
         24    2    3    3    0    0  0.82800048126E+00  0.72520549331E+02  0.22172349338E+03  0.24606330648E+03  0.78268305332E+02 0.  0.
         -6    2    1    2    0  501 -0.43506140397E+02 -0.28567178527E+02 -0.62022160959E+02  0.17851647064E+03  0.15909906945E+03 0.  0.
        -24    2    5    5    0    0 -0.18797903105E+02  0.28041741172E+02 -0.76419948886E+02  0.11492045601E+03  0.78911356682E+02 0.  0.
          5    1    3    3  502    0  0.42678139916E+02 -0.43953370805E+02  0.32210738049E+03  0.32791550284E+03  0.47000000000E+01 0. -1.
        -13    1    4    4    0    0  0.22532704198E+02  0.72771545383E+02  0.12066969714E+03  0.14270457731E+03  0.00000000000E+00 0.  1.
         14    1    4    4    0    0 -0.21704703716E+02 -0.25099605153E+00  0.10105379624E+03  0.10335872918E+03  0.00000000000E+00 0. -1.
         -5    1    5    5    0  501 -0.24708237292E+02 -0.56608919698E+02  0.14397787927E+02  0.63596014629E+02  0.47000000000E+01 0.  1.
         11    1    6    6    0    0 -0.46543650413E+02  0.10047631235E+02 -0.63607116401E+02  0.79455217224E+02  0.00000000000E+00 0. -1.
        -12    1    6    6    0    0  0.27745747308E+02  0.17994109937E+02 -0.12812832485E+02  0.35465238789E+02  0.00000000000E+00 0.  1.
<mgrwt>
<rscale>  2 0.17529872E+03</rscale>
<asrwt>0</asrwt>
<pdfrwt beam="2">  1        2 0.20822044E-01 0.17529872E+03</pdfrwt>
<pdfrwt beam="1">  1       -2 0.94946459E-01 0.17529872E+03</pdfrwt>
<totfact> 0.25739076E+02</totfact>
</mgrwt>
</event>
<event>
12    1  0.4154313E-002  0.2007129E+03  0.7546771E-02  0.1149139E+00
          2   -1    0    0  502    0  0.00000000000E+00  0.00000000000E+00  0.86644622040E+03  0.86644622040E+03  0.00000000000E+00 0. -1.
         -2   -1    0    0    0  501 -0.00000000000E+00 -0.00000000000E+00 -0.48201541539E+02  0.48201541539E+02  0.00000000000E+00 0.  1.
          6    2    1    2  502    0  0.90177177895E+02  0.45915195209E+02  0.49532910731E+03  0.53448111773E+03  0.17343301905E+03 0.  0.
         24    2    3    3    0    0 -0.81881103372E+01 -0.16294630578E+02  0.18056201313E+03  0.19885304094E+03  0.81285491742E+02 0.  0.
         -6    2    1    2    0  501 -0.90177177895E+02 -0.45915195209E+02  0.32291557155E+03  0.38016664421E+03  0.17323995629E+03 0.  0.
        -24    2    5    5    0    0 -0.12594013252E+03 -0.14984537950E+02  0.27179886791E+03  0.31037623030E+03  0.79833115840E+02 0.  0.
          5    1    3    3  502    0  0.98365288232E+02  0.62209825787E+02  0.31476709418E+03  0.33562807680E+03  0.47000000000E+01 0. -1.
        -11    1    4    4    0    0  0.53309345599E+01 -0.31371815464E+02  0.17497616256E+03  0.17784618954E+03  0.00000000000E+00 0.  1.
         12    1    4    4    0    0 -0.13519044897E+02  0.15077184886E+02  0.55858505654E+01  0.21006851395E+02  0.00000000000E+00 0. -1.
         -5    1    5    5    0  501  0.35762954621E+02 -0.30930657258E+02  0.51116703638E+02  0.69790413901E+02  0.47000000000E+01 0.  1.
         13    1    6    6    0    0 -0.19624540907E+02  0.92148052290E+01  0.12847770425E+03  0.13029411242E+03  0.00000000000E+00 0. -1.
        -14    1    6    6    0    0 -0.10631559161E+03 -0.24199343179E+02  0.14332116366E+03  0.18008211788E+03  0.00000000000E+00 0.  1.
<mgrwt>
<rscale>  2 0.20071288E+03</rscale>
<asrwt>0</asrwt>
<pdfrwt beam="1">  1        2 0.13329941E+00 0.20071288E+03</pdfrwt>
<pdfrwt beam="2">  1       -2 0.74156224E-02 0.20071288E+03</pdfrwt>
<totfact> 0.33736693E+03</totfact>
</mgrwt>
</event>
<event>
12    1  0.4154313E-002  0.1914753E+03  0.7546771E-02  0.1157137E+00
         -2   -1    0    0    0  501 -0.00000000000E+00  0.00000000000E+00  0.18524776636E+02  0.18524776636E+02  0.00000000000E+00 0.  1.
          2   -1    0    0  502    0  0.00000000000E+00 -0.00000000000E+00 -0.24867015799E+04  0.24867015799E+04  0.00000000000E+00 0. -1.
          6    2    1    2  502    0 -0.37814568016E+02  0.73834819360E+02 -0.17999693583E+04  0.18101241297E+04  0.17256347239E+03 0.  0.
         24    2    3    3    0    0 -0.66732779815E+02  0.12132087803E+02 -0.68226554858E+03  0.69033513783E+03  0.80472804633E+02 0.  0.
         -6    2    1    2    0  501  0.37814568016E+02 -0.73834819360E+02 -0.66820744489E+03  0.69510222676E+03  0.17258155794E+03 0.  0.
        -24    2    5    5    0    0  0.75410836042E+02 -0.33916911522E+02 -0.27392369927E+03  0.29699585806E+03  0.79593942027E+02 0.  0.
          5    1    3    3  502    0  0.28918211798E+02  0.61702731556E+02 -0.11177038098E+04  0.11197889919E+04  0.47000000000E+01 0. -1.
        -11    1    4    4    0    0 -0.54438675593E+01  0.36732214667E+02 -0.31476006534E+03  0.31694288132E+03  0.00000000000E+00 0.  1.
         12    1    4    4    0    0 -0.61288912255E+02 -0.24600126864E+02 -0.36750548325E+03  0.37339225651E+03  0.00000000000E+00 0. -1.
         -5    1    5    5    0  501 -0.37596268026E+02 -0.39917907837E+02 -0.39428374562E+03  0.39810636870E+03  0.47000000000E+01 0.  1.
         13    1    6    6    0    0  0.52425930980E+02 -0.51367712953E+02 -0.24646254161E+03  0.25715929809E+03  0.00000000000E+00 0. -1.
        -14    1    6    6    0    0  0.22984905061E+02  0.17450801431E+02 -0.27461157653E+02  0.39836559978E+02  0.00000000000E+00 0.  1.
<mgrwt>
<rscale>  2 0.19147531E+03</rscale>
<asrwt>0</asrwt>
<pdfrwt beam="2">  1        2 0.38256946E+00 0.19147531E+03</pdfrwt>
<pdfrwt beam="1">  1       -2 0.28499657E-02 0.19147531E+03</pdfrwt>
<totfact> 0.18807746E+03</totfact>
</mgrwt>
</event>
<event>
12    1  0.4154313E-002  0.1880433E+03  0.7546771E-02  0.1160238E+00
         -2   -1    0    0    0  501 -0.00000000000E+00  0.00000000000E+00  0.12867665147E+03  0.12867665147E+03  0.00000000000E+00 0. -1.
          2   -1    0    0  502    0  0.00000000000E+00 -0.00000000000E+00 -0.41127891157E+03  0.41127891157E+03  0.00000000000E+00 0.  1.
          6    2    1    2  502    0 -0.59805251280E+01 -0.64585535215E+02  0.12652585527E+02  0.19150330952E+03  0.17973973294E+03 0.  0.
         24    2    3    3    0    0 -0.66944899274E+02 -0.10002564170E+02 -0.12344833677E+02  0.10581248965E+03  0.80387917117E+02 0.  0.
         -6    2    1    2    0  501  0.59805251280E+01  0.64585535215E+02 -0.29525484563E+03  0.34845225353E+03  0.17331038942E+03 0.  0.
        -24    2    5    5    0    0  0.56511654199E+01  0.74443063044E+01 -0.27653675028E+03  0.28813902436E+03  0.80400060538E+02 0.  0.
          5    1    3    3  502    0  0.60964374146E+02 -0.54582971044E+02  0.24997419204E+02  0.85690819870E+02  0.47000000000E+01 0. -1.
        -13    1    4    4    0    0 -0.67258498775E+01  0.27721886540E+02 -0.19256810569E+02  0.34417507219E+02  0.00000000000E+00 0.  1.
         14    1    4    4    0    0 -0.60219049397E+02 -0.37724450710E+02  0.69119768917E+01  0.71394982430E+02  0.00000000000E+00 0. -1.
         -5    1    5    5    0  501  0.32935970818E+00  0.57141228910E+02 -0.18718095346E+02  0.60313229167E+02  0.47000000000E+01 0.  1.
         13    1    6    6    0    0  0.14814490869E+02 -0.27964752103E+02 -0.53785686497E+02  0.62405100527E+02  0.00000000000E+00 0. -1.
        -14    1    6    6    0    0 -0.91633254489E+01  0.35409058407E+02 -0.22275106379E+03  0.22573392383E+03  0.00000000000E+00 0.  1.
<mgrwt>
<rscale>  2 0.18804329E+03</rscale>
<asrwt>0</asrwt>
<pdfrwt beam="2">  1        2 0.63273680E-01 0.18804329E+03</pdfrwt>
<pdfrwt beam="1">  1       -2 0.19796408E-01 0.18804329E+03</pdfrwt>
<totfact> 0.16426132E+03</totfact>
</mgrwt>
</event>
<event>
12    1  0.4154313E-002  0.1964403E+03  0.7546771E-02  0.1152778E+00
          3   -1    0    0  502    0  0.00000000000E+00  0.00000000000E+00  0.22795548135E+03  0.22795548135E+03  0.00000000000E+00 0. -1.
         -3   -1    0    0    0  501 -0.00000000000E+00 -0.00000000000E+00 -0.17071475560E+03  0.17071475560E+03  0.00000000000E+00 0.  1.
          6    2    1    2  502    0 -0.86563960111E+02 -0.32461720430E+02  0.10359164785E+02  0.19670730292E+03  0.17331868982E+03 0.  0.
         24    2    3    3    0    0 -0.12737087469E+03 -0.16206162143E+02  0.17219496251E+02  0.15200158069E+03  0.79510943086E+02 0.  0.
         -6    2    1    2    0  501  0.86563960111E+02  0.32461720430E+02  0.46881560962E+02  0.20196293403E+03  0.17333223439E+03 0.  0.
        -24    2    5    5    0    0  0.86891658664E+02 -0.48434894173E+01 -0.24645240065E+02  0.12115477025E+03  0.80606890287E+02 0.  0.
          5    1    3    3  502    0  0.40806914574E+02 -0.16255558287E+02 -0.68603314664E+01  0.44705722230E+02  0.47000000000E+01 0. -1.
        -13    1    4    4    0    0 -0.20474330924E+02  0.28125717695E+02 -0.12563071495E+01  0.34811385067E+02  0.00000000000E+00 0.  1.
         14    1    4    4    0    0 -0.10689654376E+03 -0.44331879837E+02  0.18475803401E+02  0.11719019562E+03  0.00000000000E+00 0. -1.
         -5    1    5    5    0  501 -0.32769855295E+00  0.37305209847E+02  0.71526801026E+02  0.80808163778E+02  0.47000000000E+01 0.  1.
         13    1    6    6    0    0  0.73151096284E+01  0.11815176294E+02  0.23035900241E+02  0.26902823637E+02  0.00000000000E+00 0. -1.
        -14    1    6    6    0    0  0.79576549036E+02 -0.16658665711E+02 -0.47681140306E+02  0.94251946614E+02  0.00000000000E+00 0.  1.
<mgrwt>
<rscale>  2 0.19644032E+03</rscale>
<asrwt>0</asrwt>
<pdfrwt beam="1">  1        3 0.35070074E-01 0.19644032E+03</pdfrwt>
<pdfrwt beam="2">  1       -3 0.26263809E-01 0.19644032E+03</pdfrwt>
<totfact> 0.26767586E+02</totfact>
</mgrwt>
</event>
<event>
12    1  0.4154313E-002  0.4359953E+03  0.7546771E-02  0.1031983E+00
         -1   -1    0    0    0  501 -0.00000000000E+00  0.00000000000E+00  0.13980476291E+03  0.13980476291E+03  0.00000000000E+00 0. -1.
          1   -1    0    0  502    0  0.00000000000E+00 -0.00000000000E+00 -0.15101771341E+04  0.15101771341E+04  0.00000000000E+00 0.  1.
          6    2    1    2  502    0 -0.18301208867E+03  0.35613315801E+03 -0.42494854888E+03  0.60892248379E+03  0.17286142205E+03 0.  0.
         24    2    3    3    0    0 -0.94428334173E+02  0.28902949538E+03 -0.24704501566E+03  0.39910889931E+03  0.76170297707E+02 0.  0.
         -6    2    1    2    0  501  0.18301208867E+03 -0.35613315801E+03 -0.94542382235E+03  0.10410594133E+04  0.17220408607E+03 0.  0.
        -24    2    5    5    0    0  0.13768681072E+03 -0.15830475665E+03 -0.39481677824E+03  0.45421985749E+03  0.80108281308E+02 0.  0.
          5    1    3    3  502    0 -0.88583754496E+02  0.67103662631E+02 -0.17790353322E+03  0.20981358448E+03  0.47000000000E+01 0. -1.
        -13    1    4    4    0    0 -0.14500463071E+02  0.13694680726E+03 -0.14160896645E+03  0.19752921512E+03  0.00000000000E+00 0.  1.
         14    1    4    4    0    0 -0.79927871101E+02  0.15208268812E+03 -0.10543604921E+03  0.20157968419E+03  0.00000000000E+00 0. -1.
         -5    1    5    5    0  501  0.45325277952E+02 -0.19782840136E+03 -0.55060704411E+03  0.58683955578E+03  0.47000000000E+01 0.  1.
         13    1    6    6    0    0  0.13829067117E+03 -0.15738993580E+03 -0.39858504868E+03  0.45029539489E+03  0.00000000000E+00 0. -1.
        -14    1    6    6    0    0 -0.60386044877E+00 -0.91482085126E+00  0.37682704401E+01  0.39244626054E+01  0.00000000000E+00 0.  1.
<mgrwt>
<rscale>  2 0.43599527E+03</rscale>
<asrwt>0</asrwt>
<pdfrwt beam="2">  1        1 0.23233493E+00 0.43599527E+03</pdfrwt>
<pdfrwt beam="1">  1       -1 0.21508426E-01 0.43599527E+03</pdfrwt>
<totfact> 0.12325676E+02</totfact>
</mgrwt>
</event>
<event>
12    1  0.4154313E-002  0.1742568E+03  0.7546771E-02  0.1173480E+00
         -2   -1    0    0    0  501 -0.00000000000E+00  0.00000000000E+00  0.11816201939E+02  0.11816201939E+02  0.00000000000E+00 0.  1.
          2   -1    0    0  502    0  0.00000000000E+00 -0.00000000000E+00 -0.29926020226E+04  0.29926020226E+04  0.00000000000E+00 0. -1.
          6    2    1    2  502    0  0.34069852037E+01  0.22742069619E+02 -0.92692173908E+03  0.94318850085E+03  0.17289253451E+03 0.  0.
         24    2    3    3    0    0  0.57387088870E+02 -0.24421821356E+02 -0.55084035952E+03  0.56030786900E+03  0.81425444747E+02 0.  0.
         -6    2    1    2    0  501 -0.34069852037E+01 -0.22742069619E+02 -0.20538640816E+04  0.20612297237E+04  0.17257316972E+03 0.  0.
        -24    2    5    5    0    0  0.42323576954E+02 -0.62304359642E+02 -0.15255263429E+04  0.15294221314E+04  0.78919672471E+02 0.  0.
          5    1    3    3  502    0 -0.53980103666E+02  0.47163890975E+02 -0.37608137955E+03  0.38288063185E+03  0.47000000000E+01 0. -1.
        -13    1    4    4    0    0 -0.64953318169E+00 -0.22163335211E+02 -0.36560293811E+02  0.42758512656E+02  0.00000000000E+00 0.  1.
         14    1    4    4    0    0  0.58036622052E+02 -0.22584861443E+01 -0.51428006571E+03  0.51754935634E+03  0.00000000000E+00 0. -1.
         -5    1    5    5    0  501 -0.45730562157E+02  0.39562290023E+02 -0.52833773862E+03  0.53180759223E+03  0.47000000000E+01 0.  1.
         13    1    6    6    0    0 -0.61743791313E+01  0.15845952148E+02 -0.26425413507E+03  0.26480080261E+03  0.00000000000E+00 0. -1.
        -14    1    6    6    0    0  0.48497956085E+02 -0.78150311790E+02 -0.12612722079E+04  0.12646213288E+04  0.00000000000E+00 0.  1.
<mgrwt>
<rscale>  2 0.17425677E+03</rscale>
<asrwt>0</asrwt>
<pdfrwt beam="2">  1        2 0.46040041E+00 0.17425677E+03</pdfrwt>
<pdfrwt beam="1">  1       -2 0.18178768E-02 0.17425677E+03</pdfrwt>
<totfact> 0.19010990E+03</totfact>
</mgrwt>
</event>
<event>
12    1  0.4154313E-002  0.2515732E+03  0.7546771E-02  0.1112315E+00
         -1   -1    0    0    0  501 -0.00000000000E+00  0.00000000000E+00  0.28675094475E+03  0.28675094475E+03  0.00000000000E+00 0.  1.
          1   -1    0    0  502    0  0.00000000000E+00 -0.00000000000E+00 -0.22164298901E+03  0.22164298901E+03  0.00000000000E+00 0. -1.
          6    2    1    2  502    0 -0.16902865851E+03  0.69911433604E+02  0.16146910886E+02  0.25262351124E+03  0.17349241988E+03 0.  0.
         24    2    3    3    0    0 -0.55473961009E+02 -0.16737970755E+02 -0.26773016315E+02  0.10340220327E+03  0.81349254603E+02 0.  0.
         -6    2    1    2    0  501  0.16902865851E+03 -0.69911433604E+02  0.48961044847E+02  0.25577042252E+03  0.17193902749E+03 0.  0.
        -24    2    5    5    0    0  0.67809637724E+02  0.15517592672E+02 -0.16344284265E+02  0.10801967054E+03  0.81007227730E+02 0.  0.
          5    1    3    3  502    0 -0.11355469750E+03  0.86649404360E+02  0.42919927201E+02  0.14922130797E+03  0.47000000000E+01 0. -1.
        -11    1    4    4    0    0 -0.72577041172E+02 -0.78387266146E+01 -0.36712627268E+02  0.81711012362E+02  0.00000000000E+00 0.  1.
         12    1    4    4    0    0  0.17103080163E+02 -0.88992441406E+01  0.99396109528E+01  0.21691190913E+02  0.00000000000E+00 0. -1.
         -5    1    5    5    0  501  0.10121902079E+03 -0.85429026276E+02  0.65305329112E+02  0.14775075198E+03  0.47000000000E+01 0.  1.
         13    1    6    6    0    0  0.28003513809E+02 -0.22523634695E+02 -0.34723817873E+02  0.49972536790E+02  0.00000000000E+00 0. -1.
        -14    1    6    6    0    0  0.39806123915E+02  0.38041227367E+02  0.18379533608E+02  0.58047133749E+02  0.00000000000E+00 0.  1.
<mgrwt>
<rscale>  2 0.25157315E+03</rscale>
<asrwt>0</asrwt>
<pdfrwt beam="2">  1        1 0.34098921E-01 0.25157315E+03</pdfrwt>
<pdfrwt beam="1">  1       -1 0.44115530E-01 0.25157315E+03</pdfrwt>
<totfact> 0.66761507E+02</totfact>
</mgrwt>
</event>
<event>
12    1  0.4154313E-002  0.2226254E+03  0.7546771E-02  0.1131941E+00
          2   -1    0    0  502    0  0.00000000000E+00  0.00000000000E+00  0.18361116855E+04  0.18361116855E+04  0.00000000000E+00 0. -1.
         -2   -1    0    0    0  501 -0.00000000000E+00 -0.00000000000E+00 -0.27367033290E+02  0.27367033290E+02  0.00000000000E+00 0.  1.
          6    2    1    2  502    0  0.14114617096E+03  0.90527991483E+01  0.10104507694E+04  0.10345341771E+04  0.17101465293E+03 0.  0.
         24    2    3    3    0    0  0.63230243876E+02 -0.57071355383E+02  0.61193324370E+03  0.62309572025E+03  0.80813232251E+02 0.  0.
         -6    2    1    2    0  501 -0.14114617096E+03 -0.90527991483E+01  0.79829388275E+03  0.82894454160E+03  0.17283441516E+03 0.  0.
        -24    2    5    5    0    0 -0.96448865561E+01  0.26431742000E+02  0.37083811966E+03  0.38028848195E+03  0.79415097373E+02 0.  0.
          5    1    3    3  502    0  0.77915927085E+02  0.66124154531E+02  0.39851752572E+03  0.41143845690E+03  0.47000000000E+01 0. -1.
        -11    1    4    4    0    0  0.20422600711E+02 -0.20032883063E+02  0.44868506246E+02  0.53212610125E+02  0.00000000000E+00 0.  1.
         12    1    4    4    0    0  0.42807643165E+02 -0.37038472320E+02  0.56706473745E+03  0.56988311013E+03  0.00000000000E+00 0. -1.
         -5    1    5    5    0  501 -0.13150128441E+03 -0.35484541149E+02  0.42745576309E+03  0.44865605965E+03  0.47000000000E+01 0.  1.
         13    1    6    6    0    0 -0.20933828580E+02 -0.99782030632E+01  0.28986484126E+03  0.29079101759E+03  0.00000000000E+00 0. -1.
        -14    1    6    6    0    0  0.11288942024E+02  0.36409945064E+02  0.80973278403E+02  0.89497464360E+02  0.00000000000E+00 0.  1.
<mgrwt>
<rscale>  2 0.22262543E+03</rscale>
<asrwt>0</asrwt>
<pdfrwt beam="1">  1        2 0.28247862E+00 0.22262543E+03</pdfrwt>
<pdfrwt beam="2">  1       -2 0.42103143E-02 0.22262543E+03</pdfrwt>
<totfact> 0.23076570E+03</totfact>
</mgrwt>
</event>
<event>
11    1  0.8574240E-002  0.1717009E+03  0.7546771E-02  0.1176086E+00
          1   -1    0    0  502    0  0.00000000000E+00  0.00000000000E+00  0.25287106961E+04  0.25287106961E+04  0.00000000000E+00 0.  1.
         -1   -1    0    0    0  501 -0.00000000000E+00 -0.00000000000E+00 -0.26212471123E+02  0.26212471123E+02  0.00000000000E+00 0. -1.
          6    2    1    2  502    0 -0.46047159507E+02  0.32816098184E+01  0.22135097326E+04  0.22204166724E+04  0.16880092693E+03 0.  0.
         24    2    3    3    0    0 -0.71263098168E+02 -0.36599909217E+02  0.10846708851E+04  0.10905823426E+04  0.80255433178E+02 0.  0.
         -6    2    1    2    0  501  0.46047159507E+02 -0.32816098184E+01  0.28898849231E+03  0.33450649475E+03  0.16201585256E+03 0.  0.
          5    1    3    3  502    0  0.25215938661E+02  0.39881519036E+02  0.11288388476E+04  0.11298343298E+04  0.47000000000E+01 0. -1.
        -13    1    4    4    0    0 -0.43321329133E+02 -0.36079074862E+01  0.89463107712E+03  0.89568661858E+03  0.00000000000E+00 0.  1.
         14    1    4    4    0    0 -0.27941769036E+02 -0.32992001731E+02  0.19003980794E+03  0.19489572400E+03  0.00000000000E+00 0. -1.
         -5    1    5    5    0  501 -0.28170019314E+02 -0.56864317704E+02  0.14108306085E+03  0.15476957283E+03  0.47000000000E+01 0.  1.
         11    1    5    5    0    0  0.15590306528E+02  0.26955478200E+02  0.21389751031E+02  0.37777995073E+02  0.00000000000E+00 0. -1.
        -12    1    5    5    0    0  0.58626872294E+02  0.26627229685E+02  0.12651568043E+03  0.14195892684E+03  0.00000000000E+00 0.  1.
<mgrwt>
<rscale>  2 0.17170090E+03</rscale>
<asrwt>0</asrwt>
<pdfrwt beam="1">  1        1 0.38903222E+00 0.17170090E+03</pdfrwt>
<pdfrwt beam="2">  1       -1 0.40326898E-02 0.17170090E+03</pdfrwt>
<totfact> 0.37720089E+02</totfact>
</mgrwt>
</event>
<event>
12    1  0.4154313E-002  0.2054189E+03  0.7546771E-02  0.1145246E+00
          2   -1    0    0  502    0  0.00000000000E+00  0.00000000000E+00  0.37656488787E+03  0.37656488787E+03  0.00000000000E+00 0.  1.
         -2   -1    0    0    0  501 -0.00000000000E+00 -0.00000000000E+00 -0.13063350450E+03  0.13063350450E+03  0.00000000000E+00 0. -1.
          6    2    1    2  502    0 -0.10805142660E+03  0.26554699599E+02  0.21861769559E+03  0.30001285069E+03  0.17272449420E+03 0.  0.
         24    2    3    3    0    0 -0.43572970318E+02  0.60507337194E+01  0.20993673060E+03  0.23163644325E+03  0.87445959690E+02 0.  0.
         -6    2    1    2    0  501  0.10805142660E+03 -0.26554699599E+02  0.27313687788E+02  0.20718554168E+03  0.17262545664E+03 0.  0.
        -24    2    5    5    0    0  0.14430883279E+03 -0.10794069557E+02  0.28618117448E+02  0.16735102775E+03  0.79030492114E+02 0.  0.
          5    1    3    3  502    0 -0.64478456284E+02  0.20503965880E+02  0.86809649824E+01  0.68376407441E+02  0.47000000000E+01 0. -1.
        -11    1    4    4    0    0  0.22786397893E+02  0.17828153784E+02  0.45444896583E+02  0.53873013854E+02  0.00000000000E+00 0.  1.
         12    1    4    4    0    0 -0.66359368211E+02 -0.11777420065E+02  0.16449183402E+03  0.17776342940E+03  0.00000000000E+00 0. -1.
         -5    1    5    5    0  501 -0.36257406193E+02 -0.15760630042E+02 -0.13044296606E+01  0.39834513928E+02  0.47000000000E+01 0.  1.
         11    1    6    6    0    0  0.61805109736E+02 -0.78819348568E+01 -0.26899680638E+02  0.67864492226E+02  0.00000000000E+00 0. -1.
        -12    1    6    6    0    0  0.82503723058E+02 -0.29121347006E+01  0.55517798086E+02  0.99486535527E+02  0.00000000000E+00 0.  1.
<mgrwt>
<rscale>  2 0.20541886E+03</rscale>
<asrwt>0</asrwt>
<pdfrwt beam="1">  1        2 0.57933059E-01 0.20541886E+03</pdfrwt>
<pdfrwt beam="2">  1       -2 0.20097462E-01 0.20541886E+03</pdfrwt>
<totfact> 0.17645746E+03</totfact>
</mgrwt>
</event>
<event>
12    1  0.4154313E-002  0.1834811E+03  0.7546771E-02  0.1164476E+00
         -1   -1    0    0    0  501 -0.00000000000E+00  0.00000000000E+00  0.71975487801E+02  0.71975487801E+02  0.00000000000E+00 0. -1.
          1   -1    0    0  502    0  0.00000000000E+00 -0.00000000000E+00 -0.70781880104E+03  0.70781880104E+03  0.00000000000E+00 0.  1.
          6    2    1    2  502    0  0.10668980160E+02  0.60368513074E+02 -0.54534615948E+03  0.57548212523E+03  0.17326008856E+03 0.  0.
         24    2    3    3    0    0 -0.44570353637E+02  0.49227672424E+02 -0.21972535818E+03  0.24498780067E+03  0.85614889430E+02 0.  0.
         -6    2    1    2    0  501 -0.10668980160E+02 -0.60368513074E+02 -0.90497153759E+02  0.20431216361E+03  0.17261384896E+03 0.  0.
        -24    2    5    5    0    0  0.50211438562E+02 -0.28207380010E+02 -0.93058413074E+02  0.13525122014E+03  0.79474394978E+02 0.  0.
          5    1    3    3  502    0  0.55239333796E+02  0.11140840651E+02 -0.32562080130E+03  0.33049432456E+03  0.47000000000E+01 0. -1.
        -13    1    4    4    0    0 -0.21896678799E+02  0.37852151386E+02 -0.21472480994E+03  0.21913236619E+03  0.00000000000E+00 0.  1.
         14    1    4    4    0    0 -0.22673674837E+02  0.11375521038E+02 -0.50005482434E+01  0.25855434482E+02  0.00000000000E+00 0. -1.
         -5    1    5    5    0  501 -0.60880418722E+02 -0.32161133064E+02  0.25612593151E+01  0.69060943470E+02  0.47000000000E+01 0.  1.
         11    1    6    6    0    0  0.97256120230E+01 -0.16069828627E+02  0.11808507720E+02  0.22187108327E+02  0.00000000000E+00 0. -1.
        -12    1    6    6    0    0  0.40485826539E+02 -0.12137551383E+02 -0.10486692079E+03  0.11306411182E+03  0.00000000000E+00 0.  1.
<mgrwt>
<rscale>  2 0.18348106E+03</rscale>
<asrwt>0</asrwt>
<pdfrwt beam="2">  1        1 0.10889520E+00 0.18348106E+03</pdfrwt>
<pdfrwt beam="1">  1       -1 0.11073152E-01 0.18348106E+03</pdfrwt>
<totfact> 0.14372254E+03</totfact>
</mgrwt>
</event>
<event>
12    1  0.4154313E-002  0.2174150E+03  0.7546771E-02  0.1135825E+00
          2   -1    0    0  502    0  0.00000000000E+00  0.00000000000E+00  0.13170847547E+04  0.13170847547E+04  0.00000000000E+00 0. -1.
         -2   -1    0    0    0  501 -0.00000000000E+00 -0.00000000000E+00 -0.43747885991E+02  0.43747885991E+02  0.00000000000E+00 0.  1.
          6    2    1    2  502    0  0.28896654087E+02  0.12742970254E+03  0.34577819819E+03  0.40789300365E+03  0.17245519526E+03 0.  0.
         24    2    3    3    0    0  0.46911022705E+02  0.60864410773E+01  0.16290010705E+03  0.18763136196E+03  0.80195974319E+02 0.  0.
         -6    2    1    2    0  501 -0.28896654087E+02 -0.12742970254E+03  0.92755867053E+03  0.95293963706E+03  0.17508717512E+03 0.  0.
        -24    2    5    5    0    0 -0.16733857010E+02 -0.35741673121E+02  0.72093195726E+03  0.72650793210E+03  0.80705633278E+02 0.  0.
          5    1    3    3  502    0 -0.18014368618E+02  0.12134326146E+03  0.18287809114E+03  0.22026164169E+03  0.47000000000E+01 0. -1.
        -11    1    4    4    0    0  0.47279168821E+02  0.21659073463E+02  0.45190939344E+02  0.68895981497E+02  0.00000000000E+00 0.  1.
         12    1    4    4    0    0 -0.36814611589E+00 -0.15572632385E+02  0.11770916771E+03  0.11873538046E+03  0.00000000000E+00 0. -1.
         -5    1    5    5    0  501 -0.12162797077E+02 -0.91688029420E+02  0.20662671328E+03  0.22643170496E+03  0.47000000000E+01 0.  1.
         13    1    6    6    0    0 -0.47785434242E+02 -0.88830885159E+01  0.36790654466E+03  0.37110319669E+03  0.00000000000E+00 0. -1.
        -14    1    6    6    0    0  0.31051577232E+02 -0.26858584605E+02  0.35302541259E+03  0.35540473541E+03  0.00000000000E+00 0.  1.
<mgrwt>
<rscale>  2 0.21741502E+03</rscale>
<asrwt>0</asrwt>
<pdfrwt beam="1">  1        2 0.20262839E+00 0.21741502E+03</pdfrwt>
<pdfrwt beam="2">  1       -2 0.67304450E-02 0.21741502E+03</pdfrwt>
<totfact> 0.21264087E+03</totfact>
</mgrwt>
</event>
<event>
12    1  0.4154313E-002  0.4526637E+03  0.7546771E-02  0.1026931E+00
         -2   -1    0    0    0  501 -0.00000000000E+00  0.00000000000E+00  0.75868621139E+02  0.75868621139E+02  0.00000000000E+00 0.  1.
          2   -1    0    0  502    0  0.00000000000E+00 -0.00000000000E+00 -0.27745408025E+04  0.27745408025E+04  0.00000000000E+00 0. -1.
          6    2    1    2  502    0 -0.41613500010E+03 -0.40916254221E+02 -0.11177434155E+04  0.12060264428E+04  0.17408894174E+03 0.  0.
         24    2    3    3    0    0 -0.17109879054E+03 -0.56065392900E+02 -0.37582668477E+03  0.42453123119E+03  0.81012004484E+02 0.  0.
         -6    2    1    2    0  501  0.41613500010E+03  0.40916254221E+02 -0.15809287659E+04  0.16443829809E+04  0.17267642236E+03 0.  0.
        -24    2    5    5    0    0  0.20153528765E+03  0.83251293820E+02 -0.87213313154E+03  0.90258878205E+03  0.80641554111E+02 0.  0.
          5    1    3    3  502    0 -0.24503620956E+03  0.15149138679E+02 -0.74191673076E+03  0.78149521162E+03  0.47000000000E+01 0. -1.
        -11    1    4    4    0    0 -0.17975893182E+03 -0.51214827697E+02 -0.36316861876E+03  0.40844544042E+03  0.00000000000E+00 0.  1.
         12    1    4    4    0    0  0.86601412832E+01 -0.48505652027E+01 -0.12658066004E+02  0.16085790773E+02  0.00000000000E+00 0. -1.
         -5    1    5    5    0  501  0.21459971245E+03 -0.42335039599E+02 -0.70879563431E+03  0.74179419881E+03  0.47000000000E+01 0.  1.
         13    1    6    6    0    0  0.72486078438E+02  0.34224152627E+02 -0.48497577075E+03  0.49155571648E+03  0.00000000000E+00 0. -1.
        -14    1    6    6    0    0  0.12904920921E+03  0.49027141193E+02 -0.38715736080E+03  0.41103306557E+03  0.00000000000E+00 0.  1.
<mgrwt>
<rscale>  2 0.45266366E+03</rscale>
<asrwt>0</asrwt>
<pdfrwt beam="2">  1        2 0.42685243E+00 0.45266366E+03</pdfrwt>
<pdfrwt beam="1">  1       -2 0.11672096E-01 0.45266366E+03</pdfrwt>
<totfact> 0.13968487E+02</totfact>
</mgrwt>
</event>
<event>
12    1  0.4154313E-002  0.2404225E+03  0.7546771E-02  0.1119512E+00
          2   -1    0    0  502    0  0.00000000000E+00  0.00000000000E+00  0.23078017067E+04  0.23078017067E+04  0.00000000000E+00 0.  1.
         -2   -1    0    0    0  501 -0.00000000000E+00 -0.00000000000E+00 -0.30192171995E+02  0.30192171995E+02  0.00000000000E+00 0. -1.
          6    2    1    2  502    0 -0.16920492325E+03 -0.10472512361E+02  0.16147754771E+04  0.16323316967E+04  0.16812777028E+03 0.  0.
         24    2    3    3    0    0 -0.15240241718E+03 -0.22378284100E+02  0.15924409058E+04  0.16015909308E+04  0.74149760844E+02 0.  0.
         -6    2    1    2    0  501  0.16920492325E+03  0.10472512361E+02  0.66283405764E+03  0.70566218200E+03  0.17282982258E+03 0.  0.
        -24    2    5    5    0    0  0.29518653535E+02 -0.34700379613E+01  0.39360117140E+03  0.40199281297E+03  0.76111414922E+02 0.  0.
          5    1    3    3  502    0 -0.16802506069E+02  0.11905771739E+02  0.22334571342E+02  0.30740765897E+02  0.47000000000E+01 0. -1.
        -11    1    4    4    0    0 -0.18318083620E+02 -0.18304477548E+02  0.54212000059E+03  0.54273815153E+03  0.00000000000E+00 0.  1.
         12    1    4    4    0    0 -0.13408433356E+03 -0.40738065518E+01  0.10503209052E+04  0.10588527793E+04  0.00000000000E+00 0. -1.
         -5    1    5    5    0  501  0.13968626971E+03  0.13942550323E+02  0.26923288624E+03  0.30366936903E+03  0.47000000000E+01 0.  1.
         11    1    6    6    0    0 -0.12950579167E+02 -0.29242603788E+02  0.14738886835E+03  0.15081885125E+03  0.00000000000E+00 0. -1.
        -12    1    6    6    0    0  0.42469232702E+02  0.25772565826E+02  0.24621230305E+03  0.25117396172E+03  0.00000000000E+00 0.  1.
<mgrwt>
<rscale>  2 0.24042248E+03</rscale>
<asrwt>0</asrwt>
<pdfrwt beam="1">  1        2 0.35504628E+00 0.24042248E+03</pdfrwt>
<pdfrwt beam="2">  1       -2 0.46449514E-02 0.24042248E+03</pdfrwt>
<totfact> 0.11216719E+03</totfact>
</mgrwt>
</event>
<event>
12    1  0.4154313E-002  0.2161522E+03  0.7546771E-02  0.1136785E+00
         -2   -1    0    0    0  501 -0.00000000000E+00  0.00000000000E+00  0.10603704241E+04  0.10603704241E+04  0.00000000000E+00 0.  1.
          2   -1    0    0  502    0  0.00000000000E+00 -0.00000000000E+00 -0.45634568336E+02  0.45634568336E+02  0.00000000000E+00 0. -1.
          6    2    1    2  502    0 -0.77034492440E+02 -0.10524338462E+03  0.40433994096E+03  0.45841358742E+03  0.17216778515E+03 0.  0.
         24    2    3    3    0    0 -0.47553439011E+02  0.22293968941E+01  0.25740113928E+03  0.27393423161E+03  0.80736094633E+02 0.  0.
         -6    2    1    2    0  501  0.77034492440E+02  0.10524338462E+03  0.61039591484E+03  0.64759140505E+03  0.17257164313E+03 0.  0.
        -24    2    5    5    0    0 -0.12157595176E+01  0.39185136163E+01  0.16971664917E+03  0.18866860478E+03  0.82312019810E+02 0.  0.
          5    1    3    3  502    0 -0.29481053429E+02 -0.10747278151E+03  0.14693880168E+03  0.18447935580E+03  0.47000000000E+01 0. -1.
        -11    1    4    4    0    0  0.78112896504E+01  0.12029451917E+02  0.16603880097E+03  0.16665715522E+03  0.00000000000E+00 0.  1.
         12    1    4    4    0    0 -0.55364728662E+02 -0.98000550229E+01  0.91362338311E+02  0.10727707639E+03  0.00000000000E+00 0. -1.
         -5    1    5    5    0  501  0.78250251958E+02  0.10132487100E+03  0.44067926567E+03  0.45892280026E+03  0.47000000000E+01 0.  1.
         11    1    6    6    0    0  0.57692251325E+01  0.42573393745E+02  0.82577454769E+02  0.93084981870E+02  0.00000000000E+00 0. -1.
        -12    1    6    6    0    0 -0.69849846500E+01 -0.38654880129E+02  0.87139194401E+02  0.95583622913E+02  0.00000000000E+00 0.  1.
<mgrwt>
<rscale>  2 0.21615224E+03</rscale>
<asrwt>0</asrwt>
<pdfrwt beam="2">  1        2 0.70207036E-02 0.21615224E+03</pdfrwt>
<pdfrwt beam="1">  1       -2 0.16313389E+00 0.21615224E+03</pdfrwt>
<totfact> 0.25536805E+02</totfact>
</mgrwt>
</event>
<event>
12    1  0.4154313E-002  0.1744320E+03  0.7546771E-02  0.1173303E+00
          2   -1    0    0  502    0  0.00000000000E+00  0.00000000000E+00  0.45066670220E+02  0.45066670220E+02  0.00000000000E+00 0. -1.
         -2   -1    0    0    0  501 -0.00000000000E+00 -0.00000000000E+00 -0.67664841859E+03  0.67664841859E+03  0.00000000000E+00 0.  1.
          6    2    1    2  502    0 -0.19318442945E+02  0.56366309943E+01 -0.33199023021E+03  0.37482253899E+03  0.17282780139E+03 0.  0.
         24    2    3    3    0    0 -0.76974688714E+02  0.24921816453E+02 -0.21009605142E+03  0.23852711765E+03  0.78794894478E+02 0.  0.
         -6    2    1    2    0  501  0.19318442945E+02 -0.56366309943E+01 -0.29959151816E+03  0.34689254982E+03  0.17370777047E+03 0.  0.
        -24    2    5    5    0    0  0.27111635000E+02 -0.63953442927E+02 -0.13550939235E+03  0.17251761352E+03  0.81082969528E+02 0.  0.
          5    1    3    3  502    0  0.57656245769E+02 -0.19285185458E+02 -0.12189417878E+03  0.13629542133E+03  0.47000000000E+01 0. -1.
        -13    1    4    4    0    0 -0.10337339025E+02  0.24481283002E+02 -0.13724930371E+03  0.13979830172E+03  0.00000000000E+00 0.  1.
         14    1    4    4    0    0 -0.66637349689E+02  0.44053345045E+00 -0.72846747712E+02  0.98728815933E+02  0.00000000000E+00 0. -1.
         -5    1    5    5    0  501 -0.77931920548E+01  0.58316811933E+02 -0.16408212582E+03  0.17437493630E+03  0.47000000000E+01 0.  1.
         11    1    6    6    0    0  0.47606204531E+02 -0.12571589951E+02 -0.46536862174E+02  0.67750093172E+02  0.00000000000E+00 0. -1.
        -12    1    6    6    0    0 -0.20494569532E+02 -0.51381852976E+02 -0.88972530173E+02  0.10476752035E+03  0.00000000000E+00 0.  1.
<mgrwt>
<rscale>  2 0.17443197E+03</rscale>
<asrwt>0</asrwt>
<pdfrwt beam="1">  1        2 0.69333345E-02 0.17443197E+03</pdfrwt>
<pdfrwt beam="2">  1       -2 0.10409975E+00 0.17443197E+03</pdfrwt>
<totfact> 0.78661905E+02</totfact>
</mgrwt>
</event>
<event>
12    1  0.4154313E-002  0.1993255E+03  0.7546771E-02  0.1150309E+00
          1   -1    0    0  502    0  0.00000000000E+00  0.00000000000E+00  0.83413560084E+03  0.83413560084E+03  0.00000000000E+00 0. -1.
         -1   -1    0    0    0  501 -0.00000000000E+00 -0.00000000000E+00 -0.47761688533E+02  0.47761688533E+02  0.00000000000E+00 0.  1.
          6    2    1    2  502    0  0.14712592131E+02  0.96872727806E+02  0.41656666747E+03  0.46186683615E+03  0.17375960443E+03 0.  0.
         24    2    3    3    0    0 -0.54695498820E+02  0.47152480131E+02  0.21512904282E+03  0.24303175500E+03  0.86999855747E+02 0.  0.
         -6    2    1    2    0  501 -0.14712592131E+02 -0.96872727806E+02  0.36980724484E+03  0.42003045322E+03  0.17339953154E+03 0.  0.
        -24    2    5    5    0    0 -0.70208932767E+02 -0.93687399440E+02  0.26413577131E+03  0.30053760633E+03  0.82755809940E+02 0.  0.
          5    1    3    3  502    0  0.69408090950E+02  0.49720247675E+02  0.20143762465E+03  0.21883508115E+03  0.47000000000E+01 0. -1.
        -13    1    4    4    0    0 -0.88224816387E+01  0.60621905574E+02  0.88116342710E+02  0.10731887751E+03  0.00000000000E+00 0.  1.
         14    1    4    4    0    0 -0.45873017181E+02 -0.13469425443E+02  0.12701270011E+03  0.13571287749E+03  0.00000000000E+00 0. -1.
         -5    1    5    5    0  501  0.55496340636E+02 -0.31853283657E+01  0.10567147354E+03  0.11949284690E+03  0.47000000000E+01 0.  1.
         11    1    6    6    0    0 -0.35344598512E+02 -0.98920719956E+02  0.22199928400E+03  0.24559770271E+03  0.00000000000E+00 0. -1.
        -12    1    6    6    0    0 -0.34864334255E+02  0.52333205163E+01  0.42136487303E+02  0.54939903612E+02  0.00000000000E+00 0.  1.
<mgrwt>
<rscale>  2 0.19932545E+03</rscale>
<asrwt>0</asrwt>
<pdfrwt beam="1">  1        1 0.12832854E+00 0.19932545E+03</pdfrwt>
<pdfrwt beam="2">  1       -1 0.73479527E-02 0.19932545E+03</pdfrwt>
<totfact> 0.21066946E+03</totfact>
</mgrwt>
</event>
<event>
12    1  0.4154313E-002  0.2142217E+03  0.7546771E-02  0.1138266E+00
         -2   -1    0    0    0  501 -0.00000000000E+00  0.00000000000E+00  0.13759575478E+04  0.13759575478E+04  0.00000000000E+00 0.  1.
          2   -1    0    0  502    0  0.00000000000E+00 -0.00000000000E+00 -0.42616661260E+02  0.42616661260E+02  0.00000000000E+00 0. -1.
          6    2    1    2  502    0  0.11441782818E+03  0.47647906363E+02  0.99295686929E+03  0.10154267786E+04  0.17252952231E+03 0.  0.
         24    2    3    3    0    0  0.24989589362E+02  0.69921134505E+01  0.19569954654E+03  0.21212631672E+03  0.77626622385E+02 0.  0.
         -6    2    1    2    0  501 -0.11441782818E+03 -0.47647906363E+02  0.34038401726E+03  0.40314743046E+03  0.17693165091E+03 0.  0.
        -24    2    5    5    0    0 -0.14444180990E+03 -0.98533096604E+01  0.23893108829E+03  0.29069896308E+03  0.80357314699E+02 0.  0.
          5    1    3    3  502    0  0.89428238817E+02  0.40655792912E+02  0.79725732275E+03  0.80330046189E+03  0.47000000000E+01 0. -1.
        -11    1    4    4    0    0  0.52143505480E+02  0.76309990359E+01  0.14971579449E+03  0.15871986778E+03  0.00000000000E+00 0.  1.
         12    1    4    4    0    0 -0.27153916118E+02 -0.63888558544E+00  0.45983752047E+02  0.53406448933E+02  0.00000000000E+00 0. -1.
         -5    1    5    5    0  501  0.30023981726E+02 -0.37794596703E+02  0.10145292898E+03  0.11244846738E+03  0.47000000000E+01 0.  1.
         13    1    6    6    0    0 -0.11213798549E+03  0.19877968974E+02  0.20751950574E+03  0.23671587759E+03  0.00000000000E+00 0. -1.
        -14    1    6    6    0    0 -0.32303824413E+02 -0.29731278634E+02  0.31411582550E+02  0.53983085492E+02  0.00000000000E+00 0.  1.
<mgrwt>
<rscale>  2 0.21422171E+03</rscale>
<asrwt>0</asrwt>
<pdfrwt beam="2">  1        2 0.65564105E-02 0.21422171E+03</pdfrwt>
<pdfrwt beam="1">  1       -2 0.21168574E+00 0.21422171E+03</pdfrwt>
<totfact> 0.13416437E+02</totfact>
</mgrwt>
</event>
<event>
12    1  0.4154313E-002  0.1800729E+03  0.7546771E-02  0.1167733E+00
         -2   -1    0    0    0  501 -0.00000000000E+00  0.00000000000E+00  0.27132528689E+03  0.27132528689E+03  0.00000000000E+00 0.  1.
          2   -1    0    0  502    0  0.00000000000E+00 -0.00000000000E+00 -0.18076762532E+03  0.18076762532E+03  0.00000000000E+00 0. -1.
          6    2    1    2  502    0  0.48951238134E+02  0.10110535390E+02  0.17694808592E+03  0.25281780155E+03  0.17351590425E+03 0.  0.
         24    2    3    3    0    0  0.53921300364E+02  0.51777790201E+02  0.53516806798E+02  0.12236385447E+03  0.80749105753E+02 0.  0.
         -6    2    1    2    0  501 -0.48951238134E+02 -0.10110535390E+02 -0.86390424352E+02  0.19927511066E+03  0.17247845566E+03 0.  0.
        -24    2    5    5    0    0 -0.76149383040E+02  0.41511623508E+02 -0.40377008827E+02  0.12481766789E+03  0.80169844403E+02 0.  0.
          5    1    3    3  502    0 -0.49700622298E+01 -0.41667254810E+02  0.12343127913E+03  0.13045394708E+03  0.47000000000E+01 0. -1.
        -13    1    4    4    0    0  0.53420356705E+02 -0.24057301297E+01  0.13933762800E+02  0.55260037946E+02  0.00000000000E+00 0.  1.
         14    1    4    4    0    0  0.50094365827E+00  0.54183520330E+02  0.39583043998E+02  0.67103816524E+02  0.00000000000E+00 0. -1.
         -5    1    5    5    0  501  0.27198144906E+02 -0.51622158898E+02 -0.46013415525E+02  0.74457442770E+02  0.47000000000E+01 0.  1.
         11    1    6    6    0    0 -0.15163011245E+02 -0.22845887374E+02 -0.64708448912E-01  0.27419986635E+02  0.00000000000E+00 0. -1.
        -12    1    6    6    0    0 -0.60986371795E+02  0.64357510882E+02 -0.40312300378E+02  0.97397681253E+02  0.00000000000E+00 0.  1.
<mgrwt>
<rscale>  2 0.18007288E+03</rscale>
<asrwt>0</asrwt>
<pdfrwt beam="2">  1        2 0.27810404E-01 0.18007288E+03</pdfrwt>
<pdfrwt beam="1">  1       -2 0.41742352E-01 0.18007288E+03</pdfrwt>
<totfact> 0.10387665E+03</totfact>
</mgrwt>
</event>
<event>
12    1  0.4154313E-002  0.1961361E+03  0.7546771E-02  0.1153041E+00
         -2   -1    0    0    0  501 -0.00000000000E+00  0.00000000000E+00  0.68653900998E+02  0.68653900998E+02  0.00000000000E+00 0.  1.
          2   -1    0    0  502    0  0.00000000000E+00 -0.00000000000E+00 -0.76300419868E+03  0.76300419868E+03  0.00000000000E+00 0. -1.
          6    2    1    2  502    0  0.77620612668E+02  0.51275438622E+02 -0.56168042726E+03  0.59499017690E+03  0.17284177194E+03 0.  0.
         24    2    3    3    0    0  0.16414935791E+02 -0.80566768534E+01 -0.11928507269E+03  0.14443255067E+03  0.79356618933E+02 0.  0.
         -6    2    1    2    0  501 -0.77620612668E+02 -0.51275438622E+02 -0.13266987042E+03  0.23666792278E+03  0.17250008996E+03 0.  0.
        -24    2    5    5    0    0 -0.98969994366E+02 -0.85943907971E+02 -0.11506675199E+03  0.19206233294E+03  0.80412481742E+02 0.  0.
          5    1    3    3  502    0  0.61205676876E+02  0.59332115475E+02 -0.44239535457E+03  0.45055762623E+03  0.47000000000E+01 0. -1.
        -11    1    4    4    0    0 -0.18259441356E+02 -0.33683427562E+02 -0.56941471247E+02  0.68631710154E+02  0.00000000000E+00 0.  1.
         12    1    4    4    0    0  0.34674377148E+02  0.25626750709E+02 -0.62343601443E+02  0.75800840519E+02  0.00000000000E+00 0. -1.
         -5    1    5    5    0  501  0.21349381698E+02  0.34668469349E+02 -0.17603118437E+02  0.44605589836E+02  0.47000000000E+01 0.  1.
         13    1    6    6    0    0 -0.66450453892E+02 -0.95493170915E+02 -0.70358011474E+02  0.13595903167E+03  0.00000000000E+00 0. -1.
        -14    1    6    6    0    0 -0.32519540473E+02  0.95492629437E+01 -0.44708740512E+02  0.56103301271E+02  0.00000000000E+00 0.  1.
<mgrwt>
<rscale>  2 0.19613609E+03</rscale>
<asrwt>0</asrwt>
<pdfrwt beam="2">  1        2 0.11738526E+00 0.19613609E+03</pdfrwt>
<pdfrwt beam="1">  1       -2 0.10562139E-01 0.19613609E+03</pdfrwt>
<totfact> 0.22745556E+03</totfact>
</mgrwt>
</event>
<event>
12    1  0.4154313E-002  0.2151042E+03  0.7546771E-02  0.1137587E+00
         -2   -1    0    0    0  501 -0.00000000000E+00  0.00000000000E+00  0.97594044286E+02  0.97594044286E+02  0.00000000000E+00 0.  1.
          2   -1    0    0  502    0  0.00000000000E+00 -0.00000000000E+00 -0.55296929079E+03  0.55296929079E+03  0.00000000000E+00 0. -1.
          6    2    1    2  502    0  0.10582204470E+03  0.71224191595E+02 -0.10502085660E+03  0.23954640638E+03  0.17344137302E+03 0.  0.
         24    2    3    3    0    0 -0.67276122389E+00 -0.87795464787E+01 -0.23844965697E+02  0.83490784696E+02  0.79527326725E+02 0.  0.
         -6    2    1    2    0  501 -0.10582204470E+03 -0.71224191595E+02 -0.35035438990E+03  0.41101692869E+03  0.17296105497E+03 0.  0.
        -24    2    5    5    0    0 -0.89618674662E+02  0.20589531745E+02 -0.19511403391E+03  0.22987066977E+03  0.79470767745E+02 0.  0.
          5    1    3    3  502    0  0.10649480593E+03  0.80003738074E+02 -0.81175890904E+02  0.15605562168E+03  0.47000000000E+01 0. -1.
        -11    1    4    4    0    0 -0.47931300057E+00  0.23699311199E+02  0.18539144317E+02  0.30092972008E+02  0.00000000000E+00 0.  1.
         12    1    4    4    0    0 -0.19344822333E+00 -0.32478857678E+02 -0.42384110014E+02  0.53397812688E+02  0.00000000000E+00 0. -1.
         -5    1    5    5    0  501 -0.16203370041E+02 -0.91813723340E+02 -0.15524035599E+03  0.18114625892E+03  0.47000000000E+01 0.  1.
         11    1    6    6    0    0 -0.79049858009E+02 -0.14924985169E+02 -0.15866894607E+03  0.17789735715E+03  0.00000000000E+00 0. -1.
        -12    1    6    6    0    0 -0.10568816653E+02  0.35514516914E+02 -0.36445087839E+02  0.51973312620E+02  0.00000000000E+00 0.  1.
<mgrwt>
<rscale>  2 0.21510424E+03</rscale>
<asrwt>0</asrwt>
<pdfrwt beam="2">  1        2 0.85072199E-01 0.21510424E+03</pdfrwt>
<pdfrwt beam="1">  1       -2 0.15014468E-01 0.21510424E+03</pdfrwt>
<totfact> 0.18861074E+03</totfact>
</mgrwt>
</event>
<event>
12    1  0.4154313E-002  0.1662682E+03  0.7546771E-02  0.1181796E+00
          1   -1    0    0  502    0  0.00000000000E+00  0.00000000000E+00  0.59128710568E+03  0.59128710568E+03  0.00000000000E+00 0. -1.
         -1   -1    0    0    0  501 -0.00000000000E+00 -0.00000000000E+00 -0.64150705384E+02  0.64150705384E+02  0.00000000000E+00 0.  1.
          6    2    1    2  502    0 -0.11655976612E+02 -0.37935831390E+02  0.82668900598E+02  0.17729747424E+03  0.15174075969E+03 0.  0.
         24    2    3    3    0    0  0.31370469513E+01  0.18299661089E+02  0.96017054133E+01  0.83797906472E+02  0.81149107960E+02 0.  0.
         -6    2    1    2    0  501  0.11655976612E+02  0.37935831390E+02  0.44446749970E+03  0.47814033683E+03  0.17173186751E+03 0.  0.
        -24    2    5    5    0    0  0.15550609280E+02  0.88712829080E+02  0.35511929353E+03  0.37519052574E+03  0.80910014656E+02 0.  0.
          5    1    3    3  502    0 -0.14793023563E+02 -0.56235492479E+02  0.73067195185E+02  0.93499567767E+02  0.47000000000E+01 0. -1.
        -13    1    4    4    0    0 -0.20437607399E+01 -0.23551500647E+02 -0.21058704749E+02  0.31659424922E+02  0.00000000000E+00 0.  1.
         14    1    4    4    0    0  0.51808076912E+01  0.41851161736E+02  0.30660410162E+02  0.52138481550E+02  0.00000000000E+00 0. -1.
         -5    1    5    5    0  501 -0.38946326679E+01 -0.50776997690E+02  0.89348206168E+02  0.10294981109E+03  0.47000000000E+01 0.  1.
         11    1    6    6    0    0  0.25835112741E+02  0.82367098822E+02  0.35237974158E+03  0.36279922036E+03  0.00000000000E+00 0. -1.
        -12    1    6    6    0    0 -0.10284503462E+02  0.63457302584E+01  0.27395519497E+01  0.12391305373E+02  0.00000000000E+00 0.  1.
<mgrwt>
<rscale>  2 0.16626816E+03</rscale>
<asrwt>0</asrwt>
<pdfrwt beam="1">  1        1 0.90967243E-01 0.16626816E+03</pdfrwt>
<pdfrwt beam="2">  1       -1 0.98693397E-02 0.16626816E+03</pdfrwt>
<totfact> 0.22059489E+03</totfact>
</mgrwt>
</event>
<event>
12    1  0.4154313E-002  0.2028482E+03  0.7546771E-02  0.1147358E+00
          1   -1    0    0  502    0  0.00000000000E+00  0.00000000000E+00  0.21631771185E+03  0.21631771185E+03  0.00000000000E+00 0.  1.
         -1   -1    0    0    0  501 -0.00000000000E+00 -0.00000000000E+00 -0.23134581345E+03  0.23134581345E+03  0.00000000000E+00 0. -1.
          6    2    1    2  502    0  0.77453596166E+02  0.71803899834E+02 -0.10189070338E+03  0.22701462067E+03  0.17320237577E+03 0.  0.
         24    2    3    3    0    0 -0.20092183402E+02  0.64094141722E+02 -0.69224809040E+02  0.12374908850E+03  0.77524240595E+02 0.  0.
         -6    2    1    2    0  501 -0.77453596166E+02 -0.71803899834E+02  0.86862601776E+02  0.22064890463E+03  0.17316456895E+03 0.  0.
        -24    2    5    5    0    0 -0.74621017545E+02  0.18975062309E+02  0.56612119409E+02  0.12480515078E+03  0.80268576344E+02 0.  0.
          5    1    3    3  502    0  0.97545779568E+02  0.77097581118E+01 -0.32665894340E+02  0.10326553217E+03  0.47000000000E+01 0. -1.
        -13    1    4    4    0    0 -0.15595599310E+02 -0.10104183778E+02  0.44303374698E+01  0.19103537310E+02  0.00000000000E+00 0.  1.
         14    1    4    4    0    0 -0.44965840920E+01  0.74198325499E+02 -0.73655146510E+02  0.10464555119E+03  0.00000000000E+00 0. -1.
         -5    1    5    5    0  501 -0.28325786203E+01 -0.90778962142E+02  0.30250482367E+02  0.95843753853E+02  0.47000000000E+01 0.  1.
         11    1    6    6    0    0 -0.47961952121E+02 -0.22273928597E+02  0.43090301009E+01  0.53056992817E+02  0.00000000000E+00 0. -1.
        -12    1    6    6    0    0 -0.26659065424E+02  0.41248990905E+02  0.52303089308E+02  0.71748157964E+02  0.00000000000E+00 0.  1.
<mgrwt>
<rscale>  2 0.20284816E+03</rscale>
<asrwt>0</asrwt>
<pdfrwt beam="1">  1        1 0.33279648E-01 0.20284816E+03</pdfrwt>
<pdfrwt beam="2">  1       -1 0.35591664E-01 0.20284816E+03</pdfrwt>
<totfact> 0.10055459E+03</totfact>
</mgrwt>
</event>
<event>
12    1  0.4154313E-002  0.1830716E+03  0.7546771E-02  0.1164863E+00
         -2   -1    0    0    0  501 -0.00000000000E+00  0.00000000000E+00  0.23348476273E+02  0.23348476273E+02  0.00000000000E+00 0. -1.
          2   -1    0    0  502    0  0.00000000000E+00 -0.00000000000E+00 -0.20470079274E+04  0.20470079274E+04  0.00000000000E+00 0.  1.
          6    2    1    2  502    0 -0.55572089783E+02 -0.33386517095E+02 -0.43752163776E+03  0.47343061626E+03  0.16884444977E+03 0.  0.
         24    2    3    3    0    0  0.49006675726E+01 -0.44927370461E+02 -0.12167442683E+03  0.15160504809E+03  0.78338619479E+02 0.  0.
         -6    2    1    2    0  501  0.55572089783E+02  0.33386517095E+02 -0.15861378134E+04  0.15969257874E+04  0.17359692054E+03 0.  0.
        -24    2    5    5    0    0  0.10097777045E+03 -0.46521121091E+00 -0.10744107424E+04  0.10820526958E+04  0.79264534755E+02 0.  0.
          5    1    3    3  502    0 -0.60472757356E+02  0.11540853366E+02 -0.31584721093E+03  0.32182556817E+03  0.47000000000E+01 0. -1.
        -13    1    4    4    0    0  0.13738803420E+02  0.13117510323E+02 -0.30408704732E+01  0.19237221466E+02  0.00000000000E+00 0.  1.
         14    1    4    4    0    0 -0.88381358474E+01 -0.58044880784E+02 -0.11863355636E+03  0.13236782662E+03  0.00000000000E+00 0. -1.
         -5    1    5    5    0  501 -0.45405680669E+02  0.33851728306E+02 -0.51172707094E+03  0.51487309162E+03  0.47000000000E+01 0.  1.
         13    1    6    6    0    0  0.74002804287E+02  0.29418954681E+02 -0.50706665751E+03  0.51328207167E+03  0.00000000000E+00 0. -1.
        -14    1    6    6    0    0  0.26974966165E+02 -0.29884165892E+02 -0.56734408492E+03  0.56877062413E+03  0.00000000000E+00 0.  1.
<mgrwt>
<rscale>  2 0.18307160E+03</rscale>
<asrwt>0</asrwt>
<pdfrwt beam="2">  1        2 0.31492429E+00 0.18307160E+03</pdfrwt>
<pdfrwt beam="1">  1       -2 0.35920734E-02 0.18307160E+03</pdfrwt>
<totfact> 0.22789462E+03</totfact>
</mgrwt>
</event>
<event>
12    1  0.4154313E-002  0.2343793E+03  0.7546771E-02  0.1123595E+00
          2   -1    0    0  502    0  0.00000000000E+00  0.00000000000E+00  0.73798679992E+03  0.73798679992E+03  0.00000000000E+00 0. -1.
         -2   -1    0    0    0  501 -0.00000000000E+00 -0.00000000000E+00 -0.77586427546E+02  0.77586427546E+02  0.00000000000E+00 0.  1.
          6    2    1    2  502    0 -0.85537176180E+02  0.13247458317E+03  0.24837883394E+03  0.34167478586E+03  0.17373396459E+03 0.  0.
         24    2    3    3    0    0 -0.24748141749E+02 -0.39640856186E+01  0.96892854446E+02  0.12888167265E+03  0.81203914981E+02 0.  0.
         -6    2    1    2    0  501  0.85537176180E+02 -0.13247458317E+03  0.41202153843E+03  0.47389844160E+03  0.17306606001E+03 0.  0.
        -24    2    5    5    0    0  0.28746539560E+02 -0.13162578748E+03  0.21686500748E+03  0.27059064924E+03  0.89650189737E+02 0.  0.
          5    1    3    3  502    0 -0.60789034431E+02  0.13643866878E+03  0.15148597950E+03  0.21279311321E+03  0.47000000000E+01 0. -1.
        -11    1    4    4    0    0  0.16532682721E+02  0.41057934621E+01 -0.57303900081E+01  0.17972882561E+02  0.00000000000E+00 0.  1.
         12    1    4    4    0    0 -0.41280824470E+02 -0.80698790807E+01  0.10262324445E+03  0.11090879009E+03  0.00000000000E+00 0. -1.
         -5    1    5    5    0  501  0.56790636620E+02 -0.84879568466E+00  0.19515653095E+03  0.20330779236E+03  0.47000000000E+01 0.  1.
         11    1    6    6    0    0  0.20976819697E+02 -0.91455672625E+02  0.20876484234E+03  0.22888190496E+03  0.00000000000E+00 0. -1.
        -12    1    6    6    0    0  0.77697198626E+01 -0.40170114855E+02  0.81001651403E+01  0.41708744282E+02  0.00000000000E+00 0.  1.
<mgrwt>
<rscale>  2 0.23437935E+03</rscale>
<asrwt>0</asrwt>
<pdfrwt beam="1">  1        2 0.11353643E+00 0.23437935E+03</pdfrwt>
<pdfrwt beam="2">  1       -2 0.11936374E-01 0.23437935E+03</pdfrwt>
<totfact> 0.19536571E+03</totfact>
</mgrwt>
</event>
<event>
12    1  0.4154313E-002  0.2451460E+03  0.7546771E-02  0.1116411E+00
          1   -1    0    0  502    0  0.00000000000E+00  0.00000000000E+00  0.35787079869E+03  0.35787079869E+03  0.00000000000E+00 0. -1.
         -1   -1    0    0    0  501 -0.00000000000E+00 -0.00000000000E+00 -0.17531074144E+03  0.17531074144E+03  0.00000000000E+00 0.  1.
          6    2    1    2  502    0  0.12448658078E+03 -0.12073199691E+03  0.14574596458E+03  0.28462955338E+03  0.17233389856E+03 0.  0.
         24    2    3    3    0    0  0.12933804308E+02 -0.10502654071E+03  0.83776729124E+02  0.15597124842E+03  0.78170534363E+02 0.  0.
         -6    2    1    2    0  501 -0.12448658078E+03  0.12073199691E+03  0.36814092674E+02  0.24855198675E+03  0.17421162081E+03 0.  0.
        -24    2    5    5    0    0 -0.32136450937E+02  0.73485049585E+02  0.73995346199E+02  0.13825531351E+03  0.84890614695E+02 0.  0.
          5    1    3    3  502    0  0.11155277647E+03 -0.15705456205E+02  0.61969235454E+02  0.12865830496E+03  0.47000000000E+01 0. -1.
        -11    1    4    4    0    0  0.30916607661E+00  0.12223222041E+02  0.15367004195E+02  0.19637911260E+02  0.00000000000E+00 0.  1.
         12    1    4    4    0    0  0.12624638231E+02 -0.11724976275E+03  0.68409724929E+02  0.13633333716E+03  0.00000000000E+00 0. -1.
         -5    1    5    5    0  501 -0.92350129841E+02  0.47246947328E+02 -0.37181253526E+02  0.11029667324E+03  0.47000000000E+01 0.  1.
         11    1    6    6    0    0  0.10819110961E+02 -0.13828021246E+02  0.21273288540E+02  0.27582968275E+02  0.00000000000E+00 0. -1.
        -12    1    6    6    0    0 -0.42955561898E+02  0.87313070831E+02  0.52722057659E+02  0.11067234523E+03  0.00000000000E+00 0.  1.
<mgrwt>
<rscale>  2 0.24514603E+03</rscale>
<asrwt>0</asrwt>
<pdfrwt beam="1">  1        1 0.55057046E-01 0.24514603E+03</pdfrwt>
<pdfrwt beam="2">  1       -1 0.26970883E-01 0.24514603E+03</pdfrwt>
<totfact> 0.85863988E+02</totfact>
</mgrwt>
</event>
<event>
12    1  0.4154313E-002  0.4293583E+03  0.7546771E-02  0.1034063E+00
         -2   -1    0    0    0  501 -0.00000000000E+00  0.00000000000E+00  0.17112585118E+04  0.17112585118E+04  0.00000000000E+00 0. -1.
          2   -1    0    0  502    0  0.00000000000E+00 -0.00000000000E+00 -0.10810030945E+03  0.10810030945E+03  0.00000000000E+00 0.  1.
          6    2    1    2  502    0 -0.39278822006E+03 -0.47371507639E+00  0.74762865395E+03  0.86201610182E+03  0.17274358270E+03 0.  0.
         24    2    3    3    0    0 -0.19422020524E+03 -0.29910720659E+01  0.51408843440E+03  0.55542399862E+03  0.80488913679E+02 0.  0.
         -6    2    1    2    0  501  0.39278822006E+03  0.47371507639E+00  0.85552954838E+03  0.95734271941E+03  0.17404443120E+03 0.  0.
        -24    2    5    5    0    0  0.37686913057E+03 -0.37433214023E+02  0.74006247440E+03  0.83468429998E+03  0.74658070749E+02 0.  0.
          5    1    3    3  502    0 -0.19856801482E+03  0.25173569896E+01  0.23354021955E+03  0.30659210320E+03  0.47000000000E+01 0. -1.
        -11    1    4    4    0    0 -0.60327233501E+02 -0.33491029824E+02  0.12450125025E+03  0.14234319616E+03  0.00000000000E+00 0.  1.
         12    1    4    4    0    0 -0.13389297174E+03  0.30499957758E+02  0.38958718415E+03  0.41308080246E+03  0.00000000000E+00 0. -1.
         -5    1    5    5    0  501  0.15919089494E+02  0.37906929099E+02  0.11546707397E+03  0.12265841943E+03  0.47000000000E+01 0.  1.
         11    1    6    6    0    0  0.12411471458E+03 -0.42000473286E+02  0.29607284091E+03  0.32377095184E+03  0.00000000000E+00 0. -1.
        -12    1    6    6    0    0  0.25275441599E+03  0.45672592632E+01  0.44398963350E+03  0.51091334814E+03  0.00000000000E+00 0.  1.
<mgrwt>
<rscale>  2 0.42935833E+03</rscale>
<asrwt>0</asrwt>
<pdfrwt beam="2">  1        2 0.16630818E-01 0.42935833E+03</pdfrwt>
<pdfrwt beam="1">  1       -2 0.26327052E+00 0.42935833E+03</pdfrwt>
<totfact> 0.20122744E+01</totfact>
</mgrwt>
</event>
<event>
12    1  0.4154313E-002  0.1960360E+03  0.7546771E-02  0.1153127E+00
          1   -1    0    0  502    0  0.00000000000E+00  0.00000000000E+00  0.50486921925E+03  0.50486921925E+03  0.00000000000E+00 0.  1.
         -1   -1    0    0    0  501 -0.00000000000E+00 -0.00000000000E+00 -0.78283206542E+02  0.78283206542E+02  0.00000000000E+00 0. -1.
          6    2    1    2  502    0  0.92230643183E+02 -0.91926296547E+01  0.16478795695E+03  0.25607859030E+03  0.17271415018E+03 0.  0.
         24    2    3    3    0    0  0.38619759971E+02 -0.71726011180E+02  0.96198611697E+02  0.14878861460E+03  0.79042851677E+02 0.  0.
         -6    2    1    2    0  501 -0.92230643183E+02  0.91926296547E+01  0.26179805576E+03  0.32707383549E+03  0.17276595696E+03 0.  0.
        -24    2    5    5    0    0 -0.95088783673E+02  0.43800752903E+02  0.11319861321E+03  0.17439844295E+03  0.81489313019E+02 0.  0.
          5    1    3    3  502    0  0.53610883212E+02  0.62533381525E+02  0.68589345253E+02  0.10728997570E+03  0.47000000000E+01 0. -1.
        -13    1    4    4    0    0  0.13735772344E+02 -0.49270864612E+02  0.10262014497E+03  0.11466116908E+03  0.00000000000E+00 0.  1.
         14    1    4    4    0    0  0.24883987627E+02 -0.22455146567E+02 -0.64215332765E+01  0.34127445512E+02  0.00000000000E+00 0. -1.
         -5    1    5    5    0  501  0.28581404902E+01 -0.34608123248E+02  0.14859944255E+03  0.15267539254E+03  0.47000000000E+01 0.  1.
         11    1    6    6    0    0 -0.79150265129E+02  0.34903761534E+02  0.33709718399E+02  0.92840627711E+02  0.00000000000E+00 0. -1.
        -12    1    6    6    0    0 -0.15938518544E+02  0.88969913688E+01  0.79488894808E+02  0.81557815240E+02  0.00000000000E+00 0.  1.
<mgrwt>
<rscale>  2 0.19603602E+03</rscale>
<asrwt>0</asrwt>
<pdfrwt beam="1">  1        1 0.77672186E-01 0.19603602E+03</pdfrwt>
<pdfrwt beam="2">  1       -1 0.12043571E-01 0.19603602E+03</pdfrwt>
<totfact> 0.20133078E+03</totfact>
</mgrwt>
</event>
<event>
12    1  0.4154313E-002  0.2438133E+03  0.7546771E-02  0.1117278E+00
         -2   -1    0    0    0  501 -0.00000000000E+00  0.00000000000E+00  0.18201571397E+03  0.18201571397E+03  0.00000000000E+00 0. -1.
          2   -1    0    0  502    0  0.00000000000E+00 -0.00000000000E+00 -0.33839655628E+03  0.33839655628E+03  0.00000000000E+00 0.  1.
          6    2    1    2  502    0  0.13197398971E+03 -0.10836329493E+03 -0.29583528551E+02  0.24557496908E+03  0.17398891526E+03 0.  0.
         24    2    3    3    0    0  0.64490861891E+02 -0.11506282115E+03 -0.66626072696E+02  0.16815987839E+03  0.80250776057E+02 0.  0.
         -6    2    1    2    0  501 -0.13197398971E+03  0.10836329493E+03 -0.12679731376E+03  0.27483730116E+03  0.17406391264E+03 0.  0.
        -24    2    5    5    0    0 -0.10318337200E+03  0.14630606064E+02 -0.11702196336E+03  0.17618455611E+03  0.80535675402E+02 0.  0.
          5    1    3    3  502    0  0.67483127816E+02  0.66995262167E+01  0.37042544144E+02  0.77415090700E+02  0.47000000000E+01 0. -1.
        -13    1    4    4    0    0  0.82886796884E+01  0.16695636741E+01 -0.33339125440E+02  0.34394577174E+02  0.00000000000E+00 0.  1.
         14    1    4    4    0    0  0.56202182203E+02 -0.11673238482E+03 -0.33286947255E+02  0.13376530121E+03  0.00000000000E+00 0. -1.
         -5    1    5    5    0  501 -0.28790617707E+02  0.93732688867E+02 -0.97753503992E+01  0.98652745048E+02  0.47000000000E+01 0.  1.
         13    1    6    6    0    0  0.75213091914E+01 -0.11009865119E+02 -0.37850751047E+00  0.13339058806E+02  0.00000000000E+00 0. -1.
        -14    1    6    6    0    0 -0.11070468119E+03  0.25640471183E+02 -0.11664345585E+03  0.16284549731E+03  0.00000000000E+00 0.  1.
<mgrwt>
<rscale>  2 0.24381331E+03</rscale>
<asrwt>0</asrwt>
<pdfrwt beam="2">  1        2 0.52061009E-01 0.24381331E+03</pdfrwt>
<pdfrwt beam="1">  1       -2 0.28002418E-01 0.24381331E+03</pdfrwt>
<totfact> 0.11111464E+03</totfact>
</mgrwt>
</event>
<event>
12    1  0.4154313E-002  0.2514255E+03  0.7546771E-02  0.1112407E+00
         -1   -1    0    0    0  501 -0.00000000000E+00  0.00000000000E+00  0.67343634924E+02  0.67343634924E+02  0.00000000000E+00 0. -1.
          1   -1    0    0  502    0  0.00000000000E+00 -0.00000000000E+00 -0.93938937816E+03  0.93938937816E+03  0.00000000000E+00 0.  1.
          6    2    1    2  502    0  0.17828077830E+03  0.49089949321E+02 -0.45301458931E+03  0.51926595482E+03  0.17384203943E+03 0.  0.
         24    2    3    3    0    0  0.14854989003E+03  0.79702347230E+02 -0.43293749133E+03  0.47187160403E+03  0.82513061444E+02 0.  0.
         -6    2    1    2    0  501 -0.17828077830E+03 -0.49089949321E+02 -0.41903115393E+03  0.48746705827E+03  0.16686271571E+03 0.  0.
        -24    2    5    5    0    0 -0.81795211295E+02  0.97585922204E+01 -0.11440078562E+03  0.16251418972E+03  0.80855645418E+02 0.  0.
          5    1    3    3  502    0  0.29730888278E+02 -0.30612397910E+02 -0.20077097977E+02  0.47394350789E+02  0.47000000000E+01 0. -1.
        -11    1    4    4    0    0  0.15061620399E+03  0.61086784218E+02 -0.41598199819E+03  0.44660705204E+03  0.00000000000E+00 0.  1.
         12    1    4    4    0    0 -0.20663139676E+01  0.18615563012E+02 -0.16955493138E+02  0.25264551990E+02  0.00000000000E+00 0. -1.
         -5    1    5    5    0  501 -0.96485567008E+02 -0.58848541541E+02 -0.30463036831E+03  0.32495286855E+03  0.47000000000E+01 0.  1.
         13    1    6    6    0    0 -0.65815461131E+02 -0.19458400685E+02 -0.10895684853E+03  0.12877072308E+03  0.00000000000E+00 0. -1.
        -14    1    6    6    0    0 -0.15979750164E+02  0.29216992906E+02 -0.54439370933E+01  0.33743466639E+02  0.00000000000E+00 0.  1.
<mgrwt>
<rscale>  2 0.25142551E+03</rscale>
<asrwt>0</asrwt>
<pdfrwt beam="2">  1        1 0.14452143E+00 0.25142551E+03</pdfrwt>
<pdfrwt beam="1">  1       -1 0.10360560E-01 0.25142551E+03</pdfrwt>
<totfact> 0.10281010E+03</totfact>
</mgrwt>
</event>
<event>
12    1  0.4154313E-002  0.1908888E+03  0.7546771E-02  0.1157662E+00
         -2   -1    0    0    0  501 -0.00000000000E+00  0.00000000000E+00  0.68478067877E+02  0.68478067877E+02  0.00000000000E+00 0.  1.
          2   -1    0    0  502    0  0.00000000000E+00 -0.00000000000E+00 -0.58057395281E+03  0.58057395281E+03  0.00000000000E+00 0. -1.
          6    2    1    2  502    0 -0.76736070951E+02 -0.44703551653E+02 -0.34828573314E+03  0.39658655835E+03  0.16760404004E+03 0.  0.
         24    2    3    3    0    0 -0.30601470726E+02 -0.17834362641E+01 -0.76582335343E+02  0.11763250475E+03  0.83862515059E+02 0.  0.
         -6    2    1    2    0  501  0.76736070951E+02  0.44703551653E+02 -0.16381015179E+03  0.25246546234E+03  0.17034732674E+03 0.  0.
        -24    2    5    5    0    0 -0.22543351343E+02  0.41957518033E+02 -0.99128338419E+02  0.13384939524E+03  0.76292837933E+02 0.  0.
          5    1    3    3  502    0 -0.46134600224E+02 -0.42920115389E+02 -0.27170339780E+03  0.27895405360E+03  0.47000000000E+01 0. -1.
        -13    1    4    4    0    0 -0.49098599502E+02 -0.16365626732E+02 -0.78473148277E+02  0.94002878743E+02  0.00000000000E+00 0.  1.
         14    1    4    4    0    0  0.18497128776E+02  0.14582190468E+02  0.18908129342E+01  0.23629626009E+02  0.00000000000E+00 0. -1.
         -5    1    5    5    0  501  0.99279422294E+02  0.27460336197E+01 -0.64681813370E+02  0.11861606709E+03  0.47000000000E+01 0.  1.
         13    1    6    6    0    0 -0.11464092309E+02 -0.20693344419E+02 -0.13716594327E+02  0.27345655517E+02  0.00000000000E+00 0. -1.
        -14    1    6    6    0    0 -0.11079259034E+02  0.62650862452E+02 -0.85411744092E+02  0.10650373973E+03  0.00000000000E+00 0.  1.
<mgrwt>
<rscale>  2 0.19088883E+03</rscale>
<asrwt>0</asrwt>
<pdfrwt beam="2">  1        2 0.89319067E-01 0.19088883E+03</pdfrwt>
<pdfrwt beam="1">  1       -2 0.10535088E-01 0.19088883E+03</pdfrwt>
<totfact> 0.31576753E+03</totfact>
</mgrwt>
</event>
<event>
12    1  0.4154313E-002  0.1846582E+03  0.7546771E-02  0.1163369E+00
          2   -1    0    0  502    0  0.00000000000E+00  0.00000000000E+00  0.11991521536E+04  0.11991521536E+04  0.00000000000E+00 0. -1.
         -2   -1    0    0    0  501 -0.00000000000E+00 -0.00000000000E+00 -0.31708144169E+02  0.31708144169E+02  0.00000000000E+00 0.  1.
          6    2    1    2  502    0  0.14078190238E+02 -0.62995681200E+02  0.38338663614E+03  0.42513624666E+03  0.17201413944E+03 0.  0.
         24    2    3    3    0    0 -0.14636988904E+02 -0.10464733805E+03  0.24864163493E+03  0.28113024893E+03  0.77757619809E+02 0.  0.
         -6    2    1    2    0  501 -0.14078190238E+02  0.62995681200E+02  0.78405737324E+03  0.80572405106E+03  0.17400755910E+03 0.  0.
        -24    2    5    5    0    0 -0.15150238208E+02 -0.17621594484E+02  0.58469016244E+03  0.59062019435E+03  0.80184646996E+02 0.  0.
          5    1    3    3  502    0  0.28715179142E+02  0.41651656852E+02  0.13474500122E+03  0.14400599774E+03  0.47000000000E+01 0. -1.
        -13    1    4    4    0    0  0.25331372382E+02 -0.55039665127E+02  0.16649027284E+03  0.17717238530E+03  0.00000000000E+00 0.  1.
         14    1    4    4    0    0 -0.39968361286E+02 -0.49607672924E+02  0.82151362090E+02  0.10395786363E+03  0.00000000000E+00 0. -1.
         -5    1    5    5    0  501  0.10720479703E+01  0.80617275684E+02  0.19936721081E+03  0.21510385671E+03  0.47000000000E+01 0.  1.
         13    1    6    6    0    0 -0.39419869669E+02  0.73109056449E+01  0.17872029923E+03  0.18316200704E+03  0.00000000000E+00 0. -1.
        -14    1    6    6    0    0  0.24269631461E+02 -0.24932500129E+02  0.40596986320E+03  0.40745818730E+03  0.00000000000E+00 0.  1.
<mgrwt>
<rscale>  2 0.18465821E+03</rscale>
<asrwt>0</asrwt>
<pdfrwt beam="1">  1        2 0.18448491E+00 0.18465821E+03</pdfrwt>
<pdfrwt beam="2">  1       -2 0.48781769E-02 0.18465821E+03</pdfrwt>
<totfact> 0.40331528E+03</totfact>
</mgrwt>
</event>
<event>
12    1  0.4154313E-002  0.1778085E+03  0.7546771E-02  0.1169941E+00
         -1   -1    0    0    0  501 -0.00000000000E+00  0.00000000000E+00  0.63347033941E+02  0.63347033941E+02  0.00000000000E+00 0. -1.
          1   -1    0    0  502    0  0.00000000000E+00 -0.00000000000E+00 -0.50903836299E+03  0.50903836299E+03  0.00000000000E+00 0.  1.
          6    2    1    2  502    0  0.17646133912E+02 -0.35577504253E+02 -0.26176658718E+03  0.31596082343E+03  0.17243071342E+03 0.  0.
         24    2    3    3    0    0  0.48080489667E+02  0.30448487054E+02 -0.17833450157E+03  0.20519672976E+03  0.84045580505E+02 0.  0.
         -6    2    1    2    0  501 -0.17646133912E+02  0.35577504253E+02 -0.18392474187E+03  0.25642457350E+03  0.17420707900E+03 0.  0.
        -24    2    5    5    0    0  0.41796811591E+01 -0.57018922717E+01 -0.15782601057E+02  0.81855892752E+02  0.80008220653E+02 0.  0.
          5    1    3    3  502    0 -0.30434355755E+02 -0.66025991307E+02 -0.83432085608E+02  0.11076409367E+03  0.47000000000E+01 0. -1.
        -11    1    4    4    0    0  0.16822174192E+02 -0.20676201267E+02 -0.11483084161E+03  0.11788389639E+03  0.00000000000E+00 0.  1.
         12    1    4    4    0    0  0.31258315474E+02  0.51124688322E+02 -0.63503659964E+02  0.87312833370E+02  0.00000000000E+00 0. -1.
         -5    1    5    5    0  501 -0.21825815071E+02  0.41279396525E+02 -0.16814214081E+03  0.17456868075E+03  0.47000000000E+01 0.  1.
         13    1    6    6    0    0 -0.45355557204E+01 -0.42228632680E+02 -0.11879039993E+02  0.44101477014E+02  0.00000000000E+00 0. -1.
        -14    1    6    6    0    0  0.87152368795E+01  0.36526740408E+02 -0.39035610632E+01  0.37754415737E+02  0.00000000000E+00 0.  1.
<mgrwt>
<rscale>  2 0.17780853E+03</rscale>
<asrwt>0</asrwt>
<pdfrwt beam="2">  1        1 0.78313596E-01 0.17780853E+03</pdfrwt>
<pdfrwt beam="1">  1       -1 0.97456973E-02 0.17780853E+03</pdfrwt>
<totfact> 0.27550537E+03</totfact>
</mgrwt>
</event>
<event>
12    1  0.4154313E-002  0.1938948E+03  0.7546771E-02  0.1154995E+00
         -2   -1    0    0    0  501 -0.00000000000E+00  0.00000000000E+00  0.37270323193E+03  0.37270323193E+03  0.00000000000E+00 0. -1.
          2   -1    0    0  502    0  0.00000000000E+00 -0.00000000000E+00 -0.11997653915E+03  0.11997653915E+03  0.00000000000E+00 0.  1.
          6    2    1    2  502    0  0.14415205156E+02  0.81415315949E+02  0.22316892916E+03  0.29392850709E+03  0.17249157813E+03 0.  0.
         24    2    3    3    0    0  0.54060443179E+02  0.93953038547E+02  0.11413320624E+03  0.17713887459E+03  0.81253228586E+02 0.  0.
         -6    2    1    2    0  501 -0.14415205156E+02 -0.81415315949E+02  0.29557763620E+02  0.19875126399E+03  0.17830353820E+03 0.  0.
        -24    2    5    5    0    0 -0.42078371470E+02 -0.11157937471E+03  0.50669456798E+02  0.15245963623E+03  0.80349241581E+02 0.  0.
          5    1    3    3  502    0 -0.39645238023E+02 -0.12537722599E+02  0.10903572292E+03  0.11678963250E+03  0.47000000000E+01 0. -1.
        -13    1    4    4    0    0  0.28133995838E+02  0.34677988687E+01 -0.10762213359E+01  0.28367333381E+02  0.00000000000E+00 0.  1.
         14    1    4    4    0    0  0.25926447342E+02  0.90485239679E+02  0.11520942758E+03  0.14877154121E+03  0.00000000000E+00 0. -1.
         -5    1    5    5    0  501  0.27663166314E+02  0.30164058758E+02 -0.21111693178E+02  0.46291627754E+02  0.47000000000E+01 0.  1.
         11    1    6    6    0    0 -0.64989915983E+02 -0.69823672607E+02  0.41164101157E+02  0.10389185560E+03  0.00000000000E+00 0. -1.
        -12    1    6    6    0    0  0.22911544513E+02 -0.41755702099E+02  0.95053556415E+01  0.48567780634E+02  0.00000000000E+00 0.  1.
<mgrwt>
<rscale>  2 0.19389477E+03</rscale>
<asrwt>0</asrwt>
<pdfrwt beam="2">  1        2 0.18457929E-01 0.19389477E+03</pdfrwt>
<pdfrwt beam="1">  1       -2 0.57338958E-01 0.19389477E+03</pdfrwt>
<totfact> 0.87994620E+02</totfact>
</mgrwt>
</event>
<event>
12    1  0.4154313E-002  0.2148201E+03  0.7546771E-02  0.1137805E+00
         -1   -1    0    0    0  501 -0.00000000000E+00  0.00000000000E+00  0.30962221031E+02  0.30962221031E+02  0.00000000000E+00 0. -1.
          1   -1    0    0  502    0  0.00000000000E+00 -0.00000000000E+00 -0.15912254089E+04  0.15912254089E+04  0.00000000000E+00 0.  1.
          6    2    1    2  502    0 -0.44866870153E+02  0.12076840793E+03 -0.57407320208E+03  0.61274933479E+03  0.17118312285E+03 0.  0.
         24    2    3    3    0    0 -0.23501318444E+02  0.13751765097E+03 -0.33114930679E+03  0.36826797999E+03  0.80610330618E+02 0.  0.
         -6    2    1    2    0  501  0.44866870153E+02 -0.12076840793E+03 -0.98618998575E+03  0.10094382951E+04  0.17261789949E+03 0.  0.
        -24    2    5    5    0    0  0.54517074043E+02 -0.49956605006E+02 -0.83420520463E+03  0.84142370775E+03  0.81411048333E+02 0.  0.
          5    1    3    3  502    0 -0.21365551709E+02 -0.16749243040E+02 -0.24292389529E+03  0.24448135480E+03  0.47000000000E+01 0. -1.
        -11    1    4    4    0    0 -0.48490651063E+02  0.12039746611E+03 -0.25075007947E+03  0.28235172292E+03  0.00000000000E+00 0.  1.
         12    1    4    4    0    0  0.24989332618E+02  0.17120184867E+02 -0.80399227322E+02  0.85916257068E+02  0.00000000000E+00 0. -1.
         -5    1    5    5    0  501 -0.96502038898E+01 -0.70811802926E+02 -0.15198478112E+03  0.16801458734E+03  0.47000000000E+01 0.  1.
         13    1    6    6    0    0  0.68849022559E+02 -0.54039339786E+02 -0.55853678581E+03  0.56535279185E+03  0.00000000000E+00 0. -1.
        -14    1    6    6    0    0 -0.14331948516E+02  0.40827347796E+01 -0.27566841882E+03  0.27607091591E+03  0.00000000000E+00 0.  1.
<mgrwt>
<rscale>  2 0.21482012E+03</rscale>
<asrwt>0</asrwt>
<pdfrwt beam="2">  1        1 0.24480389E+00 0.21482012E+03</pdfrwt>
<pdfrwt beam="1">  1       -1 0.47634189E-02 0.21482012E+03</pdfrwt>
<totfact> 0.11833457E+03</totfact>
</mgrwt>
</event>
<event>
12    1  0.4154313E-002  0.1796470E+03  0.7546771E-02  0.1168145E+00
          2   -1    0    0  502    0  0.00000000000E+00  0.00000000000E+00  0.59531811931E+03  0.59531811931E+03  0.00000000000E+00 0.  1.
         -2   -1    0    0    0  501 -0.00000000000E+00 -0.00000000000E+00 -0.73139026590E+02  0.73139026590E+02  0.00000000000E+00 0. -1.
          6    2    1    2  502    0  0.31880823463E+02  0.37451938621E+02  0.43102098883E+03  0.46692655765E+03  0.17269129341E+03 0.  0.
         24    2    3    3    0    0  0.42831207133E+02 -0.41186725023E+02  0.24837989376E+03  0.26771860116E+03  0.80310766149E+02 0.  0.
         -6    2    1    2    0  501 -0.31880823463E+02 -0.37451938621E+02  0.91158103888E+02  0.20153058824E+03  0.17287493596E+03 0.  0.
        -24    2    5    5    0    0  0.41352339166E+02 -0.27921197184E+02  0.13968171607E+02  0.94599270164E+02  0.79147349234E+02 0.  0.
          5    1    3    3  502    0 -0.10950383670E+02  0.78638663645E+02  0.18264109507E+03  0.19920795649E+03  0.47000000000E+01 0. -1.
        -13    1    4    4    0    0  0.41036843500E+02  0.14691916101E+02  0.12093583733E+03  0.12855096917E+03  0.00000000000E+00 0.  1.
         14    1    4    4    0    0  0.17943636331E+01 -0.55878641124E+02  0.12744405643E+03  0.13916763199E+03  0.00000000000E+00 0. -1.
         -5    1    5    5    0  501 -0.73233162629E+02 -0.95307414372E+01  0.77189932281E+02  0.10693131808E+03  0.47000000000E+01 0.  1.
         13    1    6    6    0    0  0.34461541043E+02 -0.41645512079E+02  0.38003062190E+02  0.66077070329E+02  0.00000000000E+00 0. -1.
        -14    1    6    6    0    0  0.68907981231E+01  0.13724314895E+02 -0.24034890583E+02  0.28522199835E+02  0.00000000000E+00 0.  1.
<mgrwt>
<rscale>  2 0.17964697E+03</rscale>
<asrwt>0</asrwt>
<pdfrwt beam="1">  1        2 0.91587400E-01 0.17964697E+03</pdfrwt>
<pdfrwt beam="2">  1       -2 0.11252158E-01 0.17964697E+03</pdfrwt>
<totfact> 0.27572122E+03</totfact>
</mgrwt>
</event>
<event>
12    1  0.4154313E-002  0.1881155E+03  0.7546771E-02  0.1160172E+00
         -1   -1    0    0    0  501 -0.00000000000E+00  0.00000000000E+00  0.23011642866E+04  0.23011642866E+04  0.00000000000E+00 0. -1.
          1   -1    0    0  502    0  0.00000000000E+00 -0.00000000000E+00 -0.32306506637E+02  0.32306506637E+02  0.00000000000E+00 0.  1.
          6    2    1    2  502    0  0.73932283791E+02  0.84303757526E+01  0.28933417898E+03  0.34501160191E+03  0.17257370746E+03 0.  0.
         24    2    3    3    0    0  0.39721437457E+02  0.71039810141E+02  0.15233648614E+03  0.19047752436E+03  0.80317090700E+02 0.  0.
         -6    2    1    2    0  501 -0.73932283791E+02 -0.84303757526E+01  0.19795236010E+04  0.19884591913E+04  0.17297171703E+03 0.  0.
        -24    2    5    5    0    0  0.42145011648E+01 -0.32323306959E+02  0.14598683067E+04  0.14623969260E+04  0.79540794349E+02 0.  0.
          5    1    3    3  502    0  0.34210846334E+02 -0.62609434389E+02  0.13699769284E+03  0.15453407755E+03  0.47000000000E+01 0. -1.
        -11    1    4    4    0    0  0.16106151658E+00  0.30997779171E+02  0.33092489428E+01  0.31174338532E+02  0.00000000000E+00 0.  1.
         12    1    4    4    0    0  0.39560375940E+02  0.40042030971E+02  0.14902723719E+03  0.15930318583E+03  0.00000000000E+00 0. -1.
         -5    1    5    5    0  501 -0.78146784955E+02  0.23892931207E+02  0.51965529424E+03  0.52606226532E+03  0.47000000000E+01 0.  1.
         13    1    6    6    0    0 -0.56317055389E+00 -0.23808424583E+02  0.14405929021E+04  0.14407897375E+04  0.00000000000E+00 0. -1.
        -14    1    6    6    0    0  0.47776717187E+01 -0.85148823761E+01  0.19275404648E+02  0.21607188463E+02  0.00000000000E+00 0.  1.
<mgrwt>
<rscale>  2 0.18811549E+03</rscale>
<asrwt>0</asrwt>
<pdfrwt beam="2">  1        1 0.49702336E-02 0.18811549E+03</pdfrwt>
<pdfrwt beam="1">  1       -1 0.35402515E+00 0.18811549E+03</pdfrwt>
<totfact> 0.30181514E+01</totfact>
</mgrwt>
</event>
<event>
12    1  0.4154313E-002  0.2361943E+03  0.7546771E-02  0.1122354E+00
         -1   -1    0    0    0  501 -0.00000000000E+00  0.00000000000E+00  0.29468633710E+02  0.29468633710E+02  0.00000000000E+00 0.  1.
          1   -1    0    0  502    0  0.00000000000E+00 -0.00000000000E+00 -0.21804665760E+04  0.21804665760E+04  0.00000000000E+00 0. -1.
          6    2    1    2  502    0 -0.40191293622E+02 -0.15511021082E+03 -0.67371876458E+03  0.71386688351E+03  0.17330446053E+03 0.  0.
         24    2    3    3    0    0 -0.16269720407E+02 -0.16818650961E+03 -0.44121825985E+03  0.47972631471E+03  0.83140714390E+02 0.  0.
         -6    2    1    2    0  501  0.40191293622E+02  0.15511021082E+03 -0.14772791777E+04  0.14960683262E+04  0.17375888519E+03 0.  0.
        -24    2    5    5    0    0 -0.27372653244E+02  0.77626846473E+02 -0.10745957374E+04  0.10804427715E+04  0.76324269315E+02 0.  0.
          5    1    3    3  502    0 -0.23921573214E+02  0.13076298788E+02 -0.23250050473E+03  0.23414056879E+03  0.47000000000E+01 0. -1.
        -11    1    4    4    0    0 -0.48134899527E+02 -0.89132211825E+02 -0.27207091050E+03  0.29031724040E+03  0.00000000000E+00 0.  1.
         12    1    4    4    0    0  0.31865179120E+02 -0.79054297782E+02 -0.16914734935E+03  0.18940907431E+03  0.00000000000E+00 0. -1.
         -5    1    5    5    0  501  0.67563946866E+02  0.77483364347E+02 -0.40268344023E+03  0.41562555468E+03  0.47000000000E+01 0.  1.
         11    1    6    6    0    0  0.15827239215E+02  0.61083743116E+02 -0.49537208006E+03  0.49937483204E+03  0.00000000000E+00 0. -1.
        -12    1    6    6    0    0 -0.43199892459E+02  0.16543103357E+02 -0.57922365738E+03  0.58106793944E+03  0.00000000000E+00 0.  1.
<mgrwt>
<rscale>  2 0.23619432E+03</rscale>
<asrwt>0</asrwt>
<pdfrwt beam="2">  1        1 0.33545646E+00 0.23619432E+03</pdfrwt>
<pdfrwt beam="1">  1       -1 0.45336350E-02 0.23619432E+03</pdfrwt>
<totfact> 0.52758352E+02</totfact>
</mgrwt>
</event>
<event>
12    1  0.4154313E-002  0.2217120E+03  0.7546771E-02  0.1132613E+00
         -2   -1    0    0    0  501 -0.00000000000E+00  0.00000000000E+00  0.25983610187E+02  0.25983610187E+02  0.00000000000E+00 0. -1.
          2   -1    0    0  502    0  0.00000000000E+00 -0.00000000000E+00 -0.20320702278E+04  0.20320702278E+04  0.00000000000E+00 0.  1.
          6    2    1    2  502    0  0.11064280535E+03  0.86732315173E+02 -0.12688070903E+04  0.12878481161E+04  0.17005003092E+03 0.  0.
         24    2    3    3    0    0  0.93338411625E+02  0.94684054939E+02 -0.12535273912E+04  0.12629838564E+04  0.78231526686E+02 0.  0.
         -6    2    1    2    0  501 -0.11064280535E+03 -0.86732315173E+02 -0.73727952736E+03  0.77020572188E+03  0.17283352592E+03 0.  0.
        -24    2    5    5    0    0 -0.67065279444E+02 -0.12463506761E+03 -0.56815274540E+03  0.59142770930E+03  0.83411878276E+02 0.  0.
          5    1    3    3  502    0  0.17304393720E+02 -0.79517397669E+01 -0.15279699113E+02  0.24864259738E+02  0.47000000000E+01 0. -1.
        -11    1    4    4    0    0  0.24890848428E+02  0.32482094646E+00 -0.48774592925E+03  0.48838074424E+03  0.00000000000E+00 0.  1.
         12    1    4    4    0    0  0.68447563197E+02  0.94359233993E+02 -0.76578146192E+03  0.77460311216E+03  0.00000000000E+00 0. -1.
         -5    1    5    5    0  501 -0.43577525901E+02  0.37902752434E+02 -0.16912678196E+03  0.17877801258E+03  0.47000000000E+01 0.  1.
         13    1    6    6    0    0 -0.79519988895E+02 -0.73908008992E+02 -0.32247577742E+03  0.34025938554E+03  0.00000000000E+00 0. -1.
        -14    1    6    6    0    0  0.12454709451E+02 -0.50727058614E+02 -0.24567696798E+03  0.25116832376E+03  0.00000000000E+00 0.  1.
<mgrwt>
<rscale>  2 0.22171204E+03</rscale>
<asrwt>0</asrwt>
<pdfrwt beam="2">  1        2 0.31262624E+00 0.22171204E+03</pdfrwt>
<pdfrwt beam="1">  1       -2 0.39974779E-02 0.22171204E+03</pdfrwt>
<totfact> 0.19717922E+03</totfact>
</mgrwt>
</event>
<event>
12    1  0.4817877E-002  0.1823679E+03  0.7546771E-02  0.1165531E+00
          2   -1    0    0  502    0  0.00000000000E+00  0.00000000000E+00  0.10956876349E+04  0.10956876349E+04  0.00000000000E+00 0.  1.
         -2   -1    0    0    0  501 -0.00000000000E+00 -0.00000000000E+00 -0.33667048301E+02  0.33667048301E+02  0.00000000000E+00 0. -1.
          6    2    1    2  502    0 -0.55896997519E+02  0.27616531616E+02  0.71051708218E+03  0.73377442195E+03  0.17234625351E+03 0.  0.
         24    2    3    3    0    0 -0.81485610248E+02  0.36988784874E+02  0.68712766159E+03  0.69755603950E+03  0.80199314388E+02 0.  0.
         -6    2    1    2    0  501  0.55896997519E+02 -0.27616531616E+02  0.35150350444E+03  0.39558026126E+03  0.17041679001E+03 0.  0.
        -24    2    5    5    0    0  0.19754650275E+02 -0.47869027724E+02  0.33800605737E+03  0.35175442482E+03  0.82470543438E+02 0.  0.
          5    1    3    3  502    0  0.25588612729E+02 -0.93722532579E+01  0.23389420581E+02  0.36218382455E+02  0.47000000000E+01 0. -1.
        -13    1    4    4    0    0 -0.25452862301E+02 -0.60280881684E+01  0.43310298082E+03  0.43389212719E+03  0.00000000000E+00 0.  1.
         14    1    4    4    0    0 -0.56032747947E+02  0.43016873042E+02  0.25402468078E+03  0.26366391231E+03  0.00000000000E+00 0. -1.
         -5    1    5    5    0  501  0.36142347245E+02  0.20252496108E+02  0.13497447068E+02  0.43825836447E+02  0.47000000000E+01 0.  1.
         11    1    6    6    0    0  0.19859592918E+02 -0.16543721117E+02  0.21272662039E+02  0.33475726870E+02  0.00000000000E+00 0. -1.
        -12    1    6    6    0    0 -0.10494264327E+00 -0.31325306607E+02  0.31673339533E+03  0.31827869795E+03  0.00000000000E+00 0.  1.
<mgrwt>
<rscale>  2 0.18236792E+03</rscale>
<asrwt>0</asrwt>
<pdfrwt beam="1">  1        2 0.16856730E+00 0.18236792E+03</pdfrwt>
<pdfrwt beam="2">  1       -2 0.51795467E-02 0.18236792E+03</pdfrwt>
<totfact> 0.42184055E+03</totfact>
</mgrwt>
</event>
<event>
12    1  0.4154313E-002  0.3482584E+03  0.7546771E-02  0.1063332E+00
          1   -1    0    0  502    0  0.00000000000E+00  0.00000000000E+00  0.18811190004E+03  0.18811190004E+03  0.00000000000E+00 0. -1.
         -1   -1    0    0    0  501 -0.00000000000E+00 -0.00000000000E+00 -0.68608604204E+03  0.68608604204E+03  0.00000000000E+00 0.  1.
          6    2    1    2  502    0 -0.10308145232E+03 -0.28441447156E+03 -0.35666582389E+03  0.49889133980E+03  0.17367982483E+03 0.  0.
         24    2    3    3    0    0 -0.11458122644E+03 -0.15077183987E+03 -0.26669658355E+03  0.33730807329E+03  0.82393346079E+02 0.  0.
         -6    2    1    2    0  501  0.10308145232E+03  0.28441447156E+03 -0.14130831811E+03  0.37530660228E+03  0.17137569110E+03 0.  0.
        -24    2    5    5    0    0  0.24806240106E+02  0.23408811634E+03 -0.69307853563E+02  0.25755301307E+03  0.78213683043E+02 0.  0.
          5    1    3    3  502    0  0.11499774121E+02 -0.13364263169E+03 -0.89969240339E+02  0.16158326651E+03  0.47000000000E+01 0. -1.
        -11    1    4    4    0    0 -0.17255520274E+02 -0.90260409238E+02 -0.12099640623E+03  0.15193691051E+03  0.00000000000E+00 0.  1.
         12    1    4    4    0    0 -0.97325706162E+02 -0.60511430630E+02 -0.14570017733E+03  0.18537116278E+03  0.00000000000E+00 0. -1.
         -5    1    5    5    0  501  0.78275212209E+02  0.50326355216E+02 -0.72000464547E+02  0.11775358921E+03  0.47000000000E+01 0.  1.
         13    1    6    6    0    0 -0.20225145000E+02  0.13936696428E+03 -0.57107124798E+02  0.15196522933E+03  0.00000000000E+00 0. -1.
        -14    1    6    6    0    0  0.45031385106E+02  0.94721152060E+02 -0.12200728765E+02  0.10558778374E+03  0.00000000000E+00 0.  1.
<mgrwt>
<rscale>  2 0.34825835E+03</rscale>
<asrwt>0</asrwt>
<pdfrwt beam="1">  1        1 0.28940292E-01 0.34825835E+03</pdfrwt>
<pdfrwt beam="2">  1       -1 0.10555170E+00 0.34825835E+03</pdfrwt>
<totfact> 0.14127015E+02</totfact>
</mgrwt>
</event>
<event>
12    1  0.4154313E-002  0.1843600E+03  0.7546771E-02  0.1163649E+00
          2   -1    0    0  502    0  0.00000000000E+00  0.00000000000E+00  0.46070779165E+03  0.46070779165E+03  0.00000000000E+00 0. -1.
         -2   -1    0    0    0  501 -0.00000000000E+00 -0.00000000000E+00 -0.87754366960E+02  0.87754366960E+02  0.00000000000E+00 0.  1.
          6    2    1    2  502    0 -0.47278681812E+02 -0.43591113256E+02  0.77133135736E+02  0.19996450581E+03  0.17291854743E+03 0.  0.
         24    2    3    3    0    0  0.29650196450E+02 -0.60161282905E+02  0.59963477323E+02  0.11928297135E+03  0.78321737276E+02 0.  0.
         -6    2    1    2    0  501  0.47278681812E+02  0.43591113256E+02  0.29582028896E+03  0.34849765281E+03  0.17264272862E+03 0.  0.
        -24    2    5    5    0    0  0.51580150155E+02 -0.34313698424E+02  0.19829540915E+03  0.22351423593E+03  0.82459702788E+02 0.  0.
          5    1    3    3  502    0 -0.76928878263E+02  0.16570169649E+02  0.17169658413E+02  0.80681534461E+02  0.47000000000E+01 0. -1.
        -13    1    4    4    0    0  0.29625999414E+02 -0.38708429018E+02 -0.67456445773E+01  0.49209206853E+02  0.00000000000E+00 0.  1.
         14    1    4    4    0    0  0.24197035850E-01 -0.21452853887E+02  0.66709121900E+02  0.70073764492E+02  0.00000000000E+00 0. -1.
         -5    1    5    5    0  501 -0.43014683423E+01  0.77904811681E+02  0.97524879810E+02  0.12498341688E+03  0.47000000000E+01 0.  1.
         13    1    6    6    0    0  0.49942114433E+02 -0.10436103540E+02  0.43998319617E+02  0.67371946538E+02  0.00000000000E+00 0. -1.
        -14    1    6    6    0    0  0.16380357215E+01 -0.23877594884E+02  0.15429708953E+03  0.15614228939E+03  0.00000000000E+00 0.  1.
<mgrwt>
<rscale>  2 0.18435996E+03</rscale>
<asrwt>0</asrwt>
<pdfrwt beam="1">  1        2 0.70878120E-01 0.18435996E+03</pdfrwt>
<pdfrwt beam="2">  1       -2 0.13500672E-01 0.18435996E+03</pdfrwt>
<totfact> 0.27413453E+03</totfact>
</mgrwt>
</event>
<event>
12    1  0.4154313E-002  0.1732265E+03  0.7546771E-02  0.1174524E+00
          2   -1    0    0  502    0  0.00000000000E+00  0.00000000000E+00  0.50489329792E+03  0.50489329792E+03  0.00000000000E+00 0. -1.
         -2   -1    0    0    0  501 -0.00000000000E+00 -0.00000000000E+00 -0.59586479265E+02  0.59586479265E+02  0.00000000000E+00 0.  1.
          6    2    1    2  502    0  0.65135983788E+00  0.20628113878E+02  0.20694869152E+03  0.26912235237E+03  0.17080145278E+03 0.  0.
         24    2    3    3    0    0 -0.59094897876E+02 -0.16291685124E+02  0.12604128549E+03  0.16188063838E+03  0.81001910315E+02 0.  0.
         -6    2    1    2    0  501 -0.65135983788E+00 -0.20628113878E+02  0.23835812713E+03  0.29535742482E+03  0.17319199829E+03 0.  0.
        -24    2    5    5    0    0 -0.53905725489E+02 -0.20606980285E+02  0.21467580931E+03  0.23688546500E+03  0.81844642755E+02 0.  0.
          5    1    3    3  502    0  0.59746257713E+02  0.36919799002E+02  0.80907406028E+02  0.10724171399E+03  0.47000000000E+01 0. -1.
        -11    1    4    4    0    0 -0.10241250880E+02 -0.38864633988E+02  0.24806606546E+02  0.47230400410E+02  0.00000000000E+00 0.  1.
         12    1    4    4    0    0 -0.48853646995E+02  0.22572948864E+02  0.10123467895E+03  0.11465023797E+03  0.00000000000E+00 0. -1.
         -5    1    5    5    0  501  0.53254365651E+02 -0.21133593003E-01  0.23682317826E+02  0.58471959819E+02  0.47000000000E+01 0.  1.
         13    1    6    6    0    0 -0.54163382729E+02 -0.38789023099E+02  0.96160808205E+02  0.11698359448E+03  0.00000000000E+00 0. -1.
        -14    1    6    6    0    0  0.25765724046E+00  0.18182042814E+02  0.11851500110E+03  0.11990187052E+03  0.00000000000E+00 0.  1.
<mgrwt>
<rscale>  2 0.17322652E+03</rscale>
<asrwt>0</asrwt>
<pdfrwt beam="1">  1        2 0.77675889E-01 0.17322652E+03</pdfrwt>
<pdfrwt beam="2">  1       -2 0.91671510E-02 0.17322652E+03</pdfrwt>
<totfact> 0.45866271E+03</totfact>
</mgrwt>
</event>
<event>
12    1  0.4154313E-002  0.1825655E+03  0.7546771E-02  0.1165343E+00
         -2   -1    0    0    0  501 -0.00000000000E+00  0.00000000000E+00  0.16006367116E+02  0.16006367116E+02  0.00000000000E+00 0.  1.
          2   -1    0    0  502    0  0.00000000000E+00 -0.00000000000E+00 -0.21033659182E+04  0.21033659182E+04  0.00000000000E+00 0. -1.
          6    2    1    2  502    0  0.46635465961E+02 -0.54098175527E+01 -0.11720145119E+04  0.11868616445E+04  0.18115853402E+03 0.  0.
         24    2    3    3    0    0  0.44838924405E+02 -0.75666368836E+02 -0.76786952396E+03  0.77662455235E+03  0.76066819139E+02 0.  0.
         -6    2    1    2    0  501 -0.46635465961E+02  0.54098175527E+01 -0.91534503918E+03  0.93251064074E+03  0.17180052829E+03 0.  0.
        -24    2    5    5    0    0  0.36961640301E+02  0.69014331651E+01 -0.59321537953E+03  0.59967388087E+03  0.79312573098E+02 0.  0.
          5    1    3    3  502    0  0.17965415559E+01  0.70256551283E+02 -0.40414498791E+03  0.41023709220E+03  0.47000000000E+01 0. -1.
        -11    1    4    4    0    0  0.40794232549E+02 -0.67971425976E+00 -0.24075710205E+03  0.24418970823E+03  0.00000000000E+00 0.  1.
         12    1    4    4    0    0  0.40446918559E+01 -0.74986654576E+02 -0.52711242191E+03  0.53243484411E+03  0.00000000000E+00 0. -1.
         -5    1    5    5    0  501 -0.83597106262E+02 -0.14916156124E+01 -0.32212965965E+03  0.33283675987E+03  0.47000000000E+01 0.  1.
         13    1    6    6    0    0  0.46232710343E+02 -0.18485711224E+02 -0.50402655791E+03  0.50647996615E+03  0.00000000000E+00 0. -1.
        -14    1    6    6    0    0 -0.92710700422E+01  0.25387144389E+02 -0.89188821617E+02  0.93193914723E+02  0.00000000000E+00 0.  1.
<mgrwt>
<rscale>  2 0.18256550E+03</rscale>
<asrwt>0</asrwt>
<pdfrwt beam="2">  1        2 0.32359461E+00 0.18256550E+03</pdfrwt>
<pdfrwt beam="1">  1       -2 0.24625191E-02 0.18256550E+03</pdfrwt>
<totfact> 0.37252954E+03</totfact>
</mgrwt>
</event>
<event>
12    1  0.4154313E-002  0.1768722E+03  0.7546771E-02  0.1170865E+00
          2   -1    0    0  502    0  0.00000000000E+00  0.00000000000E+00  0.73412237491E+02  0.73412237491E+02  0.00000000000E+00 0.  1.
         -2   -1    0    0    0  501 -0.00000000000E+00 -0.00000000000E+00 -0.66773882052E+03  0.66773882052E+03  0.00000000000E+00 0. -1.
          6    2    1    2  502    0 -0.25768738789E+02 -0.19707610063E+02 -0.52083312134E+03  0.55027746016E+03  0.17460161819E+03 0.  0.
         24    2    3    3    0    0  0.20625557332E+02  0.35337859574E+02 -0.40720732574E+03  0.41568419931E+03  0.72810503924E+02 0.  0.
         -6    2    1    2    0  501  0.25768738789E+02  0.19707610063E+02 -0.73493461682E+02  0.19087359785E+03  0.17314451667E+03 0.  0.
        -24    2    5    5    0    0  0.36194410726E+02 -0.23906252446E+02  0.11762830136E+02  0.94428852360E+02  0.83047574988E+02 0.  0.
          5    1    3    3  502    0 -0.46394296121E+02 -0.55045469637E+02 -0.11362579560E+03  0.13459326085E+03  0.47000000000E+01 0. -1.
        -11    1    4    4    0    0  0.19214848530E+02  0.30236941684E+02 -0.71862211638E+02  0.80297325659E+02  0.00000000000E+00 0.  1.
         12    1    4    4    0    0  0.14107088023E+01  0.51009178896E+01 -0.33534511410E+03  0.33538687365E+03  0.00000000000E+00 0. -1.
         -5    1    5    5    0  501 -0.10425671937E+02  0.43613862509E+02 -0.85256291818E+02  0.96444745491E+02  0.47000000000E+01 0.  1.
         11    1    6    6    0    0  0.28835284991E+02 -0.51173178803E+02 -0.89351974110E+01  0.59413850591E+02  0.00000000000E+00 0. -1.
        -12    1    6    6    0    0  0.73591257348E+01  0.27266926356E+02  0.20698027547E+02  0.35015001768E+02  0.00000000000E+00 0.  1.
<mgrwt>
<rscale>  2 0.17687218E+03</rscale>
<asrwt>0</asrwt>
<pdfrwt beam="1">  1        2 0.11294190E-01 0.17687218E+03</pdfrwt>
<pdfrwt beam="2">  1       -2 0.10272905E+00 0.17687218E+03</pdfrwt>
<totfact> 0.44076989E+02</totfact>
</mgrwt>
</event>
<event>
12    1  0.4154313E-002  0.1885482E+03  0.7546771E-02  0.1159777E+00
         -2   -1    0    0    0  501 -0.00000000000E+00  0.00000000000E+00  0.12237166790E+03  0.12237166790E+03  0.00000000000E+00 0.  1.
          2   -1    0    0  502    0  0.00000000000E+00 -0.00000000000E+00 -0.34533268089E+03  0.34533268089E+03  0.00000000000E+00 0. -1.
          6    2    1    2  502    0 -0.69688733582E+01 -0.84788633334E+02 -0.20287473464E+03  0.27468614729E+03  0.16448903921E+03 0.  0.
         24    2    3    3    0    0  0.28184333817E+02  0.54012103987E+01 -0.69433889928E+02  0.10976645494E+03  0.80025494769E+02 0.  0.
         -6    2    1    2    0  501  0.69688733582E+01  0.84788633334E+02 -0.20086278344E+02  0.19301820150E+03  0.17208977307E+03 0.  0.
        -24    2    5    5    0    0 -0.42951757046E+02  0.10269171271E+03 -0.18699415405E+02  0.13975843263E+03  0.82415472229E+02 0.  0.
          5    1    3    3  502    0 -0.35153207175E+02 -0.90189843733E+02 -0.13344084472E+03  0.16491969235E+03  0.47000000000E+01 0. -1.
        -13    1    4    4    0    0  0.18308422569E+02 -0.29126431873E+02 -0.33634417291E+01  0.34566748630E+02  0.00000000000E+00 0.  1.
         14    1    4    4    0    0  0.98759112483E+01  0.34527642272E+02 -0.66070448199E+02  0.75199706309E+02  0.00000000000E+00 0. -1.
         -5    1    5    5    0  501  0.49920630405E+02 -0.17903079376E+02 -0.13868629391E+01  0.53259768869E+02  0.47000000000E+01 0.  1.
         13    1    6    6    0    0 -0.92854843491E+01  0.62186459838E+02 -0.48349873895E+02  0.79316368503E+02  0.00000000000E+00 0. -1.
        -14    1    6    6    0    0 -0.33666272697E+02  0.40505252872E+02  0.29650458490E+02  0.60442064130E+02  0.00000000000E+00 0.  1.
<mgrwt>
<rscale>  2 0.18854824E+03</rscale>
<asrwt>0</asrwt>
<pdfrwt beam="2">  1        2 0.53128105E-01 0.18854824E+03</pdfrwt>
<pdfrwt beam="1">  1       -2 0.18826411E-01 0.18854824E+03</pdfrwt>
<totfact> 0.21596179E+03</totfact>
</mgrwt>
</event>
<event>
12    1  0.4154313E-002  0.3056998E+03  0.7546771E-02  0.1082426E+00
          3   -1    0    0  502    0  0.00000000000E+00  0.00000000000E+00  0.25683805029E+03  0.25683805029E+03  0.00000000000E+00 0.  1.
         -3   -1    0    0    0  501 -0.00000000000E+00 -0.00000000000E+00 -0.61456097855E+03  0.61456097855E+03  0.00000000000E+00 0. -1.
          6    2    1    2  502    0 -0.12919045637E+03  0.21625441830E+03  0.99527184666E+02  0.32119983630E+03  0.17264856471E+03 0.  0.
         24    2    3    3    0    0 -0.13774271009E+03  0.10200512013E+03  0.47347480653E+02  0.19522025586E+03  0.80567149987E+02 0.  0.
         -6    2    1    2    0  501  0.12919045637E+03 -0.21625441830E+03 -0.45725011293E+03  0.55019919255E+03  0.17373928242E+03 0.  0.
        -24    2    5    5    0    0  0.13499207174E+03 -0.15205998101E+03 -0.24614020410E+03  0.32941860435E+03  0.81157375259E+02 0.  0.
          5    1    3    3  502    0  0.85522537173E+01  0.11424929817E+03  0.52179704013E+02  0.12597958044E+03  0.47000000000E+01 0. -1.
        -11    1    4    4    0    0 -0.12923283811E+03  0.82620648076E+02  0.66021033286E+02  0.16699124160E+03  0.00000000000E+00 0.  1.
         12    1    4    4    0    0 -0.85098719769E+01  0.19384472057E+02 -0.18673552634E+02  0.28229014257E+02  0.00000000000E+00 0. -1.
         -5    1    5    5    0  501 -0.58016153729E+01 -0.64194437294E+02 -0.21110990883E+03  0.22078058820E+03  0.47000000000E+01 0.  1.
         13    1    6    6    0    0  0.46240895153E+02 -0.46210945369E+02 -0.14233150375E+03  0.15662671808E+03  0.00000000000E+00 0. -1.
        -14    1    6    6    0    0  0.88751176591E+02 -0.10584903564E+03 -0.10380870034E+03  0.17279188627E+03  0.00000000000E+00 0.  1.
<mgrwt>
<rscale>  2 0.30569983E+03</rscale>
<asrwt>0</asrwt>
<pdfrwt beam="1">  1        3 0.39513547E-01 0.30569983E+03</pdfrwt>
<pdfrwt beam="2">  1       -3 0.94547842E-01 0.30569983E+03</pdfrwt>
<totfact> 0.16281441E+01</totfact>
</mgrwt>
</event>
<event>
12    1  0.4154313E-002  0.4769434E+03  0.7546771E-02  0.1019979E+00
          2   -1    0    0  502    0  0.00000000000E+00  0.00000000000E+00  0.29827557909E+03  0.29827557909E+03  0.00000000000E+00 0.  1.
         -2   -1    0    0    0  501 -0.00000000000E+00 -0.00000000000E+00 -0.12470828941E+04  0.12470828941E+04  0.00000000000E+00 0. -1.
          6    2    1    2  502    0 -0.22014391299E+03 -0.38620754831E+03  0.69252871830E+01  0.47741913054E+03  0.17395819556E+03 0.  0.
         24    2    3    3    0    0 -0.10070207867E+03 -0.11769110839E+03  0.47548356955E+02  0.18070419311E+03  0.80006584210E+02 0.  0.
         -6    2    1    2    0  501  0.22014391299E+03  0.38620754831E+03 -0.95573260221E+03  0.10679393427E+04  0.17161008094E+03 0.  0.
        -24    2    5    5    0    0  0.21931471224E+03  0.29984245312E+03 -0.85218286717E+03  0.93301619836E+03  0.79367169632E+02 0.  0.
          5    1    3    3  502    0 -0.11944183432E+03 -0.26851643993E+03 -0.40623069772E+02  0.29671493743E+03  0.47000000000E+01 0. -1.
        -13    1    4    4    0    0 -0.61410502444E+02 -0.11997309914E+03  0.40407944958E+02  0.14070393152E+03  0.00000000000E+00 0.  1.
         14    1    4    4    0    0 -0.39291576225E+02  0.22819907572E+01  0.71404119973E+01  0.40000261594E+02  0.00000000000E+00 0. -1.
         -5    1    5    5    0  501  0.82920075576E+00  0.86365095186E+02 -0.10354973504E+03  0.13492314430E+03  0.47000000000E+01 0.  1.
         13    1    6    6    0    0  0.16514623190E+03  0.20832805103E+03 -0.51665645552E+03  0.58104022906E+03  0.00000000000E+00 0. -1.
        -14    1    6    6    0    0  0.54168480333E+02  0.91514402091E+02 -0.33552641165E+03  0.35197596930E+03  0.00000000000E+00 0.  1.
<mgrwt>
<rscale>  2 0.47694338E+03</rscale>
<asrwt>0</asrwt>
<pdfrwt beam="1">  1        2 0.45888551E-01 0.47694338E+03</pdfrwt>
<pdfrwt beam="2">  1       -2 0.19185891E+00 0.47694338E+03</pdfrwt>
<totfact> 0.17414879E+01</totfact>
</mgrwt>
</event>
<event>
12    1  0.4154313E-002  0.2251297E+03  0.7546771E-02  0.1130115E+00
          1   -1    0    0  502    0  0.00000000000E+00  0.00000000000E+00  0.42433727034E+03  0.42433727034E+03  0.00000000000E+00 0.  1.
         -1   -1    0    0    0  501 -0.00000000000E+00 -0.00000000000E+00 -0.11964161702E+03  0.11964161702E+03  0.00000000000E+00 0. -1.
          6    2    1    2  502    0  0.14688652193E+03 -0.13119696967E+02  0.16200249841E+03  0.27586609762E+03  0.16765893221E+03 0.  0.
         24    2    3    3    0    0  0.13448444989E+03 -0.61622649863E+02  0.97429905293E+02  0.19402443578E+03  0.79180029024E+02 0.  0.
         -6    2    1    2    0  501 -0.14688652193E+03  0.13119696967E+02  0.14269315491E+03  0.26811278974E+03  0.17255536732E+03 0.  0.
        -24    2    5    5    0    0 -0.11622912866E+03  0.54286011694E+02  0.15313149530E+03  0.21552391087E+03  0.80901915247E+02 0.  0.
          5    1    3    3  502    0  0.12402072037E+02  0.48502952896E+02  0.64572593113E+02  0.81841661834E+02  0.47000000000E+01 0. -1.
        -13    1    4    4    0    0  0.11031888858E+03 -0.19668113976E+02  0.92599321732E+02  0.14536755577E+03  0.00000000000E+00 0.  1.
         14    1    4    4    0    0  0.24165561309E+02 -0.41954535887E+02  0.48305835607E+01  0.48656880011E+02  0.00000000000E+00 0. -1.
         -5    1    5    5    0  501 -0.30657393270E+02 -0.41166314727E+02 -0.10438340390E+02  0.52588878866E+02  0.47000000000E+01 0.  1.
         11    1    6    6    0    0 -0.41118337019E+02 -0.16344417735E+02  0.24186362104E+02  0.50426557905E+02  0.00000000000E+00 0. -1.
        -12    1    6    6    0    0 -0.75110791642E+02  0.70630429429E+02  0.12894513320E+03  0.16509735297E+03  0.00000000000E+00 0.  1.
<mgrwt>
<rscale>  2 0.22512967E+03</rscale>
<asrwt>0</asrwt>
<pdfrwt beam="1">  1        1 0.65282656E-01 0.22512967E+03</pdfrwt>
<pdfrwt beam="2">  1       -1 0.18406403E-01 0.22512967E+03</pdfrwt>
<totfact> 0.12934806E+03</totfact>
</mgrwt>
</event>
<event>
12    1  0.4154313E-002  0.3092881E+03  0.7546771E-02  0.1080688E+00
          1   -1    0    0  502    0  0.00000000000E+00  0.00000000000E+00  0.16181704416E+04  0.16181704416E+04  0.00000000000E+00 0.  1.
         -1   -1    0    0    0  501 -0.00000000000E+00 -0.00000000000E+00 -0.70061852531E+02  0.70061852531E+02  0.00000000000E+00 0. -1.
          6    2    1    2  502    0 -0.71849632672E+02  0.24891301203E+03  0.44191617120E+03  0.53980735713E+03  0.17024107369E+03 0.  0.
         24    2    3    3    0    0 -0.68787139411E+02  0.26866271888E+03  0.42000989574E+03  0.50978395476E+03  0.80994079676E+02 0.  0.
         -6    2    1    2    0  501  0.71849632672E+02 -0.24891301203E+03  0.11061924179E+04  0.11484249370E+04  0.16762491846E+03 0.  0.
        -24    2    5    5    0    0  0.71018510140E+02 -0.68931118342E+02  0.45497975375E+03  0.47278139434E+03  0.81978915915E+02 0.  0.
          5    1    3    3  502    0 -0.30624932615E+01 -0.19749706850E+02  0.21906275458E+02  0.30023402373E+02  0.47000000000E+01 0. -1.
        -13    1    4    4    0    0 -0.50862223296E+01  0.92904439426E+02  0.20330887984E+03  0.22358802549E+03  0.00000000000E+00 0.  1.
         14    1    4    4    0    0 -0.63700917081E+02  0.17575827946E+03  0.21670101590E+03  0.28619592927E+03  0.00000000000E+00 0. -1.
         -5    1    5    5    0  501  0.83112253202E+00 -0.17998189369E+03  0.65121266412E+03  0.67564354266E+03  0.47000000000E+01 0.  1.
         13    1    6    6    0    0  0.67176365285E+01 -0.40904349176E+02  0.69111983227E+02  0.80590065440E+02  0.00000000000E+00 0. -1.
        -14    1    6    6    0    0  0.64300873612E+02 -0.28026769166E+02  0.38586777052E+03  0.39219132890E+03  0.00000000000E+00 0.  1.
<mgrwt>
<rscale>  2 0.30928806E+03</rscale>
<asrwt>0</asrwt>
<pdfrwt beam="1">  1        1 0.24894927E+00 0.30928806E+03</pdfrwt>
<pdfrwt beam="2">  1       -1 0.10778748E-01 0.30928806E+03</pdfrwt>
<totfact> 0.32327149E+02</totfact>
</mgrwt>
</event>
<event>
12    1  0.4154313E-002  0.2008948E+03  0.7546771E-02  0.1148986E+00
          2   -1    0    0  502    0  0.00000000000E+00  0.00000000000E+00  0.41157536355E+03  0.41157536355E+03  0.00000000000E+00 0.  1.
         -2   -1    0    0    0  501 -0.00000000000E+00 -0.00000000000E+00 -0.10280421408E+03  0.10280421408E+03  0.00000000000E+00 0. -1.
          6    2    1    2  502    0  0.33712865683E+02 -0.96562256192E+02  0.20977531826E+03  0.29058345280E+03  0.17312490363E+03 0.  0.
         24    2    3    3    0    0  0.64688900474E+02 -0.38447148265E+02  0.19243911480E+03  0.22232281662E+03  0.82047454766E+02 0.  0.
         -6    2    1    2    0  501 -0.33712865683E+02  0.96562256192E+02  0.98995831218E+02  0.22379612483E+03  0.17269540891E+03 0.  0.
        -24    2    5    5    0    0  0.26715157590E+02  0.45164523410E+02  0.10805501019E+03  0.14381217860E+03  0.79072900955E+02 0.  0.
          5    1    3    3  502    0 -0.30976034791E+02 -0.58115107926E+02  0.17336203463E+02  0.68260636176E+02  0.47000000000E+01 0. -1.
        -11    1    4    4    0    0  0.37357908404E+02  0.15201068306E+02  0.12767905406E+03  0.13389782165E+03  0.00000000000E+00 0.  1.
         12    1    4    4    0    0  0.27330992070E+02 -0.53648216571E+02  0.64760060736E+02  0.88424994969E+02  0.00000000000E+00 0. -1.
         -5    1    5    5    0  501 -0.60428023273E+02  0.51397732782E+02 -0.90591789723E+01  0.79983946236E+02  0.47000000000E+01 0.  1.
         13    1    6    6    0    0 -0.16782807527E+02  0.61345484612E+01 -0.31891760226E+01  0.18151202633E+02  0.00000000000E+00 0. -1.
        -14    1    6    6    0    0  0.43497965118E+02  0.39029974949E+02  0.11124418621E+03  0.12566097596E+03  0.00000000000E+00 0.  1.
<mgrwt>
<rscale>  2 0.20089481E+03</rscale>
<asrwt>0</asrwt>
<pdfrwt beam="1">  1        2 0.63319286E-01 0.20089481E+03</pdfrwt>
<pdfrwt beam="2">  1       -2 0.15816033E-01 0.20089481E+03</pdfrwt>
<totfact> 0.23969336E+03</totfact>
</mgrwt>
</event>
<event>
12    1  0.4154313E-002  0.2115484E+03  0.7546771E-02  0.1140346E+00
          1   -1    0    0  502    0  0.00000000000E+00  0.00000000000E+00  0.89306013811E+02  0.89306013811E+02  0.00000000000E+00 0.  1.
         -1   -1    0    0    0  501 -0.00000000000E+00 -0.00000000000E+00 -0.54371269194E+03  0.54371269194E+03  0.00000000000E+00 0. -1.
          6    2    1    2  502    0  0.69229400010E+01 -0.12081134892E+03 -0.31671613549E+03  0.38139561752E+03  0.17467168476E+03 0.  0.
         24    2    3    3    0    0  0.27495373932E+02 -0.15285313204E+03 -0.25367432306E+03  0.30759683015E+03  0.78390510732E+02 0.  0.
         -6    2    1    2    0  501 -0.69229400010E+01  0.12081134892E+03 -0.13769054264E+03  0.25162308823E+03  0.17237222477E+03 0.  0.
        -24    2    5    5    0    0  0.44542921042E+02  0.28642902371E+02 -0.99562585218E+02  0.13928614627E+03  0.81752275173E+02 0.  0.
          5    1    3    3  502    0 -0.20572433931E+02  0.32041783121E+02 -0.63041812433E+02  0.73798787376E+02  0.47000000000E+01 0. -1.
        -13    1    4    4    0    0 -0.26211138546E+01 -0.30735122932E+02 -0.84264282234E+01  0.31976909045E+02  0.00000000000E+00 0.  1.
         14    1    4    4    0    0  0.30116487786E+02 -0.12211800911E+03 -0.24524789484E+03  0.27561992110E+03  0.00000000000E+00 0. -1.
         -5    1    5    5    0  501 -0.51465861043E+02  0.92168446552E+02 -0.38127957422E+02  0.11233694196E+03  0.47000000000E+01 0.  1.
         13    1    6    6    0    0  0.58126397076E+02  0.27118660975E+02 -0.10621888608E+03  0.12408284156E+03  0.00000000000E+00 0. -1.
        -14    1    6    6    0    0 -0.13583476034E+02  0.15242413956E+01  0.66563008575E+01  0.15203304710E+02  0.00000000000E+00 0.  1.
<mgrwt>
<rscale>  2 0.21154839E+03</rscale>
<asrwt>0</asrwt>
<pdfrwt beam="1">  1        1 0.13739387E-01 0.21154839E+03</pdfrwt>
<pdfrwt beam="2">  1       -1 0.83648105E-01 0.21154839E+03</pdfrwt>
<totfact> 0.62191814E+02</totfact>
</mgrwt>
</event>
<event>
12    1  0.4154313E-002  0.1821784E+03  0.7546771E-02  0.1165711E+00
         -1   -1    0    0    0  501 -0.00000000000E+00  0.00000000000E+00  0.36317368706E+02  0.36317368706E+02  0.00000000000E+00 0.  1.
          1   -1    0    0  502    0  0.00000000000E+00 -0.00000000000E+00 -0.20551880763E+04  0.20551880763E+04  0.00000000000E+00 0. -1.
          6    2    1    2  502    0  0.33942676409E+02 -0.46667039102E+02 -0.17902520812E+04  0.17995600279E+04  0.17344699990E+03 0.  0.
         24    2    3    3    0    0  0.87273670368E+01 -0.90437074688E+02 -0.15035488550E+04  0.15084029264E+04  0.79782187419E+02 0.  0.
         -6    2    1    2    0  501 -0.33942676409E+02  0.46667039102E+02 -0.22861862632E+03  0.29194541708E+03  0.17215031930E+03 0.  0.
        -24    2    5    5    0    0 -0.54788850471E+02  0.19675061821E+02 -0.23792279962E+03  0.25628328799E+03  0.75398533990E+02 0.  0.
          5    1    3    3  502    0  0.25215309372E+02  0.43770035586E+02 -0.28670322622E+03  0.29115710152E+03  0.47000000000E+01 0. -1.
        -13    1    4    4    0    0 -0.16580167109E+02  0.71464803091E+01 -0.34671754180E+03  0.34718730955E+03  0.00000000000E+00 0.  1.
         14    1    4    4    0    0  0.25307534145E+02 -0.97583554997E+02 -0.11568313132E+04  0.11612156168E+04  0.00000000000E+00 0. -1.
         -5    1    5    5    0  501  0.20846174062E+02  0.26991977281E+02  0.93041733030E+01  0.35662129093E+02  0.47000000000E+01 0.  1.
         13    1    6    6    0    0 -0.10799359574E+02 -0.28209971716E+02 -0.72656342434E+02  0.78685276687E+02  0.00000000000E+00 0. -1.
        -14    1    6    6    0    0 -0.43989490897E+02  0.47885033537E+02 -0.16526645719E+03  0.17759801130E+03  0.00000000000E+00 0.  1.
<mgrwt>
<rscale>  2 0.18217837E+03</rscale>
<asrwt>0</asrwt>
<pdfrwt beam="2">  1        1 0.31618279E+00 0.18217837E+03</pdfrwt>
<pdfrwt beam="1">  1       -1 0.55872874E-02 0.18217837E+03</pdfrwt>
<totfact> 0.47005601E+02</totfact>
</mgrwt>
</event>
<event>
12    1  0.4154313E-002  0.2855047E+03  0.7546771E-02  0.1092720E+00
         -1   -1    0    0    0  501 -0.00000000000E+00  0.00000000000E+00  0.98804769754E+02  0.98804769754E+02  0.00000000000E+00 0.  1.
          1   -1    0    0  502    0  0.00000000000E+00 -0.00000000000E+00 -0.10253759023E+04  0.10253759023E+04  0.00000000000E+00 0. -1.
          6    2    1    2  502    0  0.16519617274E+02  0.22638774606E+03 -0.21512657559E+03  0.35767916666E+03  0.17358177731E+03 0.  0.
         24    2    3    3    0    0 -0.31187874177E+02  0.59556052328E+02 -0.12313357017E+03  0.16122657233E+03  0.79451398082E+02 0.  0.
         -6    2    1    2    0  501 -0.16519617274E+02 -0.22638774606E+03 -0.71144455693E+03  0.76650150537E+03  0.17276252729E+03 0.  0.
        -24    2    5    5    0    0  0.47421070040E+02 -0.16853485054E+03 -0.42280550748E+03  0.46522097184E+03  0.83745458153E+02 0.  0.
          5    1    3    3  502    0  0.47707491451E+02  0.16683169373E+03 -0.91993005424E+02  0.19645259433E+03  0.47000000000E+01 0. -1.
        -13    1    4    4    0    0  0.20327210753E+02  0.40847805415E+01 -0.56924162689E+01  0.21500803056E+02  0.00000000000E+00 0.  1.
         14    1    4    4    0    0 -0.51515084930E+02  0.55471271786E+02 -0.11744115390E+03  0.13972576927E+03  0.00000000000E+00 0. -1.
         -5    1    5    5    0  501 -0.63940687315E+02 -0.57852895517E+02 -0.28863904945E+03  0.30128053353E+03  0.47000000000E+01 0.  1.
         13    1    6    6    0    0  0.43592099389E+02 -0.12551755234E+03 -0.38682557869E+03  0.40900972532E+03  0.00000000000E+00 0. -1.
        -14    1    6    6    0    0  0.38289706517E+01 -0.43017298199E+02 -0.35979928783E+02  0.56211246524E+02  0.00000000000E+00 0.  1.
<mgrwt>
<rscale>  2 0.28550472E+03</rscale>
<asrwt>0</asrwt>
<pdfrwt beam="2">  1        1 0.15775015E+00 0.28550472E+03</pdfrwt>
<pdfrwt beam="1">  1       -1 0.15200733E-01 0.28550472E+03</pdfrwt>
<totfact> 0.48320008E+02</totfact>
</mgrwt>
</event>
<event>
12    1  0.4154313E-002  0.2194624E+03  0.7546771E-02  0.1134284E+00
          1   -1    0    0  502    0  0.00000000000E+00  0.00000000000E+00  0.16030407457E+04  0.16030407457E+04  0.00000000000E+00 0.  1.
         -1   -1    0    0    0  501 -0.00000000000E+00 -0.00000000000E+00 -0.41351711085E+02  0.41351711085E+02  0.00000000000E+00 0. -1.
          6    2    1    2  502    0 -0.67370119135E+02  0.11743803495E+03  0.34896805297E+03  0.41183818969E+03  0.17176020344E+03 0.  0.
         24    2    3    3    0    0 -0.40011212159E+01  0.36359599900E+02  0.26202863756E+03  0.27704243872E+03  0.82191705616E+02 0.  0.
         -6    2    1    2    0  501  0.67370119135E+02 -0.11743803495E+03  0.12127209816E+04  0.12325542671E+04  0.17368769966E+03 0.  0.
        -24    2    5    5    0    0  0.37318016187E+01 -0.71048045614E+02  0.99771138170E+03  0.10035278829E+04  0.81107703404E+02 0.  0.
          5    1    3    3  502    0 -0.63368997919E+02  0.81078435055E+02  0.86939415411E+02  0.13479575097E+03  0.47000000000E+01 0. -1.
        -11    1    4    4    0    0  0.13492513588E+00  0.32857170955E+02  0.26740042592E+03  0.26941158044E+03  0.00000000000E+00 0.  1.
         12    1    4    4    0    0 -0.41360463518E+01  0.35024289449E+01 -0.53717883615E+01  0.76308582833E+01  0.00000000000E+00 0. -1.
         -5    1    5    5    0  501  0.63638317517E+02 -0.46389989341E+02  0.21500959990E+03  0.22902638411E+03  0.47000000000E+01 0.  1.
         13    1    6    6    0    0 -0.11626104359E+02 -0.13984552745E+02  0.39382393862E+02  0.43378646409E+02  0.00000000000E+00 0. -1.
        -14    1    6    6    0    0  0.15357905978E+02 -0.57063492869E+02  0.95832898784E+03  0.96014923654E+03  0.00000000000E+00 0.  1.
<mgrwt>
<rscale>  2 0.21946245E+03</rscale>
<asrwt>0</asrwt>
<pdfrwt beam="1">  1        1 0.24662161E+00 0.21946245E+03</pdfrwt>
<pdfrwt beam="2">  1       -1 0.63618029E-02 0.21946245E+03</pdfrwt>
<totfact> 0.75244171E+02</totfact>
</mgrwt>
</event>
<event>
12    1  0.4154313E-002  0.3876083E+03  0.7546771E-02  0.1048157E+00
         -2   -1    0    0    0  501 -0.00000000000E+00  0.00000000000E+00  0.29656132217E+03  0.29656132217E+03  0.00000000000E+00 0.  1.
          2   -1    0    0  502    0  0.00000000000E+00 -0.00000000000E+00 -0.54129904312E+03  0.54129904312E+03  0.00000000000E+00 0. -1.
          6    2    1    2  502    0 -0.16505700152E+03 -0.29981452718E+03 -0.22722065400E+03  0.44603537645E+03  0.17374051625E+03 0.  0.
         24    2    3    3    0    0 -0.56127442988E+02 -0.10985365585E+03 -0.30761916812E+02  0.15180943134E+03  0.82955966388E+02 0.  0.
         -6    2    1    2    0  501  0.16505700152E+03  0.29981452718E+03 -0.17517066958E+02  0.39182498883E+03  0.18996686496E+03 0.  0.
        -24    2    5    5    0    0  0.15636815158E+03  0.32155458341E+03 -0.99781967449E+01  0.36678400798E+03  0.81133193947E+02 0.  0.
          5    1    3    3  502    0 -0.10892955853E+03 -0.18996087133E+03 -0.19645873718E+03  0.29422594511E+03  0.47000000000E+01 0. -1.
        -11    1    4    4    0    0 -0.49853074278E+02 -0.89425181079E+02  0.12905982298E+02  0.10319281179E+03  0.00000000000E+00 0.  1.
         12    1    4    4    0    0 -0.62743687095E+01 -0.20428474768E+02 -0.43667899110E+02  0.48616619553E+02  0.00000000000E+00 0. -1.
         -5    1    5    5    0  501  0.86888499425E+01 -0.21740056229E+02 -0.75388702126E+01  0.25040980856E+02  0.47000000000E+01 0.  1.
         13    1    6    6    0    0  0.24045371873E+02  0.77100304442E+02 -0.34315702544E+02  0.87750807943E+02  0.00000000000E+00 0. -1.
        -14    1    6    6    0    0  0.13232277971E+03  0.24445427896E+03  0.24337505799E+02  0.27903320004E+03  0.00000000000E+00 0.  1.
<mgrwt>
<rscale>  2 0.38760828E+03</rscale>
<asrwt>0</asrwt>
<pdfrwt beam="2">  1        2 0.83276774E-01 0.38760828E+03</pdfrwt>
<pdfrwt beam="1">  1       -2 0.45624820E-01 0.38760828E+03</pdfrwt>
<totfact> 0.26215915E+02</totfact>
</mgrwt>
</event>
<event>
12    1  0.4154313E-002  0.2347737E+03  0.7546771E-02  0.1123324E+00
          1   -1    0    0  502    0  0.00000000000E+00  0.00000000000E+00  0.55380909203E+03  0.55380909203E+03  0.00000000000E+00 0.  1.
         -1   -1    0    0    0  501 -0.00000000000E+00 -0.00000000000E+00 -0.10187572329E+03  0.10187572329E+03  0.00000000000E+00 0. -1.
          6    2    1    2  502    0  0.84666469580E+02  0.13263735631E+03  0.17538812142E+03  0.29236515149E+03  0.17307602177E+03 0.  0.
         24    2    3    3    0    0  0.11095567544E+03  0.14395823513E+03  0.12656001863E+03  0.23557115301E+03  0.80257052276E+02 0.  0.
         -6    2    1    2    0  501 -0.84666469580E+02 -0.13263735631E+03  0.27654524733E+03  0.36331966383E+03  0.17539334351E+03 0.  0.
        -24    2    5    5    0    0  0.98299930192E+00 -0.11272814673E+03  0.11839443469E+03  0.18230591385E+03  0.80682108958E+02 0.  0.
          5    1    3    3  502    0 -0.26289205864E+02 -0.11320878816E+02  0.48828102784E+02  0.56793998482E+02  0.47000000000E+01 0. -1.
        -11    1    4    4    0    0  0.40366695095E+02  0.35533227302E+02  0.83301221713E+02  0.99152276093E+02  0.00000000000E+00 0.  1.
         12    1    4    4    0    0  0.70588980349E+02  0.10842500783E+03  0.43258796920E+02  0.13641887692E+03  0.00000000000E+00 0. -1.
         -5    1    5    5    0  501 -0.85649468882E+02 -0.19909209586E+02  0.15815081263E+03  0.18101374998E+03  0.47000000000E+01 0.  1.
         11    1    6    6    0    0  0.10047039866E+02 -0.87735906430E+02  0.35370497363E+02  0.95129408549E+02  0.00000000000E+00 0. -1.
        -12    1    6    6    0    0 -0.90640405639E+01 -0.24992240296E+02  0.83023937331E+02  0.87176505299E+02  0.00000000000E+00 0.  1.
<mgrwt>
<rscale>  2 0.23477365E+03</rscale>
<asrwt>0</asrwt>
<pdfrwt beam="1">  1        1 0.85201397E-01 0.23477365E+03</pdfrwt>
<pdfrwt beam="2">  1       -1 0.15673189E-01 0.23477365E+03</pdfrwt>
<totfact> 0.11775791E+03</totfact>
</mgrwt>
</event>
<event>
12    1  0.4154313E-002  0.1812279E+03  0.7546771E-02  0.1166620E+00
          2   -1    0    0  502    0  0.00000000000E+00  0.00000000000E+00  0.51114282693E+03  0.51114282693E+03  0.00000000000E+00 0. -1.
         -2   -1    0    0    0  501 -0.00000000000E+00 -0.00000000000E+00 -0.64553969534E+02  0.64553969534E+02  0.00000000000E+00 0.  1.
          6    2    1    2  502    0 -0.45515024715E+02  0.33436155712E+02  0.20472674283E+03  0.27394555288E+03  0.17304199700E+03 0.  0.
         24    2    3    3    0    0 -0.51055472863E+02  0.70609011352E+01  0.22206536532E+03  0.24155622671E+03  0.79874066851E+02 0.  0.
         -6    2    1    2    0  501  0.45515024715E+02 -0.33436155712E+02  0.24186211456E+03  0.30175124359E+03  0.17136783993E+03 0.  0.
        -24    2    5    5    0    0  0.16630713957E+02 -0.23222248095E+02  0.25431978279E+03  0.26834599229E+03  0.80716579482E+02 0.  0.
          5    1    3    3  502    0  0.55404481485E+01  0.26375254577E+02 -0.17338622486E+02  0.32389326165E+02  0.47000000000E+01 0. -1.
        -13    1    4    4    0    0  0.87876643363E+01  0.30833400909E+00  0.13726906141E+03  0.13755040289E+03  0.00000000000E+00 0.  1.
         14    1    4    4    0    0 -0.59843137200E+02  0.67525671261E+01  0.84796303906E+02  0.10400582382E+03  0.00000000000E+00 0. -1.
         -5    1    5    5    0  501  0.28884310757E+02 -0.10213907617E+02 -0.12457668230E+02  0.33405251301E+02  0.47000000000E+01 0.  1.
         11    1    6    6    0    0 -0.19698200137E+02  0.89822845867E+01  0.16734078363E+03  0.16873540941E+03  0.00000000000E+00 0. -1.
        -12    1    6    6    0    0  0.36328914094E+02 -0.32204532682E+02  0.86978999167E+02  0.99610582875E+02  0.00000000000E+00 0.  1.
<mgrwt>
<rscale>  2 0.18122793E+03</rscale>
<asrwt>0</asrwt>
<pdfrwt beam="1">  1        2 0.78637355E-01 0.18122793E+03</pdfrwt>
<pdfrwt beam="2">  1       -2 0.99313803E-02 0.18122793E+03</pdfrwt>
<totfact> 0.39957538E+03</totfact>
</mgrwt>
</event>
<event>
12    1  0.4154313E-002  0.2582098E+03  0.7546771E-02  0.1108224E+00
          1   -1    0    0  502    0  0.00000000000E+00  0.00000000000E+00  0.15630074147E+04  0.15630074147E+04  0.00000000000E+00 0. -1.
         -1   -1    0    0    0  501 -0.00000000000E+00 -0.00000000000E+00 -0.43287728305E+02  0.43287728305E+02  0.00000000000E+00 0.  1.
          6    2    1    2  502    0  0.44264741591E+02  0.18587755970E+03  0.85750669803E+03  0.89560429890E+03  0.17401002410E+03 0.  0.
         24    2    3    3    0    0  0.52515513175E+01  0.15257905971E+03  0.40518404729E+03  0.44035855263E+03  0.80209690486E+02 0.  0.
         -6    2    1    2    0  501 -0.44264741591E+02 -0.18587755970E+03  0.66221298832E+03  0.71069084407E+03  0.17333666486E+03 0.  0.
        -24    2    5    5    0    0  0.10663083598E+02 -0.20619635212E+02  0.20436880894E+03  0.22082287188E+03  0.80357077883E+02 0.  0.
          5    1    3    3  502    0  0.39013190274E+02  0.33298499996E+02  0.45232265075E+03  0.45524574627E+03  0.47000000000E+01 0. -1.
        -11    1    4    4    0    0 -0.31715272165E+02  0.11394523965E+03  0.25991332605E+03  0.28555964908E+03  0.00000000000E+00 0.  1.
         12    1    4    4    0    0  0.36966823482E+02  0.38633820060E+02  0.14527072124E+03  0.15479890355E+03  0.00000000000E+00 0. -1.
         -5    1    5    5    0  501 -0.54927825189E+02 -0.16525792449E+03  0.45784417938E+03  0.48986797219E+03  0.47000000000E+01 0.  1.
         11    1    6    6    0    0 -0.40515817007E+01 -0.40351231009E+02  0.18530160868E+03  0.18968743590E+03  0.00000000000E+00 0. -1.
        -12    1    6    6    0    0  0.14714665298E+02  0.19731595798E+02  0.19067200264E+02  0.31135435977E+02  0.00000000000E+00 0.  1.
<mgrwt>
<rscale>  2 0.25820975E+03</rscale>
<asrwt>0</asrwt>
<pdfrwt beam="1">  1        1 0.24046264E+00 0.25820975E+03</pdfrwt>
<pdfrwt beam="2">  1       -1 0.66596517E-02 0.25820975E+03</pdfrwt>
<totfact> 0.74272380E+02</totfact>
</mgrwt>
</event>
<event>
12    1  0.4154313E-002  0.2161590E+03  0.7546771E-02  0.1136780E+00
         -2   -1    0    0    0  501 -0.00000000000E+00  0.00000000000E+00  0.11339579916E+03  0.11339579916E+03  0.00000000000E+00 0.  1.
          2   -1    0    0  502    0  0.00000000000E+00 -0.00000000000E+00 -0.45804881788E+03  0.45804881788E+03  0.00000000000E+00 0. -1.
          6    2    1    2  502    0  0.11143597944E+03 -0.48315802904E+02 -0.83981657501E+02  0.23467212790E+03  0.18238885518E+03 0.  0.
         24    2    3    3    0    0  0.14008600716E+03  0.26313091237E+00 -0.68263387390E+02  0.17593635589E+03  0.81667328994E+02 0.  0.
         -6    2    1    2    0  501 -0.11143597944E+03  0.48315802904E+02 -0.26067136122E+03  0.33677248914E+03  0.17525340668E+03 0.  0.
        -24    2    5    5    0    0 -0.94745808437E+02  0.63051003675E+02 -0.27587461313E+03  0.30940614451E+03  0.81689428975E+02 0.  0.
          5    1    3    3  502    0 -0.28650027718E+02 -0.48578933816E+02 -0.15718270111E+02  0.58735772015E+02  0.47000000000E+01 0. -1.
        -13    1    4    4    0    0  0.70327565801E+02 -0.39448124156E+02 -0.45100828441E+02  0.92391589103E+02  0.00000000000E+00 0.  1.
         14    1    4    4    0    0  0.69758441360E+02  0.39711255068E+02 -0.23162558949E+02  0.83544766785E+02  0.00000000000E+00 0. -1.
         -5    1    5    5    0  501 -0.16690171005E+02 -0.14735200771E+02  0.15203251908E+02  0.27366344632E+02  0.47000000000E+01 0.  1.
         11    1    6    6    0    0  0.14019769009E+02  0.16170777137E+02 -0.35901326686E+02  0.41796569406E+02  0.00000000000E+00 0. -1.
        -12    1    6    6    0    0 -0.10876557745E+03  0.46880226537E+02 -0.23997328645E+03  0.26760957510E+03  0.00000000000E+00 0.  1.
<mgrwt>
<rscale>  2 0.21615897E+03</rscale>
<asrwt>0</asrwt>
<pdfrwt beam="2">  1        2 0.70469049E-01 0.21615897E+03</pdfrwt>
<pdfrwt beam="1">  1       -2 0.17445508E-01 0.21615897E+03</pdfrwt>
<totfact> 0.18136939E+03</totfact>
</mgrwt>
</event>
<event>
12    1  0.4154313E-002  0.1854544E+03  0.7546771E-02  0.1162626E+00
         -1   -1    0    0    0  501 -0.00000000000E+00  0.00000000000E+00  0.40278808202E+02  0.40278808202E+02  0.00000000000E+00 0.  1.
          1   -1    0    0  502    0  0.00000000000E+00 -0.00000000000E+00 -0.86803216150E+03  0.86803216150E+03  0.00000000000E+00 0. -1.
          6    2    1    2  502    0  0.45062254005E+02  0.51108384754E+02 -0.47381947542E+03  0.50915412864E+03  0.17346572482E+03 0.  0.
         24    2    3    3    0    0  0.51032189472E+02  0.65499130323E+02 -0.17386776357E+03  0.20876129728E+03  0.80354586661E+02 0.  0.
         -6    2    1    2    0  501 -0.45062254005E+02 -0.51108384754E+02 -0.35393387787E+03  0.39915684107E+03  0.17150603527E+03 0.  0.
        -24    2    5    5    0    0 -0.71079619229E+02 -0.23837482015E+02 -0.12733978050E+03  0.16940136149E+03  0.82830331152E+02 0.  0.
          5    1    3    3  502    0 -0.59699354668E+01 -0.14390745569E+02 -0.29995171185E+03  0.30039283135E+03  0.47000000000E+01 0. -1.
        -11    1    4    4    0    0 -0.19511344649E+02  0.21212288775E+01 -0.20029900507E+02  0.28042629982E+02  0.00000000000E+00 0.  1.
         12    1    4    4    0    0  0.70543534121E+02  0.63377901445E+02 -0.15383786307E+03  0.18071866730E+03  0.00000000000E+00 0. -1.
         -5    1    5    5    0  501  0.26017365224E+02 -0.27270902738E+02 -0.22659409738E+03  0.22975547958E+03  0.47000000000E+01 0.  1.
         11    1    6    6    0    0 -0.86672760481E+01  0.36950204071E+01  0.11405241463E+02  0.14793727817E+02  0.00000000000E+00 0. -1.
        -12    1    6    6    0    0 -0.62412343181E+02 -0.27532502422E+02 -0.13874502196E+03  0.15460763367E+03  0.00000000000E+00 0.  1.
<mgrwt>
<rscale>  2 0.18545445E+03</rscale>
<asrwt>0</asrwt>
<pdfrwt beam="2">  1        1 0.13354341E+00 0.18545445E+03</pdfrwt>
<pdfrwt beam="1">  1       -1 0.61967397E-02 0.18545445E+03</pdfrwt>
<totfact> 0.25564549E+03</totfact>
</mgrwt>
</event>
<event>
12    1  0.4154313E-002  0.2239207E+03  0.7546771E-02  0.1130993E+00
          2   -1    0    0  502    0  0.00000000000E+00  0.00000000000E+00  0.28110433192E+03  0.28110433192E+03  0.00000000000E+00 0. -1.
         -2   -1    0    0    0  501 -0.00000000000E+00 -0.00000000000E+00 -0.17970125172E+03  0.17970125172E+03  0.00000000000E+00 0.  1.
          6    2    1    2  502    0  0.84569792757E+02 -0.11420480870E+03  0.30870859219E+02  0.22604960932E+03  0.17306249665E+03 0.  0.
         24    2    3    3    0    0 -0.18346257481E+02 -0.38618209920E+02 -0.26278365256E+01  0.93953811018E+02  0.83620941032E+02 0.  0.
         -6    2    1    2    0  501 -0.84569792757E+02  0.11420480870E+03  0.70532220980E+02  0.23475597433E+03  0.17303405766E+03 0.  0.
        -24    2    5    5    0    0 -0.91210546212E+02  0.26170878521E+02  0.78549638176E+02  0.14598412379E+03  0.78339262946E+02 0.  0.
          5    1    3    3  502    0  0.10291605024E+03 -0.75586598779E+02  0.33498695745E+02  0.13209579830E+03  0.47000000000E+01 0. -1.
        -11    1    4    4    0    0 -0.15015289676E+02 -0.14990737357E+01 -0.39037243590E+02  0.41852270347E+02  0.00000000000E+00 0.  1.
         12    1    4    4    0    0 -0.33309678051E+01 -0.37119136184E+02  0.36409407064E+02  0.52101540671E+02  0.00000000000E+00 0. -1.
         -5    1    5    5    0  501  0.66407534550E+01  0.88033930178E+02 -0.80174171954E+01  0.88771850536E+02  0.47000000000E+01 0.  1.
         13    1    6    6    0    0 -0.28560044054E+02  0.42101760975E+02  0.10163002291E+02  0.51879870944E+02  0.00000000000E+00 0. -1.
        -14    1    6    6    0    0 -0.62650502158E+02 -0.15930882455E+02  0.68386635885E+02  0.94104252848E+02  0.00000000000E+00 0.  1.
<mgrwt>
<rscale>  2 0.22392073E+03</rscale>
<asrwt>0</asrwt>
<pdfrwt beam="1">  1        2 0.43246820E-01 0.22392073E+03</pdfrwt>
<pdfrwt beam="2">  1       -2 0.27646346E-01 0.22392073E+03</pdfrwt>
<totfact> 0.13867170E+03</totfact>
</mgrwt>
</event>
<event>
12    1  0.4154313E-002  0.1840935E+03  0.7546771E-02  0.1163899E+00
          2   -1    0    0  502    0  0.00000000000E+00  0.00000000000E+00  0.48565706025E+03  0.48565706025E+03  0.00000000000E+00 0.  1.
         -2   -1    0    0    0  501 -0.00000000000E+00 -0.00000000000E+00 -0.70428856476E+02  0.70428856476E+02  0.00000000000E+00 0. -1.
          6    2    1    2  502    0 -0.57561091325E+02  0.25227283030E+02  0.17993060824E+03  0.25672538257E+03  0.17199768379E+03 0.  0.
         24    2    3    3    0    0  0.11228735438E+02 -0.31056805422E+02  0.51775930103E+02  0.10069445484E+03  0.79799853602E+02 0.  0.
         -6    2    1    2    0  501  0.57561091325E+02 -0.25227283030E+02  0.23529759553E+03  0.29936053416E+03  0.17407491463E+03 0.  0.
        -24    2    5    5    0    0  0.82673624501E+02 -0.18011831192E+02  0.24518192630E+03  0.27103224331E+03  0.78644425609E+02 0.  0.
          5    1    3    3  502    0 -0.68789826762E+02  0.56284088452E+02  0.12815467814E+03  0.15603092773E+03  0.47000000000E+01 0. -1.
        -13    1    4    4    0    0 -0.39188757323E+01 -0.34557729461E+02  0.69135583679E+02  0.77390717681E+02  0.00000000000E+00 0.  1.
         14    1    4    4    0    0  0.15147611170E+02  0.35009240387E+01 -0.17359653576E+02  0.23303737159E+02  0.00000000000E+00 0. -1.
         -5    1    5    5    0  501 -0.25112533177E+02 -0.72154518387E+01 -0.98843307643E+01  0.28328290849E+02  0.47000000000E+01 0.  1.
         11    1    6    6    0    0  0.67542174270E+02  0.84617532907E+01  0.89783759190E+02  0.11267062611E+03  0.00000000000E+00 0. -1.
        -12    1    6    6    0    0  0.15131450231E+02 -0.26473584482E+02  0.15539816711E+03  0.15836161720E+03  0.00000000000E+00 0.  1.
<mgrwt>
<rscale>  2 0.18409353E+03</rscale>
<asrwt>0</asrwt>
<pdfrwt beam="1">  1        2 0.74716469E-01 0.18409353E+03</pdfrwt>
<pdfrwt beam="2">  1       -2 0.10835209E-01 0.18409353E+03</pdfrwt>
<totfact> 0.36853172E+03</totfact>
</mgrwt>
</event>
<event>
12    1  0.4154313E-002  0.2433037E+03  0.7546771E-02  0.1117611E+00
         -1   -1    0    0    0  501 -0.00000000000E+00  0.00000000000E+00  0.15415783368E+03  0.15415783368E+03  0.00000000000E+00 0.  1.
          1   -1    0    0  502    0  0.00000000000E+00 -0.00000000000E+00 -0.43518538856E+03  0.43518538856E+03  0.00000000000E+00 0. -1.
          6    2    1    2  502    0 -0.16989080016E+03 -0.66694519532E+00 -0.39639273136E+02  0.24686618203E+03  0.17466628484E+03 0.  0.
         24    2    3    3    0    0 -0.78421136050E+02 -0.29435567156E+02 -0.79578421717E+02  0.14288753686E+03  0.84070183736E+02 0.  0.
         -6    2    1    2    0  501  0.16989080016E+03  0.66694519532E+00 -0.24138828174E+03  0.34247704021E+03  0.17366315590E+03 0.  0.
        -24    2    5    5    0    0  0.28595225741E+02  0.62859466030E+01 -0.39035863272E+02  0.95566927446E+02  0.82170791284E+02 0.  0.
          5    1    3    3  502    0 -0.91469664108E+02  0.28768621961E+02  0.39939148581E+02  0.10397864517E+03  0.47000000000E+01 0. -1.
        -11    1    4    4    0    0 -0.63305926104E+02 -0.96777429016E+01 -0.94293322028E+02  0.11398477778E+03  0.00000000000E+00 0.  1.
         12    1    4    4    0    0 -0.15115209946E+02 -0.19757824255E+02  0.14714900310E+02  0.28902759074E+02  0.00000000000E+00 0. -1.
         -5    1    5    5    0  501  0.14129557442E+03 -0.56190014077E+01 -0.20235241847E+03  0.24691011277E+03  0.47000000000E+01 0.  1.
         11    1    6    6    0    0  0.50695590964E+02  0.26499543413E+02 -0.27517136621E+02  0.63478039920E+02  0.00000000000E+00 0. -1.
        -12    1    6    6    0    0 -0.22100365223E+02 -0.20213596810E+02 -0.11518726651E+02  0.32088887526E+02  0.00000000000E+00 0.  1.
<mgrwt>
<rscale>  2 0.24330366E+03</rscale>
<asrwt>0</asrwt>
<pdfrwt beam="2">  1        1 0.66951599E-01 0.24330366E+03</pdfrwt>
<pdfrwt beam="1">  1       -1 0.23716589E-01 0.24330366E+03</pdfrwt>
<totfact> 0.82773155E+02</totfact>
</mgrwt>
</event>
<event>
12    1  0.4154313E-002  0.1752397E+03  0.7546771E-02  0.1172491E+00
          3   -1    0    0  502    0  0.00000000000E+00  0.00000000000E+00  0.16987597099E+03  0.16987597099E+03  0.00000000000E+00 0. -1.
         -3   -1    0    0    0  501 -0.00000000000E+00 -0.00000000000E+00 -0.31523383152E+03  0.31523383152E+03  0.00000000000E+00 0.  1.
          6    2    1    2  502    0  0.58959900676E+01  0.28122728505E+02  0.85871203974E+02  0.19462657818E+03  0.17227881676E+03 0.  0.
         24    2    3    3    0    0  0.62367390806E+01  0.67887311770E+02  0.59915467049E+01  0.10527229547E+03  0.79992334310E+02 0.  0.
         -6    2    1    2    0  501 -0.58959900676E+01 -0.28122728505E+02 -0.23122906451E+03  0.29048322433E+03  0.17345885042E+03 0.  0.
        -24    2    5    5    0    0  0.82107674515E+01  0.38517936065E+02 -0.18972857355E+03  0.21058103705E+03  0.82440241665E+02 0.  0.
          5    1    3    3  502    0 -0.34074901299E+00 -0.39764583265E+02  0.79879657269E+02  0.89354282704E+02  0.47000000000E+01 0. -1.
        -11    1    4    4    0    0 -0.25040180383E+01  0.41151031542E+02 -0.35998157976E+02  0.54731571154E+02  0.00000000000E+00 0.  1.
         12    1    4    4    0    0  0.87407571189E+01  0.26736280228E+02  0.41989704681E+02  0.50540724319E+02  0.00000000000E+00 0. -1.
         -5    1    5    5    0  501 -0.14106757519E+02 -0.66640664570E+02 -0.41500490965E+02  0.79902187281E+02  0.47000000000E+01 0.  1.
         11    1    6    6    0    0  0.20476266753E+02  0.40929360702E+02 -0.41356947292E+02  0.61683767370E+02  0.00000000000E+00 0. -1.
        -12    1    6    6    0    0 -0.12265499302E+02 -0.24114246372E+01 -0.14837162625E+03  0.14889726968E+03  0.00000000000E+00 0.  1.
<mgrwt>
<rscale>  2 0.17523971E+03</rscale>
<asrwt>0</asrwt>
<pdfrwt beam="1">  1        3 0.26134765E-01 0.17523971E+03</pdfrwt>
<pdfrwt beam="2">  1       -3 0.48497513E-01 0.17523971E+03</pdfrwt>
<totfact> 0.14183162E+02</totfact>
</mgrwt>
</event>
<event>
12    1  0.4154313E-002  0.1772138E+03  0.7546771E-02  0.1170527E+00
         -1   -1    0    0    0  501 -0.00000000000E+00  0.00000000000E+00  0.38377188996E+02  0.38377188996E+02  0.00000000000E+00 0.  1.
          1   -1    0    0  502    0  0.00000000000E+00 -0.00000000000E+00 -0.84543034527E+03  0.84543034527E+03  0.00000000000E+00 0. -1.
          6    2    1    2  502    0  0.32806380716E+02  0.15780079356E+02 -0.48241114604E+03  0.51389186545E+03  0.17331781800E+03 0.  0.
         24    2    3    3    0    0  0.79938957121E+02  0.33983764334E+01 -0.22416245077E+03  0.25104349674E+03  0.79826355885E+02 0.  0.
         -6    2    1    2    0  501 -0.32806380716E+02 -0.15780079356E+02 -0.32464201024E+03  0.36991566881E+03  0.17355085048E+03 0.  0.
        -24    2    5    5    0    0 -0.31783301838E+02 -0.43228825034E+02 -0.32847135525E+03  0.34178678307E+03  0.77755155939E+02 0.  0.
          5    1    3    3  502    0 -0.47132576405E+02  0.12381702922E+02 -0.25824869527E+03  0.26284836871E+03  0.47000000000E+01 0. -1.
        -11    1    4    4    0    0  0.69187962660E+02 -0.28469830362E+02 -0.11835568841E+03  0.14001990715E+03  0.00000000000E+00 0.  1.
         12    1    4    4    0    0  0.10750994461E+02  0.31868206795E+02 -0.10580676236E+03  0.11102358959E+03  0.00000000000E+00 0. -1.
         -5    1    5    5    0  501 -0.10230788774E+01  0.27448745678E+02  0.38293450138E+01  0.28128885739E+02  0.47000000000E+01 0.  1.
         11    1    6    6    0    0  0.53391733662E+01 -0.48659361627E+02 -0.11410283272E+03  0.12415996408E+03  0.00000000000E+00 0. -1.
        -12    1    6    6    0    0 -0.37122475205E+02  0.54305365930E+01 -0.21436852253E+03  0.21762681899E+03  0.00000000000E+00 0.  1.
<mgrwt>
<rscale>  2 0.17721378E+03</rscale>
<asrwt>0</asrwt>
<pdfrwt beam="2">  1        1 0.13006622E+00 0.17721378E+03</pdfrwt>
<pdfrwt beam="1">  1       -1 0.59041825E-02 0.17721378E+03</pdfrwt>
<totfact> 0.28623453E+03</totfact>
</mgrwt>
</event>
<event>
12    1  0.4154313E-002  0.2653376E+03  0.7546771E-02  0.1103978E+00
          1   -1    0    0  502    0  0.00000000000E+00  0.00000000000E+00  0.90680932199E+03  0.90680932199E+03  0.00000000000E+00 0.  1.
         -1   -1    0    0    0  501 -0.00000000000E+00 -0.00000000000E+00 -0.22266218570E+03  0.22266218570E+03  0.00000000000E+00 0. -1.
          6    2    1    2  502    0  0.20055332387E+03  0.45142174017E+02 -0.11535861455E+03  0.28587199900E+03  0.16172735784E+03 0.  0.
         24    2    3    3    0    0  0.13324234284E+03 -0.23965824446E+02 -0.10398316479E+03  0.18861885265E+03  0.80228986956E+02 0.  0.
         -6    2    1    2    0  501 -0.20055332387E+03 -0.45142174017E+02  0.79950575084E+03  0.84359950869E+03  0.17375624839E+03 0.  0.
        -24    2    5    5    0    0 -0.70874013136E+02 -0.61015209260E+02  0.52461563062E+03  0.53920610359E+03  0.82314523349E+02 0.  0.
          5    1    3    3  502    0  0.67310981028E+02  0.69107998463E+02 -0.11375449762E+02  0.97253146354E+02  0.47000000000E+01 0. -1.
        -11    1    4    4    0    0  0.71512067316E+01 -0.26184179815E+02 -0.34930334750E+01  0.27366993133E+02  0.00000000000E+00 0.  1.
         12    1    4    4    0    0  0.12609113611E+03  0.22183553693E+01 -0.10049013131E+03  0.16125185951E+03  0.00000000000E+00 0. -1.
         -5    1    5    5    0  501 -0.12967931073E+03  0.15873035242E+02  0.27489012021E+03  0.30439340510E+03  0.47000000000E+01 0.  1.
         13    1    6    6    0    0 -0.11096688381E+02  0.38656468561E+01  0.61011913647E+01  0.13240251309E+02  0.00000000000E+00 0. -1.
        -14    1    6    6    0    0 -0.59777324755E+02 -0.64880856116E+02  0.51851443926E+03  0.52596585228E+03  0.00000000000E+00 0.  1.
<mgrwt>
<rscale>  2 0.26533758E+03</rscale>
<asrwt>0</asrwt>
<pdfrwt beam="1">  1        1 0.13950912E+00 0.26533758E+03</pdfrwt>
<pdfrwt beam="2">  1       -1 0.34255721E-01 0.26533758E+03</pdfrwt>
<totfact> 0.15506795E+02</totfact>
</mgrwt>
</event>
<event>
12    1  0.4154313E-002  0.3522983E+03  0.7546771E-02  0.1061676E+00
         -4   -1    0    0    0  501 -0.00000000000E+00  0.00000000000E+00  0.55087173041E+03  0.55087173041E+03  0.00000000000E+00 0. -1.
          4   -1    0    0  502    0  0.00000000000E+00 -0.00000000000E+00 -0.26353917212E+03  0.26353917212E+03  0.00000000000E+00 0.  1.
          6    2    1    2  502    0  0.21131182069E+03 -0.22103778285E+03  0.29906866280E+03  0.46278604724E+03  0.17668750223E+03 0.  0.
         24    2    3    3    0    0  0.20965173485E+03 -0.11628029272E+03  0.20365470082E+03  0.32100169774E+03  0.63967932482E+02 0.  0.
         -6    2    1    2    0  501 -0.21131182069E+03  0.22103778285E+03 -0.11736104506E+02  0.35162485529E+03  0.17318174181E+03 0.  0.
        -24    2    5    5    0    0 -0.13122323834E+03  0.71871939047E+02  0.39389168778E+02  0.17470534379E+03  0.81150087050E+02 0.  0.
          5    1    3    3  502    0  0.16600858427E+01 -0.10475749013E+03  0.95413961972E+02  0.14178434950E+03  0.47000000000E+01 0. -1.
        -11    1    4    4    0    0  0.21225605285E+02 -0.34602519841E+02  0.50617438678E+02  0.64884403345E+02  0.00000000000E+00 0.  1.
         12    1    4    4    0    0  0.18842612956E+03 -0.81677772878E+02  0.15303726215E+03  0.25611729440E+03  0.00000000000E+00 0. -1.
         -5    1    5    5    0  501 -0.80088582348E+02  0.14916584381E+03 -0.51125273284E+02  0.17691951150E+03  0.47000000000E+01 0.  1.
         13    1    6    6    0    0 -0.49764241465E+02  0.26033261895E+02 -0.24719940782E+02  0.61361925701E+02  0.00000000000E+00 0. -1.
        -14    1    6    6    0    0 -0.81458996877E+02  0.45838677151E+02  0.64109109560E+02  0.11334341809E+03  0.00000000000E+00 0.  1.
<mgrwt>
<rscale>  2 0.35229826E+03</rscale>
<asrwt>0</asrwt>
<pdfrwt beam="2">  1        4 0.40544488E-01 0.35229826E+03</pdfrwt>
<pdfrwt beam="1">  1       -4 0.84749497E-01 0.35229826E+03</pdfrwt>
<totfact> 0.13737624E+01</totfact>
</mgrwt>
</event>
<event>
12    1  0.4154313E-002  0.1922803E+03  0.7546771E-02  0.1156421E+00
         -2   -1    0    0    0  501 -0.00000000000E+00  0.00000000000E+00  0.35885419795E+02  0.35885419795E+02  0.00000000000E+00 0.  1.
          2   -1    0    0  502    0  0.00000000000E+00 -0.00000000000E+00 -0.13092803301E+04  0.13092803301E+04  0.00000000000E+00 0. -1.
          6    2    1    2  502    0 -0.53096422448E+02 -0.20936064241E+02 -0.35426199970E+03  0.40808638369E+03  0.19435890323E+03 0.  0.
         24    2    3    3    0    0 -0.69802728869E+01  0.11419091689E+01 -0.43477370590E+02  0.93089063312E+02  0.82007705666E+02 0.  0.
         -6    2    1    2    0  501  0.53096422448E+02  0.20936064241E+02 -0.91913291063E+03  0.93707936622E+03  0.17336344001E+03 0.  0.
        -24    2    5    5    0    0 -0.33767668820E+02 -0.40938630427E+01 -0.59919638613E+03  0.60458374622E+03  0.72994396139E+02 0.  0.
          5    1    3    3  502    0 -0.46116149561E+02 -0.22077973410E+02 -0.31078462911E+03  0.31499732038E+03  0.47000000000E+01 0. -1.
        -11    1    4    4    0    0 -0.37526293265E+02  0.33063724209E+01 -0.49169556317E+02  0.61941908699E+02  0.00000000000E+00 0.  1.
         12    1    4    4    0    0  0.30546020378E+02 -0.21644632521E+01  0.56921857271E+01  0.31147154613E+02  0.00000000000E+00 0. -1.
         -5    1    5    5    0  501  0.86864091268E+02  0.25029927284E+02 -0.31993652450E+03  0.33249562000E+03  0.47000000000E+01 0.  1.
         11    1    6    6    0    0  0.29598949061E+01  0.28578682195E+02 -0.15181588449E+03  0.15451072726E+03  0.00000000000E+00 0. -1.
        -12    1    6    6    0    0 -0.36727563726E+02 -0.32672545238E+02 -0.44738050164E+03  0.45007301896E+03  0.00000000000E+00 0.  1.
<mgrwt>
<rscale>  2 0.19228027E+03</rscale>
<asrwt>0</asrwt>
<pdfrwt beam="2">  1        2 0.20142777E+00 0.19228027E+03</pdfrwt>
<pdfrwt beam="1">  1       -2 0.55208331E-02 0.19228027E+03</pdfrwt>
<totfact> 0.29073033E+03</totfact>
</mgrwt>
</event>
<event>
12    1  0.4154313E-002  0.4800864E+03  0.7546771E-02  0.1019111E+00
          2   -1    0    0  502    0  0.00000000000E+00  0.00000000000E+00  0.79374201176E+03  0.79374201176E+03  0.00000000000E+00 0. -1.
         -2   -1    0    0    0  501 -0.00000000000E+00 -0.00000000000E+00 -0.37398136431E+03  0.37398136431E+03  0.00000000000E+00 0.  1.
          6    2    1    2  502    0  0.60932207603E+02 -0.44352720326E+03 -0.66184909090E+02  0.48461314473E+03  0.17332150444E+03 0.  0.
         24    2    3    3    0    0  0.69824690843E+02 -0.13730932335E+03 -0.25454276555E+02  0.17553460995E+03  0.80219332871E+02 0.  0.
         -6    2    1    2    0  501 -0.60932207603E+02  0.44352720326E+03  0.48594555654E+03  0.68311023134E+03  0.17339951063E+03 0.  0.
        -24    2    5    5    0    0  0.25407499770E+02  0.23338423657E+03  0.20542791628E+03  0.32210213169E+03  0.80221016734E+02 0.  0.
          5    1    3    3  502    0 -0.88924832399E+01 -0.30621787991E+03 -0.40730632535E+02  0.30907853478E+03  0.47000000000E+01 0. -1.
        -13    1    4    4    0    0  0.47456794166E+02 -0.14273579683E+03 -0.25212375910E+02  0.15251661847E+03  0.00000000000E+00 0.  1.
         14    1    4    4    0    0  0.22367896677E+02  0.54264734800E+01 -0.24190064527E+00  0.23017991487E+02  0.00000000000E+00 0. -1.
         -5    1    5    5    0  501 -0.86339707373E+02  0.21014296669E+03  0.28051764026E+03  0.36100809965E+03  0.47000000000E+01 0.  1.
         13    1    6    6    0    0 -0.96087032751E+01  0.12354696474E+03  0.14885535832E+03  0.19368556316E+03  0.00000000000E+00 0. -1.
        -14    1    6    6    0    0  0.35016203045E+02  0.10983727183E+03  0.56572557963E+02  0.12841656853E+03  0.00000000000E+00 0.  1.
<mgrwt>
<rscale>  2 0.48008643E+03</rscale>
<asrwt>0</asrwt>
<pdfrwt beam="1">  1        2 0.12211416E+00 0.48008643E+03</pdfrwt>
<pdfrwt beam="2">  1       -2 0.57535595E-01 0.48008643E+03</pdfrwt>
<totfact> 0.10188808E+02</totfact>
</mgrwt>
</event>
<event>
12    1  0.4154313E-002  0.2280824E+03  0.7546771E-02  0.1127997E+00
          4   -1    0    0  502    0  0.00000000000E+00  0.00000000000E+00  0.51840750105E+03  0.51840750105E+03  0.00000000000E+00 0. -1.
         -4   -1    0    0    0  501 -0.00000000000E+00 -0.00000000000E+00 -0.29018408866E+03  0.29018408866E+03  0.00000000000E+00 0.  1.
          6    2    1    2  502    0 -0.13993012708E+03  0.46011088869E+02 -0.21304401672E+03  0.31144934966E+03  0.17296093079E+03 0.  0.
         24    2    3    3    0    0 -0.97606199591E+02 -0.28626918301E+02 -0.76930811366E+02  0.15048027926E+03  0.79871735044E+02 0.  0.
         -6    2    1    2    0  501  0.13993012708E+03 -0.46011088869E+02  0.44126742912E+03  0.49714224005E+03  0.17531686195E+03 0.  0.
        -24    2    5    5    0    0  0.13613846276E+03 -0.39856895247E+02  0.20222372924E+03  0.25794309442E+03  0.74282906193E+02 0.  0.
          5    1    3    3  502    0 -0.42323927486E+02  0.74638007170E+02 -0.13611320535E+03  0.16096907039E+03  0.47000000000E+01 0. -1.
        -11    1    4    4    0    0 -0.10494005760E+03 -0.73409683040E+01 -0.53625108543E+02  0.11807606773E+03  0.00000000000E+00 0.  1.
         12    1    4    4    0    0  0.73338580115E+01 -0.21285949997E+02 -0.23305702822E+02  0.32404211527E+02  0.00000000000E+00 0. -1.
         -5    1    5    5    0  501  0.37916643137E+01 -0.61541936212E+01  0.23904369988E+03  0.23919914563E+03  0.47000000000E+01 0.  1.
         13    1    6    6    0    0  0.10366879521E+03 -0.33421982253E+02  0.19604251633E+03  0.22426973983E+03  0.00000000000E+00 0. -1.
        -14    1    6    6    0    0  0.32469667554E+02 -0.64349129943E+01  0.61812129108E+01  0.33673354590E+02  0.00000000000E+00 0.  1.
<mgrwt>
<rscale>  2 0.22808241E+03</rscale>
<asrwt>0</asrwt>
<pdfrwt beam="1">  1        4 0.79755000E-01 0.22808241E+03</pdfrwt>
<pdfrwt beam="2">  1       -4 0.44643706E-01 0.22808241E+03</pdfrwt>
<totfact> 0.12544760E+01</totfact>
</mgrwt>
</event>
<event>
12    1  0.4154313E-002  0.1849755E+03  0.7546771E-02  0.1163073E+00
         -3   -1    0    0    0  501 -0.00000000000E+00  0.00000000000E+00  0.21282198154E+02  0.21282198154E+02  0.00000000000E+00 0.  1.
          3   -1    0    0  502    0  0.00000000000E+00 -0.00000000000E+00 -0.18955558440E+04  0.18955558440E+04  0.00000000000E+00 0. -1.
          6    2    1    2  502    0  0.35900895448E+02 -0.39915680832E+02 -0.12990606754E+04  0.13117985032E+04  0.17428292790E+03 0.  0.
         24    2    3    3    0    0  0.81724074004E+02  0.73415721179E+01 -0.76154942622E+03  0.77025123419E+03  0.81220146863E+02 0.  0.
         -6    2    1    2    0  501 -0.35900895448E+02  0.39915680832E+02 -0.57521297047E+03  0.60503953890E+03  0.17977971623E+03 0.  0.
        -24    2    5    5    0    0  0.11349563013E+01  0.90628441386E+02 -0.36207993839E+03  0.38279818865E+03  0.84957453679E+02 0.  0.
          5    1    3    3  502    0 -0.45823178556E+02 -0.47257252950E+02 -0.53751124915E+03  0.54154726905E+03  0.47000000000E+01 0. -1.
        -13    1    4    4    0    0 -0.12038814799E+02  0.12081184373E+02 -0.21691036807E+03  0.21757986086E+03  0.00000000000E+00 0.  1.
         14    1    4    4    0    0  0.93762888803E+02 -0.47396122548E+01 -0.54463905815E+03  0.55267137333E+03  0.00000000000E+00 0. -1.
         -5    1    5    5    0  501 -0.37035851749E+02 -0.50712760554E+02 -0.21313303208E+03  0.22224135025E+03  0.47000000000E+01 0.  1.
         13    1    6    6    0    0 -0.41589013599E+02  0.47445275533E+02 -0.19957559667E+03  0.20931105802E+03  0.00000000000E+00 0. -1.
        -14    1    6    6    0    0  0.42723969900E+02  0.43183165853E+02 -0.16250434172E+03  0.17348713064E+03  0.00000000000E+00 0.  1.
<mgrwt>
<rscale>  2 0.18497552E+03</rscale>
<asrwt>0</asrwt>
<pdfrwt beam="2">  1        3 0.29162404E+00 0.18497552E+03</pdfrwt>
<pdfrwt beam="1">  1       -3 0.32741836E-02 0.18497552E+03</pdfrwt>
<totfact> 0.54109782E+01</totfact>
</mgrwt>
</event>
<event>
12    1  0.4154313E-002  0.3265333E+03  0.7546771E-02  0.1072681E+00
         -2   -1    0    0    0  501 -0.00000000000E+00  0.00000000000E+00  0.94138065694E+02  0.94138065694E+02  0.00000000000E+00 0. -1.
          2   -1    0    0  502    0  0.00000000000E+00 -0.00000000000E+00 -0.13992512438E+04  0.13992512438E+04  0.00000000000E+00 0.  1.
          6    2    1    2  502    0  0.23623453646E+03 -0.14383006906E+03 -0.32610166085E+03  0.46125778935E+03  0.17298153093E+03 0.  0.
         24    2    3    3    0    0  0.20642727140E+03 -0.10266544972E+03 -0.17173602243E+03  0.29867292147E+03  0.80992837213E+02 0.  0.
         -6    2    1    2    0  501 -0.23623453646E+03  0.14383006906E+03 -0.97901151722E+03  0.10321315201E+04  0.17417829650E+03 0.  0.
        -24    2    5    5    0    0 -0.21894324491E+03  0.16603958871E+03 -0.76281775255E+03  0.81406252780E+03  0.72811991097E+02 0.  0.
          5    1    3    3  502    0  0.29807265056E+02 -0.41164619347E+02 -0.15436563842E+03  0.16258486787E+03  0.47000000000E+01 0. -1.
        -13    1    4    4    0    0  0.13681234942E+03 -0.45082758500E+02 -0.14515596457E+03  0.20450019100E+03  0.00000000000E+00 0.  1.
         14    1    4    4    0    0  0.69614921976E+02 -0.57582691216E+02 -0.26580057860E+02  0.94172730476E+02  0.00000000000E+00 0. -1.
         -5    1    5    5    0  501 -0.17291291543E+02 -0.22209519642E+02 -0.21619376467E+03  0.21806899231E+03  0.47000000000E+01 0.  1.
         13    1    6    6    0    0 -0.82591038089E+02  0.94025924346E+02 -0.41807947330E+03  0.43640875337E+03  0.00000000000E+00 0. -1.
        -14    1    6    6    0    0 -0.13635220682E+03  0.72013664360E+02 -0.34473827925E+03  0.37765377443E+03  0.00000000000E+00 0.  1.
<mgrwt>
<rscale>  2 0.32653329E+03</rscale>
<asrwt>0</asrwt>
<pdfrwt beam="2">  1        2 0.21526942E+00 0.32653329E+03</pdfrwt>
<pdfrwt beam="1">  1       -2 0.14482779E-01 0.32653329E+03</pdfrwt>
<totfact> 0.56030177E+02</totfact>
</mgrwt>
</event>
<event>
12    1  0.4154313E-002  0.2404291E+03  0.7546771E-02  0.1119507E+00
          1   -1    0    0  502    0  0.00000000000E+00  0.00000000000E+00  0.52298584348E+03  0.52298584348E+03  0.00000000000E+00 0. -1.
         -1   -1    0    0    0  501 -0.00000000000E+00 -0.00000000000E+00 -0.15680532786E+03  0.15680532786E+03  0.00000000000E+00 0.  1.
          6    2    1    2  502    0  0.96065658824E+01 -0.16449689615E+03  0.36679619286E+03  0.43763484259E+03  0.17272316983E+03 0.  0.
         24    2    3    3    0    0  0.41720637721E+02 -0.17443132108E+03  0.34434187072E+03  0.39693726291E+03  0.82589160103E+02 0.  0.
         -6    2    1    2    0  501 -0.96065658824E+01  0.16449689615E+03 -0.61567724825E+00  0.24215632875E+03  0.17744800238E+03 0.  0.
        -24    2    5    5    0    0 -0.56320111921E+02  0.33305080642E+02 -0.53050831219E+01  0.10273779209E+03  0.79029909607E+02 0.  0.
          5    1    3    3  502    0 -0.32114071838E+02  0.99344249341E+01  0.22454322142E+02  0.40697579678E+02  0.47000000000E+01 0. -1.
        -13    1    4    4    0    0  0.25343921737E+02 -0.43548574239E+02  0.37080041392E+02  0.62559748696E+02  0.00000000000E+00 0.  1.
         14    1    4    4    0    0  0.16376715984E+02 -0.13088274684E+03  0.30726182933E+03  0.33437751421E+03  0.00000000000E+00 0. -1.
         -5    1    5    5    0  501  0.46713546038E+02  0.13119181551E+03  0.46894058736E+01  0.13941853667E+03  0.47000000000E+01 0.  1.
         13    1    6    6    0    0 -0.19124622016E+02  0.19990495739E+02  0.36117853812E+02  0.45495828942E+02  0.00000000000E+00 0. -1.
        -14    1    6    6    0    0 -0.37195489905E+02  0.13314584903E+02 -0.41422936934E+02  0.57241963145E+02  0.00000000000E+00 0.  1.
<mgrwt>
<rscale>  2 0.24042907E+03</rscale>
<asrwt>0</asrwt>
<pdfrwt beam="1">  1        1 0.80459360E-01 0.24042907E+03</pdfrwt>
<pdfrwt beam="2">  1       -1 0.24123897E-01 0.24042907E+03</pdfrwt>
<totfact> 0.63150692E+02</totfact>
</mgrwt>
</event>
<event>
12    1  0.4154313E-002  0.2088254E+03  0.7546771E-02  0.1142500E+00
         -2   -1    0    0    0  501 -0.00000000000E+00  0.00000000000E+00  0.36656422589E+03  0.36656422589E+03  0.00000000000E+00 0. -1.
          2   -1    0    0  502    0  0.00000000000E+00 -0.00000000000E+00 -0.39766707300E+03  0.39766707300E+03  0.00000000000E+00 0.  1.
          6    2    1    2  502    0 -0.16308980831E+02  0.11571798619E+03 -0.33544385677E+03  0.39510453437E+03  0.17299819897E+03 0.  0.
         24    2    3    3    0    0  0.14836852939E+02  0.10508364814E+03 -0.12754357862E+03  0.18456292859E+03  0.80829480087E+02 0.  0.
         -6    2    1    2    0  501  0.16308980831E+02 -0.11571798619E+03  0.30434100966E+03  0.36912676452E+03  0.17313140368E+03 0.  0.
        -24    2    5    5    0    0 -0.25954570727E+02 -0.11140206698E+02  0.18687864931E+03  0.20620894520E+03  0.82466693672E+02 0.  0.
          5    1    3    3  502    0 -0.31145833770E+02  0.10634338044E+02 -0.20790027815E+03  0.21054160578E+03  0.47000000000E+01 0. -1.
        -11    1    4    4    0    0 -0.16599204930E+01  0.11014787344E+03 -0.86577413114E+02  0.14011052002E+03  0.00000000000E+00 0.  1.
         12    1    4    4    0    0  0.16496773432E+02 -0.50642252953E+01 -0.40966165508E+02  0.44452408573E+02  0.00000000000E+00 0. -1.
         -5    1    5    5    0  501  0.42263551558E+02 -0.10457777949E+03  0.11746236036E+03  0.16291781932E+03  0.47000000000E+01 0.  1.
         13    1    6    6    0    0 -0.10911026539E+02  0.35743789459E+02  0.92350012160E+02  0.99625266528E+02  0.00000000000E+00 0. -1.
        -14    1    6    6    0    0 -0.15043544188E+02 -0.46883996157E+02  0.94528637148E+02  0.10658367867E+03  0.00000000000E+00 0.  1.
<mgrwt>
<rscale>  2 0.20882543E+03</rscale>
<asrwt>0</asrwt>
<pdfrwt beam="2">  1        2 0.61179549E-01 0.20882543E+03</pdfrwt>
<pdfrwt beam="1">  1       -2 0.56394497E-01 0.20882543E+03</pdfrwt>
<totfact> 0.24452432E+02</totfact>
</mgrwt>
</event>
<event>
12    1  0.4154313E-002  0.1850709E+03  0.7546771E-02  0.1162984E+00
          2   -1    0    0  502    0  0.00000000000E+00  0.00000000000E+00  0.37096969971E+02  0.37096969971E+02  0.00000000000E+00 0. -1.
         -2   -1    0    0    0  501 -0.00000000000E+00 -0.00000000000E+00 -0.10467772174E+04  0.10467772174E+04  0.00000000000E+00 0.  1.
          6    2    1    2  502    0  0.57078701814E+02  0.39988135292E+02 -0.69173784421E+03  0.71614945519E+03  0.17178989461E+03 0.  0.
         24    2    3    3    0    0  0.90543311802E+02  0.66821000552E+02 -0.45943215660E+03  0.47987016013E+03  0.80835181906E+02 0.  0.
         -6    2    1    2    0  501 -0.57078701814E+02 -0.39988135292E+02 -0.31794240326E+03  0.36772473222E+03  0.17110545793E+03 0.  0.
        -24    2    5    5    0    0 -0.49848303172E+02  0.19307627916E+02 -0.95142256446E+02  0.13700788928E+03  0.82834020412E+02 0.  0.
          5    1    3    3  502    0 -0.33464609988E+02 -0.26832865260E+02 -0.23230568761E+03  0.23627929506E+03  0.47000000000E+01 0. -1.
        -13    1    4    4    0    0  0.78935847142E+02  0.88617636866E+01 -0.26666465705E+03  0.27824348714E+03  0.00000000000E+00 0.  1.
         14    1    4    4    0    0  0.11607464660E+02  0.57959236866E+02 -0.19276749955E+03  0.20162667298E+03  0.00000000000E+00 0. -1.
         -5    1    5    5    0  501 -0.72303986416E+01 -0.59295763209E+02 -0.22280014681E+03  0.23071684294E+03  0.47000000000E+01 0.  1.
         11    1    6    6    0    0 -0.76727240364E+01 -0.30457319265E+02 -0.18857084578E+02  0.36634800801E+02  0.00000000000E+00 0. -1.
        -12    1    6    6    0    0 -0.42175579136E+02  0.49764947181E+02 -0.76285171868E+02  0.10037308848E+03  0.00000000000E+00 0.  1.
<mgrwt>
<rscale>  2 0.18507093E+03</rscale>
<asrwt>0</asrwt>
<pdfrwt beam="1">  1        2 0.57072269E-02 0.18507093E+03</pdfrwt>
<pdfrwt beam="2">  1       -2 0.16104263E+00 0.18507093E+03</pdfrwt>
<totfact> 0.34486445E+02</totfact>
</mgrwt>
</event>
<event>
12    1  0.4154313E-002  0.2296374E+03  0.7546771E-02  0.1126895E+00
         -1   -1    0    0    0  501 -0.00000000000E+00  0.00000000000E+00  0.13435524281E+03  0.13435524281E+03  0.00000000000E+00 0.  1.
          1   -1    0    0  502    0  0.00000000000E+00 -0.00000000000E+00 -0.83924883234E+03  0.83924883234E+03  0.00000000000E+00 0. -1.
          6    2    1    2  502    0 -0.13637664666E+03  0.64959146360E+02  0.29699366162E+01  0.22931973369E+03  0.17251214243E+03 0.  0.
         24    2    3    3    0    0 -0.78065588204E+02 -0.28763741984E+02  0.20470125552E+02  0.11746042048E+03  0.80351324978E+02 0.  0.
         -6    2    1    2    0  501  0.13637664666E+03 -0.64959146360E+02 -0.70786352615E+03  0.74428434146E+03  0.17340740710E+03 0.  0.
        -24    2    5    5    0    0  0.30637626694E+02  0.23752537175E+01 -0.46269924883E+03  0.46888957998E+03  0.69444491118E+02 0.  0.
          5    1    3    3  502    0 -0.58311058452E+02  0.93722888345E+02 -0.17500188936E+02  0.11185931320E+03  0.47000000000E+01 0. -1.
        -11    1    4    4    0    0 -0.49506377523E+02  0.23230864579E+02  0.19723240120E+02  0.58133989071E+02  0.00000000000E+00 0.  1.
         12    1    4    4    0    0 -0.28559210681E+02 -0.51994606563E+02  0.74688543259E+00  0.59326431413E+02  0.00000000000E+00 0. -1.
         -5    1    5    5    0  501  0.10573901996E+03 -0.67334400078E+02 -0.24516427732E+03  0.27539476148E+03  0.47000000000E+01 0.  1.
         11    1    6    6    0    0  0.43017346491E+02 -0.18012045272E+02 -0.37898927406E+03  0.38184786988E+03  0.00000000000E+00 0. -1.
        -12    1    6    6    0    0 -0.12379719797E+02  0.20387298990E+02 -0.83709974764E+02  0.87041710101E+02  0.00000000000E+00 0.  1.
<mgrwt>
<rscale>  2 0.22963740E+03</rscale>
<asrwt>0</asrwt>
<pdfrwt beam="2">  1        1 0.12911520E+00 0.22963740E+03</pdfrwt>
<pdfrwt beam="1">  1       -1 0.20670038E-01 0.22963740E+03</pdfrwt>
<totfact> 0.41255783E+02</totfact>
</mgrwt>
</event>
<event>
12    1  0.4154313E-002  0.1824359E+03  0.7546771E-02  0.1165466E+00
         -2   -1    0    0    0  501 -0.00000000000E+00  0.00000000000E+00  0.34549043322E+02  0.34549043322E+02  0.00000000000E+00 0. -1.
          2   -1    0    0  502    0  0.00000000000E+00 -0.00000000000E+00 -0.12889443850E+04  0.12889443850E+04  0.00000000000E+00 0.  1.
          6    2    1    2  502    0 -0.55938277686E+02  0.57927164832E+01 -0.29325514088E+03  0.34509354610E+03  0.17299806771E+03 0.  0.
         24    2    3    3    0    0 -0.90014727887E+02 -0.32085134608E+02 -0.16422713342E+03  0.20629061828E+03  0.80331567525E+02 0.  0.
         -6    2    1    2    0  501  0.55938277686E+02 -0.57927164832E+01 -0.96114020080E+03  0.97839988222E+03  0.17410685646E+03 0.  0.
        -24    2    5    5    0    0  0.97470911525E+02  0.57549088485E+01 -0.84619777980E+03  0.85554973990E+03  0.79881019832E+02 0.  0.
          5    1    3    3  502    0  0.34076450200E+02  0.37877851091E+02 -0.12902800746E+03  0.13880292782E+03  0.47000000000E+01 0. -1.
        -13    1    4    4    0    0 -0.27503915740E+02 -0.22339774143E+02 -0.12920986106E+03  0.13398029364E+03  0.00000000000E+00 0.  1.
         14    1    4    4    0    0 -0.62510812146E+02 -0.97453604648E+01 -0.35017272358E+02  0.72310324637E+02  0.00000000000E+00 0. -1.
         -5    1    5    5    0  501 -0.41532633839E+02 -0.11547625332E+02 -0.11494242100E+03  0.12285014232E+03  0.47000000000E+01 0.  1.
         11    1    6    6    0    0 -0.12867443988E+02  0.34957146069E+01 -0.50318224700E+02  0.52054921692E+02  0.00000000000E+00 0. -1.
        -12    1    6    6    0    0  0.11033835551E+03  0.22591942415E+01 -0.79587955510E+03  0.80349481821E+03  0.00000000000E+00 0.  1.
<mgrwt>
<rscale>  2 0.18243589E+03</rscale>
<asrwt>0</asrwt>
<pdfrwt beam="2">  1        2 0.19829914E+00 0.18243589E+03</pdfrwt>
<pdfrwt beam="1">  1       -2 0.53152372E-02 0.18243589E+03</pdfrwt>
<totfact> 0.31577377E+03</totfact>
</mgrwt>
</event>
<event>
12    1  0.4154313E-002  0.1893631E+03  0.7546771E-02  0.1159037E+00
         -2   -1    0    0    0  501 -0.00000000000E+00  0.00000000000E+00  0.15411488128E+03  0.15411488128E+03  0.00000000000E+00 0. -1.
          2   -1    0    0  502    0  0.00000000000E+00 -0.00000000000E+00 -0.23497914008E+03  0.23497914008E+03  0.00000000000E+00 0.  1.
          6    2    1    2  502    0  0.54472439162E+02  0.52895094610E+02 -0.21227203136E+02  0.19085781682E+03  0.17381304446E+03 0.  0.
         24    2    3    3    0    0  0.77997508305E+02  0.65593595978E+02  0.30090413885E+02  0.13280380204E+03  0.79657301571E+02 0.  0.
         -6    2    1    2    0  501 -0.54472439162E+02 -0.52895094610E+02 -0.59637055665E+02  0.19823620454E+03  0.17313542884E+03 0.  0.
        -24    2    5    5    0    0 -0.25263726054E+01 -0.86737248179E+02 -0.66017627140E+02  0.13573430952E+03  0.80843941687E+02 0.  0.
          5    1    3    3  502    0 -0.23525069143E+02 -0.12698501367E+02 -0.51317617021E+02  0.58054014778E+02  0.47000000000E+01 0. -1.
        -11    1    4    4    0    0  0.20612719319E+02 -0.18390774414E+02  0.58064036582E+01  0.28227984426E+02  0.00000000000E+00 0.  1.
         12    1    4    4    0    0  0.57384788986E+02  0.83984370392E+02  0.24284010227E+02  0.10457581762E+03  0.00000000000E+00 0. -1.
         -5    1    5    5    0  501 -0.51946066557E+02  0.33842153568E+02  0.63805714743E+01  0.62501895021E+02  0.47000000000E+01 0.  1.
         13    1    6    6    0    0  0.24190908695E+02 -0.71814057153E+02 -0.72025903562E+02  0.10454754733E+03  0.00000000000E+00 0. -1.
        -14    1    6    6    0    0 -0.26717281300E+02 -0.14923191025E+02  0.60082764220E+01  0.31186762192E+02  0.00000000000E+00 0.  1.
<mgrwt>
<rscale>  2 0.18936307E+03</rscale>
<asrwt>0</asrwt>
<pdfrwt beam="2">  1        2 0.36150637E-01 0.18936307E+03</pdfrwt>
<pdfrwt beam="1">  1       -2 0.23709982E-01 0.18936307E+03</pdfrwt>
<totfact> 0.21969800E+03</totfact>
</mgrwt>
</event>
<event>
12    1  0.4154313E-002  0.1777459E+03  0.7546771E-02  0.1170003E+00
         -4   -1    0    0    0  501 -0.00000000000E+00  0.00000000000E+00  0.46720410809E+02  0.46720410809E+02  0.00000000000E+00 0.  1.
          4   -1    0    0  502    0  0.00000000000E+00 -0.00000000000E+00 -0.79593362506E+03  0.79593362506E+03  0.00000000000E+00 0. -1.
          6    2    1    2  502    0 -0.93030512802E+01  0.41773808452E+02 -0.53733041733E+03  0.56584889259E+03  0.17213190878E+03 0.  0.
         24    2    3    3    0    0 -0.10769530541E+02  0.89513674152E+02 -0.30415890900E+03  0.32778947220E+03  0.82490093426E+02 0.  0.
         -6    2    1    2    0  501  0.93030512802E+01 -0.41773808452E+02 -0.21188279692E+03  0.27680514328E+03  0.17290219744E+03 0.  0.
        -24    2    5    5    0    0  0.48192001459E+02  0.25092303561E+02 -0.14126430471E+03  0.17196007270E+03  0.81624568096E+02 0.  0.
          5    1    3    3  502    0  0.14664792611E+01 -0.47739865700E+02 -0.23317150833E+03  0.23805942038E+03  0.47000000000E+01 0. -1.
        -13    1    4    4    0    0 -0.27450705195E+02  0.99346441332E+01 -0.30133236577E+02  0.41955337162E+02  0.00000000000E+00 0.  1.
         14    1    4    4    0    0  0.16681174654E+02  0.79579030018E+02 -0.27402567242E+03  0.28583413504E+03  0.00000000000E+00 0. -1.
         -5    1    5    5    0  501 -0.38888950178E+02 -0.66866112013E+02 -0.70618492209E+02  0.10484507057E+03  0.47000000000E+01 0.  1.
         13    1    6    6    0    0  0.48253835531E+02 -0.18860184249E+02 -0.94585479544E+02  0.10784503760E+03  0.00000000000E+00 0. -1.
        -14    1    6    6    0    0 -0.61834072368E-01  0.43952487811E+02 -0.46678825166E+02  0.64115035109E+02  0.00000000000E+00 0.  1.
<mgrwt>
<rscale>  2 0.17774589E+03</rscale>
<asrwt>0</asrwt>
<pdfrwt beam="2">  1        4 0.12245132E+00 0.17774589E+03</pdfrwt>
<pdfrwt beam="1">  1       -4 0.71877561E-02 0.17774589E+03</pdfrwt>
<totfact> 0.12180631E+02</totfact>
</mgrwt>
</event>
<event>
12    1  0.4154313E-002  0.2032619E+03  0.7546771E-02  0.1147016E+00
          2   -1    0    0  502    0  0.00000000000E+00  0.00000000000E+00  0.23684667770E+04  0.23684667770E+04  0.00000000000E+00 0.  1.
         -2   -1    0    0    0  501 -0.00000000000E+00 -0.00000000000E+00 -0.19922960257E+02  0.19922960257E+02  0.00000000000E+00 0. -1.
          6    2    1    2  502    0 -0.32145572591E+00 -0.10664653577E+03  0.15947531155E+04  0.16076353312E+04  0.17285911025E+03 0.  0.
         24    2    3    3    0    0  0.23041526881E+02 -0.20196506148E+02  0.39906644874E+03  0.40859065668E+03  0.82179580147E+02 0.  0.
         -6    2    1    2    0  501  0.32145572591E+00  0.10664653577E+03  0.75379070131E+03  0.78075440606E+03  0.17321499439E+03 0.  0.
        -24    2    5    5    0    0 -0.73571535338E+00  0.58846485563E+02  0.18662653534E+03  0.21155914644E+03  0.80401235136E+02 0.  0.
          5    1    3    3  502    0 -0.23362982607E+02 -0.86450029619E+02  0.11956866667E+04  0.11990446745E+04  0.47000000000E+01 0. -1.
        -11    1    4    4    0    0  0.44778047480E+02  0.13910058889E+02  0.19537029118E+03  0.20091817725E+03  0.00000000000E+00 0.  1.
         12    1    4    4    0    0 -0.21736520599E+02 -0.34106565037E+02  0.20369615756E+03  0.20767247943E+03  0.00000000000E+00 0. -1.
         -5    1    5    5    0  501  0.10571710793E+01  0.47800050204E+02  0.56716416597E+03  0.56919525962E+03  0.47000000000E+01 0.  1.
         11    1    6    6    0    0 -0.18194195899E+02  0.52227445626E+02  0.18468404060E+03  0.19278726538E+03  0.00000000000E+00 0. -1.
        -12    1    6    6    0    0  0.17458480546E+02  0.66190399368E+01  0.19424947337E+01  0.18771881058E+02  0.00000000000E+00 0.  1.
<mgrwt>
<rscale>  2 0.20326189E+03</rscale>
<asrwt>0</asrwt>
<pdfrwt beam="1">  1        2 0.36437928E+00 0.20326189E+03</pdfrwt>
<pdfrwt beam="2">  1       -2 0.30650727E-02 0.20326189E+03</pdfrwt>
<totfact> 0.19517291E+03</totfact>
</mgrwt>
</event>
<event>
12    1  0.4154313E-002  0.3462169E+03  0.7546771E-02  0.1064179E+00
          1   -1    0    0  502    0  0.00000000000E+00  0.00000000000E+00  0.70349394144E+03  0.70349394144E+03  0.00000000000E+00 0.  1.
         -1   -1    0    0    0  501 -0.00000000000E+00 -0.00000000000E+00 -0.18403679930E+03  0.18403679930E+03  0.00000000000E+00 0. -1.
          6    2    1    2  502    0 -0.29508543875E+03 -0.50982835843E+02  0.13905783242E+03  0.37334543938E+03  0.17428445323E+03 0.  0.
         24    2    3    3    0    0 -0.14879959236E+03 -0.92433800993E+02  0.58587464888E+02  0.20125447095E+03  0.79909603813E+02 0.  0.
         -6    2    1    2    0  501  0.29508543875E+03  0.50982835843E+02  0.38039930972E+03  0.51418530136E+03  0.17322881857E+03 0.  0.
        -24    2    5    5    0    0  0.30077143506E+03  0.70993712040E+02  0.33047015786E+03  0.45989187702E+03  0.82379912702E+02 0.  0.
          5    1    3    3  502    0 -0.14628584639E+03  0.41450965150E+02  0.80470367532E+02  0.17209096843E+03  0.47000000000E+01 0. -1.
        -11    1    4    4    0    0 -0.45240075884E+02 -0.61647836693E+02  0.53063957157E+02  0.93074721509E+02  0.00000000000E+00 0.  1.
         12    1    4    4    0    0 -0.10355951648E+03 -0.30785964300E+02  0.55235077309E+01  0.10817974944E+03  0.00000000000E+00 0. -1.
         -5    1    5    5    0  501 -0.56859963140E+01 -0.20010876198E+02  0.49929151859E+02  0.54293424332E+02  0.47000000000E+01 0.  1.
         13    1    6    6    0    0  0.15822772270E+03  0.78823977213E+02  0.17297542228E+03  0.24732514698E+03  0.00000000000E+00 0. -1.
        -14    1    6    6    0    0  0.14254371236E+03 -0.78302651727E+01  0.15749473558E+03  0.21256673005E+03  0.00000000000E+00 0.  1.
<mgrwt>
<rscale>  2 0.34621694E+03</rscale>
<asrwt>0</asrwt>
<pdfrwt beam="1">  1        1 0.10822984E+00 0.34621694E+03</pdfrwt>
<pdfrwt beam="2">  1       -1 0.28313354E-01 0.34621694E+03</pdfrwt>
<totfact> 0.31591637E+02</totfact>
</mgrwt>
</event>
<event>
12    1  0.4154313E-002  0.2144236E+03  0.7546771E-02  0.1138110E+00
          2   -1    0    0  502    0  0.00000000000E+00  0.00000000000E+00  0.20153524195E+04  0.20153524195E+04  0.00000000000E+00 0. -1.
         -2   -1    0    0    0  501 -0.00000000000E+00 -0.00000000000E+00 -0.28002349003E+02  0.28002349003E+02  0.00000000000E+00 0.  1.
          6    2    1    2  502    0 -0.69199479250E+02 -0.10489280183E+03  0.55268119784E+03  0.59270345878E+03  0.17334882695E+03 0.  0.
         24    2    3    3    0    0  0.28284092063E+02 -0.55160350358E+02  0.21936494743E+03  0.24184996202E+03  0.80794615245E+02 0.  0.
         -6    2    1    2    0  501  0.69199479250E+02  0.10489280183E+03  0.14346688727E+04  0.14506513098E+04  0.17413609737E+03 0.  0.
        -24    2    5    5    0    0  0.88123866954E+02  0.41154488189E+02  0.58559999947E+03  0.59897018013E+03  0.79864945265E+02 0.  0.
          5    1    3    3  502    0 -0.97483571312E+02 -0.49732451476E+02  0.33331625041E+03  0.35085349677E+03  0.47000000000E+01 0. -1.
        -13    1    4    4    0    0  0.16114938668E+01  0.13320345744E+02  0.35704566381E+01  0.13884404338E+02  0.00000000000E+00 0.  1.
         14    1    4    4    0    0  0.26672598196E+02 -0.68480696102E+02  0.21579449079E+03  0.22796555768E+03  0.00000000000E+00 0. -1.
         -5    1    5    5    0  501 -0.18924387704E+02  0.63738313645E+02  0.84906887323E+03  0.85168112963E+03  0.47000000000E+01 0.  1.
         13    1    6    6    0    0  0.34192163911E+02  0.11741042570E+02  0.43245712593E+03  0.43396557688E+03  0.00000000000E+00 0. -1.
        -14    1    6    6    0    0  0.53931703044E+02  0.29413445619E+02  0.15314287354E+03  0.16500460325E+03  0.00000000000E+00 0.  1.
<mgrwt>
<rscale>  2 0.21442356E+03</rscale>
<asrwt>0</asrwt>
<pdfrwt beam="1">  1        2 0.31005411E+00 0.21442356E+03</pdfrwt>
<pdfrwt beam="2">  1       -2 0.43080553E-02 0.21442356E+03</pdfrwt>
<totfact> 0.17985507E+03</totfact>
</mgrwt>
</event>
<event>
12    1  0.4154313E-002  0.1961169E+03  0.7546771E-02  0.1153057E+00
          1   -1    0    0  502    0  0.00000000000E+00  0.00000000000E+00  0.18127246163E+04  0.18127246163E+04  0.00000000000E+00 0. -1.
         -1   -1    0    0    0  501 -0.00000000000E+00 -0.00000000000E+00 -0.23398217051E+02  0.23398217051E+02  0.00000000000E+00 0.  1.
          6    2    1    2  502    0  0.49703868893E+02  0.46175464953E+02  0.63436951796E+03  0.66538993506E+03  0.18898791554E+03 0.  0.
         24    2    3    3    0    0  0.11844929167E+01 -0.39486347927E+02  0.33108070506E+03  0.34648827300E+03  0.94229058004E+02 0.  0.
         -6    2    1    2    0  501 -0.49703868893E+02 -0.46175464953E+02  0.11549568813E+04  0.11707328983E+04  0.17912976680E+03 0.  0.
        -24    2    5    5    0    0 -0.36952860997E+02 -0.10110354882E+03  0.76528940238E+03  0.77697851200E+03  0.80251462293E+02 0.  0.
          5    1    3    3  502    0  0.48519375976E+02  0.85661812880E+02  0.30328881290E+03  0.31890166206E+03  0.47000000000E+01 0. -1.
        -11    1    4    4    0    0  0.11184181944E+02 -0.13684475775E+02  0.38478261031E+01  0.18087469936E+02  0.00000000000E+00 0.  1.
         12    1    4    4    0    0 -0.99996890270E+01 -0.25801872152E+02  0.32723287895E+03  0.32840080307E+03  0.00000000000E+00 0. -1.
         -5    1    5    5    0  501 -0.12751007896E+02  0.54928083870E+02  0.38966747890E+03  0.39375438628E+03  0.47000000000E+01 0.  1.
         13    1    6    6    0    0  0.16978061066E+02 -0.19507621590E+02  0.32151613096E+03  0.32255452923E+03  0.00000000000E+00 0. -1.
        -14    1    6    6    0    0 -0.53930922063E+02 -0.81595927232E+02  0.44377327142E+03  0.45442398278E+03  0.00000000000E+00 0.  1.
<mgrwt>
<rscale>  2 0.19611686E+03</rscale>
<asrwt>0</asrwt>
<pdfrwt beam="1">  1        1 0.27888060E+00 0.19611686E+03</pdfrwt>
<pdfrwt beam="2">  1       -1 0.35997271E-02 0.19611686E+03</pdfrwt>
<totfact> 0.12907658E+03</totfact>
</mgrwt>
</event>
<event>
12    1  0.4154313E-002  0.1857180E+03  0.7546771E-02  0.1162381E+00
         -2   -1    0    0    0  501 -0.00000000000E+00  0.00000000000E+00  0.26914892623E+03  0.26914892623E+03  0.00000000000E+00 0. -1.
          2   -1    0    0  502    0  0.00000000000E+00 -0.00000000000E+00 -0.12831627689E+03  0.12831627689E+03  0.00000000000E+00 0.  1.
          6    2    1    2  502    0  0.38058955783E+01  0.69296335482E+02  0.77105114045E+02  0.20012425616E+03  0.17113752464E+03 0.  0.
         24    2    3    3    0    0  0.67497919724E+02  0.40058832573E+02  0.30321586053E+02  0.11573057152E+03  0.79457456346E+02 0.  0.
         -6    2    1    2    0  501 -0.38058955783E+01 -0.69296335482E+02  0.63727535292E+02  0.19734094696E+03  0.17339487778E+03 0.  0.
        -24    2    5    5    0    0 -0.40523563945E+02 -0.97450882067E+02  0.20276344625E+02  0.13369378179E+03  0.79523980583E+02 0.  0.
          5    1    3    3  502    0 -0.63692024145E+02  0.29237502910E+02  0.46783527992E+02  0.84393684642E+02  0.47000000000E+01 0. -1.
        -13    1    4    4    0    0  0.36274344020E+02  0.27277428521E+02 -0.24335952932E+02  0.51498783926E+02  0.00000000000E+00 0.  1.
         14    1    4    4    0    0  0.31223575703E+02  0.12781404052E+02  0.54657538985E+02  0.64231787591E+02  0.00000000000E+00 0. -1.
         -5    1    5    5    0  501  0.36717668367E+02  0.28154546585E+02  0.43451190666E+02  0.63647165169E+02  0.47000000000E+01 0.  1.
         13    1    6    6    0    0 -0.33056081683E+02 -0.77692568168E+02  0.49319727498E+02  0.97781773380E+02  0.00000000000E+00 0. -1.
        -14    1    6    6    0    0 -0.74674822625E+01 -0.19758313899E+02 -0.29043382873E+02  0.35912008412E+02  0.00000000000E+00 0.  1.
<mgrwt>
<rscale>  2 0.18571805E+03</rscale>
<asrwt>0</asrwt>
<pdfrwt beam="2">  1        2 0.19740966E-01 0.18571805E+03</pdfrwt>
<pdfrwt beam="1">  1       -2 0.41407527E-01 0.18571805E+03</pdfrwt>
<totfact> 0.15502488E+03</totfact>
</mgrwt>
</event>
<event>
12    1  0.4154313E-002  0.2410454E+03  0.7546771E-02  0.1119098E+00
          2   -1    0    0  502    0  0.00000000000E+00  0.00000000000E+00  0.39303020506E+04  0.39303020506E+04  0.00000000000E+00 0.  1.
         -2   -1    0    0    0  501 -0.00000000000E+00 -0.00000000000E+00 -0.15214174381E+02  0.15214174381E+02  0.00000000000E+00 0. -1.
          6    2    1    2  502    0  0.11351609432E+03 -0.12287842126E+03  0.16193626612E+04  0.16370880147E+04  0.17244340908E+03 0.  0.
         24    2    3    3    0    0  0.16445786589E+02 -0.71557041454E+02  0.11382042223E+04  0.11435375492E+04  0.82331043467E+02 0.  0.
         -6    2    1    2    0  501 -0.11351609432E+03  0.12287842126E+03  0.22957252150E+04  0.23084282102E+04  0.17464686948E+03 0.  0.
        -24    2    5    5    0    0 -0.14442456384E+03  0.11403241308E+03  0.21364980351E+04  0.21459198407E+04  0.80537338839E+02 0.  0.
          5    1    3    3  502    0  0.97070307736E+02 -0.51321379809E+02  0.48115843895E+03  0.49355046555E+03  0.47000000000E+01 0. -1.
        -11    1    4    4    0    0  0.36803417587E+02 -0.55555793253E+02  0.10346937523E+04  0.10368375469E+04  0.00000000000E+00 0.  1.
         12    1    4    4    0    0 -0.20357630998E+02 -0.16001248201E+02  0.10351047001E+03  0.10670000227E+03  0.00000000000E+00 0. -1.
         -5    1    5    5    0  501  0.30908469513E+02  0.88460081832E+01  0.15922717991E+03  0.16250836954E+03  0.47000000000E+01 0.  1.
         13    1    6    6    0    0 -0.41400358853E+02  0.17870171260E+01  0.26386707923E+03  0.26710113936E+03  0.00000000000E+00 0. -1.
        -14    1    6    6    0    0 -0.10302420498E+03  0.11224539595E+03  0.18726309558E+04  0.18788187013E+04  0.00000000000E+00 0.  1.
<mgrwt>
<rscale>  2 0.24104539E+03</rscale>
<asrwt>0</asrwt>
<pdfrwt beam="1">  1        2 0.60466104E+00 0.24104539E+03</pdfrwt>
<pdfrwt beam="2">  1       -2 0.23406453E-02 0.24104539E+03</pdfrwt>
<totfact> 0.31280949E+02</totfact>
</mgrwt>
</event>
<event>
12    1  0.4154313E-002  0.1942009E+03  0.7546771E-02  0.1154726E+00
          1   -1    0    0  502    0  0.00000000000E+00  0.00000000000E+00  0.26300233571E+04  0.26300233571E+04  0.00000000000E+00 0.  1.
         -1   -1    0    0    0  501 -0.00000000000E+00 -0.00000000000E+00 -0.33025970243E+02  0.33025970243E+02  0.00000000000E+00 0. -1.
          6    2    1    2  502    0 -0.69667678390E+02  0.53952103613E+02  0.29501933703E+03  0.35283849236E+03  0.17231998598E+03 0.  0.
         24    2    3    3    0    0  0.12490780723E+02  0.66779328086E+02  0.20835153595E+03  0.23263887573E+03  0.78070389448E+02 0.  0.
         -6    2    1    2    0  501  0.69667678390E+02 -0.53952103613E+02  0.23019780498E+04  0.23102108350E+04  0.17380087833E+03 0.  0.
        -24    2    5    5    0    0  0.11373203856E+03 -0.24297847683E+02  0.16552845923E+04  0.16613228934E+04  0.80630717615E+02 0.  0.
          5    1    3    3  502    0 -0.82158459113E+02 -0.12827224474E+02  0.86667801085E+02  0.12019961662E+03  0.47000000000E+01 0. -1.
        -11    1    4    4    0    0  0.38650052906E+02  0.21967434401E+02  0.54846680194E+02  0.70601367495E+02  0.00000000000E+00 0.  1.
         12    1    4    4    0    0 -0.26159272182E+02  0.44811893685E+02  0.15350485575E+03  0.16203750824E+03  0.00000000000E+00 0. -1.
         -5    1    5    5    0  501 -0.44064360170E+02 -0.29654255929E+02  0.64669345754E+03  0.64888794160E+03  0.47000000000E+01 0.  1.
         11    1    6    6    0    0 -0.29007244588E+01  0.11423089028E+02  0.38857485723E+03  0.38875354768E+03  0.00000000000E+00 0. -1.
        -12    1    6    6    0    0  0.11663276302E+03 -0.35720936711E+02  0.12667097351E+04  0.12725693457E+04  0.00000000000E+00 0.  1.
<mgrwt>
<rscale>  2 0.19420094E+03</rscale>
<asrwt>0</asrwt>
<pdfrwt beam="1">  1        1 0.40461881E+00 0.19420094E+03</pdfrwt>
<pdfrwt beam="2">  1       -1 0.50809206E-02 0.19420094E+03</pdfrwt>
<totfact> 0.22769310E+02</totfact>
</mgrwt>
</event>
<event>
12    1  0.4154313E-002  0.4401330E+03  0.7546771E-02  0.1030706E+00
          2   -1    0    0  502    0  0.00000000000E+00  0.00000000000E+00  0.12718497584E+04  0.12718497584E+04  0.00000000000E+00 0.  1.
         -2   -1    0    0    0  501 -0.00000000000E+00 -0.00000000000E+00 -0.28624703111E+03  0.28624703111E+03  0.00000000000E+00 0. -1.
          6    2    1    2  502    0 -0.24479474448E+03 -0.32251125150E+03  0.10257089186E+04  0.11161600506E+04  0.17261662327E+03 0.  0.
         24    2    3    3    0    0 -0.30295842004E+02 -0.11237405625E+03  0.32589359082E+03  0.35462804014E+03  0.77515467829E+02 0.  0.
         -6    2    1    2    0  501  0.24479474448E+03  0.32251125150E+03 -0.40106191309E+02  0.44193673890E+03  0.17251550752E+03 0.  0.
        -24    2    5    5    0    0  0.21475466327E+03  0.27975091275E+03 -0.86699579051E+02  0.37176632611E+03  0.79455935230E+02 0.  0.
          5    1    3    3  502    0 -0.21449890247E+03 -0.21013719525E+03  0.69981532778E+03  0.76153201048E+03  0.47000000000E+01 0. -1.
        -11    1    4    4    0    0 -0.47350579679E+02 -0.10607768124E+03  0.23754080997E+03  0.26442425807E+03  0.00000000000E+00 0.  1.
         12    1    4    4    0    0  0.17054737675E+02 -0.62963750052E+01  0.88352780852E+02  0.90203782070E+02  0.00000000000E+00 0. -1.
         -5    1    5    5    0  501  0.30040081210E+02  0.42760338754E+02  0.46593387742E+02  0.70170412787E+02  0.47000000000E+01 0.  1.
         13    1    6    6    0    0  0.13784580876E+03  0.23409798252E+03 -0.72817135716E+02  0.28125729798E+03  0.00000000000E+00 0. -1.
        -14    1    6    6    0    0  0.76908854509E+02  0.45652930226E+02 -0.13882443335E+02  0.90509028130E+02  0.00000000000E+00 0.  1.
<mgrwt>
<rscale>  2 0.44013296E+03</rscale>
<asrwt>0</asrwt>
<pdfrwt beam="1">  1        2 0.19566919E+00 0.44013296E+03</pdfrwt>
<pdfrwt beam="2">  1       -2 0.44038005E-01 0.44013296E+03</pdfrwt>
<totfact> 0.88342756E+01</totfact>
</mgrwt>
</event>
<event>
12    1  0.4154313E-002  0.2712515E+03  0.7546771E-02  0.1100565E+00
         -2   -1    0    0    0  501 -0.00000000000E+00  0.00000000000E+00  0.29240830962E+02  0.29240830962E+02  0.00000000000E+00 0. -1.
          2   -1    0    0  502    0  0.00000000000E+00 -0.00000000000E+00 -0.27861293642E+04  0.27861293642E+04  0.00000000000E+00 0.  1.
          6    2    1    2  502    0 -0.13558606355E+03 -0.15770465144E+03 -0.18166176034E+04  0.18367590876E+04  0.17415536471E+03 0.  0.
         24    2    3    3    0    0 -0.73217694433E+02 -0.17465149038E+03 -0.13027086593E+04  0.13187808046E+04  0.79176926250E+02 0.  0.
         -6    2    1    2    0  501  0.13558606355E+03  0.15770465144E+03 -0.94027092986E+03  0.97861110762E+03  0.17411473430E+03 0.  0.
        -24    2    5    5    0    0  0.41450343241E+02  0.13220979345E+03 -0.72448555346E+03  0.74176318111E+03  0.78330959684E+02 0.  0.
          5    1    3    3  502    0 -0.62368369114E+02  0.16946838941E+02 -0.51390894411E+03  0.51797828300E+03  0.47000000000E+01 0. -1.
        -13    1    4    4    0    0 -0.82283368636E+02 -0.11064070367E+03 -0.98078354135E+03  0.99042832807E+03  0.00000000000E+00 0.  1.
         14    1    4    4    0    0  0.90656742029E+01 -0.64010786713E+02 -0.32192511795E+03  0.32835247651E+03  0.00000000000E+00 0. -1.
         -5    1    5    5    0  501  0.94135720306E+02  0.25494857987E+02 -0.21578537640E+03  0.23684792651E+03  0.47000000000E+01 0.  1.
         13    1    6    6    0    0  0.42402002525E+02  0.65164442823E+02 -0.23074463392E+03  0.24349008298E+03  0.00000000000E+00 0. -1.
        -14    1    6    6    0    0 -0.95165928381E+00  0.67045350628E+02 -0.49374091954E+03  0.49827309814E+03  0.00000000000E+00 0.  1.
<mgrwt>
<rscale>  2 0.27125146E+03</rscale>
<asrwt>0</asrwt>
<pdfrwt beam="2">  1        2 0.42863535E+00 0.27125146E+03</pdfrwt>
<pdfrwt beam="1">  1       -2 0.44985887E-02 0.27125146E+03</pdfrwt>
<totfact> 0.63821823E+02</totfact>
</mgrwt>
</event>
<event>
12    1  0.4154313E-002  0.1882536E+03  0.7546771E-02  0.1160046E+00
         -2   -1    0    0    0  501 -0.00000000000E+00  0.00000000000E+00  0.31991439815E+02  0.31991439815E+02  0.00000000000E+00 0.  1.
          2   -1    0    0  502    0  0.00000000000E+00 -0.00000000000E+00 -0.13802772022E+04  0.13802772022E+04  0.00000000000E+00 0. -1.
          6    2    1    2  502    0 -0.58785076585E+02  0.45335358087E+02 -0.36036170902E+03  0.40656634903E+03  0.17298744149E+03 0.  0.
         24    2    3    3    0    0 -0.74349257054E+02 -0.12619821735E+02 -0.15271426574E+03  0.19037061068E+03  0.85042639446E+02 0.  0.
         -6    2    1    2    0  501  0.58785076585E+02 -0.45335358087E+02 -0.98792405332E+03  0.10057022929E+04  0.17300921065E+03 0.  0.
        -24    2    5    5    0    0  0.33486456846E+02 -0.97014109307E+02 -0.66851146637E+03  0.68111454796E+03  0.80475875746E+02 0.  0.
          5    1    3    3  502    0  0.15564180470E+02  0.57955179822E+02 -0.20764744327E+03  0.21619573835E+03  0.47000000000E+01 0. -1.
        -13    1    4    4    0    0  0.18547128824E+02  0.46744354307E+01 -0.23773883274E+02  0.30513011325E+02  0.00000000000E+00 0.  1.
         14    1    4    4    0    0 -0.92896385878E+02 -0.17294257166E+02 -0.12894038247E+03  0.15985759936E+03  0.00000000000E+00 0. -1.
         -5    1    5    5    0  501  0.25298619739E+02  0.51678751221E+02 -0.31941258695E+03  0.32458774497E+03  0.47000000000E+01 0.  1.
         11    1    6    6    0    0  0.14205853752E+02 -0.75518891277E+01 -0.33174166482E+03  0.33213155449E+03  0.00000000000E+00 0. -1.
        -12    1    6    6    0    0  0.19280603094E+02 -0.89462220180E+02 -0.33676980155E+03  0.34898299347E+03  0.00000000000E+00 0.  1.
<mgrwt>
<rscale>  2 0.18825355E+03</rscale>
<asrwt>0</asrwt>
<pdfrwt beam="2">  1        2 0.21235034E+00 0.18825355E+03</pdfrwt>
<pdfrwt beam="1">  1       -2 0.49217599E-02 0.18825355E+03</pdfrwt>
<totfact> 0.31665336E+03</totfact>
</mgrwt>
</event>
<event>
12    1  0.4154313E-002  0.1948961E+03  0.7546771E-02  0.1154118E+00
         -1   -1    0    0    0  501 -0.00000000000E+00  0.00000000000E+00  0.39572812895E+03  0.39572812895E+03  0.00000000000E+00 0.  1.
          1   -1    0    0  502    0  0.00000000000E+00 -0.00000000000E+00 -0.14985771201E+03  0.14985771201E+03  0.00000000000E+00 0. -1.
          6    2    1    2  502    0  0.15890715267E+02 -0.92657615566E+02  0.28593647342E+03  0.34528201803E+03  0.16918054435E+03 0.  0.
         24    2    3    3    0    0  0.12651834579E+02 -0.88001174316E+02  0.30330847266E+03  0.32641275332E+03  0.81516748860E+02 0.  0.
         -6    2    1    2    0  501 -0.15890715267E+02  0.92657615566E+02 -0.40066056491E+02  0.20030382293E+03  0.17227415373E+03 0.  0.
        -24    2    5    5    0    0  0.48427960686E+02  0.57553694643E+02 -0.58189325590E+02  0.12467499097E+03  0.80623573584E+02 0.  0.
          5    1    3    3  502    0  0.32388806883E+01 -0.46564412500E+01 -0.17371999235E+02  0.18869264709E+02  0.47000000000E+01 0. -1.
        -13    1    4    4    0    0 -0.28776345377E+02 -0.52124325336E+02  0.10537852573E+03  0.12103576757E+03  0.00000000000E+00 0.  1.
         14    1    4    4    0    0  0.41428179955E+02 -0.35876848980E+02  0.19792994693E+03  0.20537698575E+03  0.00000000000E+00 0. -1.
         -5    1    5    5    0  501 -0.64318675953E+02  0.35103920924E+02  0.18123269099E+02  0.75628831959E+02  0.47000000000E+01 0.  1.
         13    1    6    6    0    0  0.19324841603E+02 -0.17589487448E+02 -0.28831892745E+02  0.38911664201E+02  0.00000000000E+00 0. -1.
        -14    1    6    6    0    0  0.29103119084E+02  0.75143182091E+02 -0.29357432845E+02  0.85763326768E+02  0.00000000000E+00 0.  1.
<mgrwt>
<rscale>  2 0.19489612E+03</rscale>
<asrwt>0</asrwt>
<pdfrwt beam="2">  1        1 0.23055033E-01 0.19489612E+03</pdfrwt>
<pdfrwt beam="1">  1       -1 0.60881250E-01 0.19489612E+03</pdfrwt>
<totfact> 0.60112185E+02</totfact>
</mgrwt>
</event>
<event>
12    1  0.4154313E-002  0.1779570E+03  0.7546771E-02  0.1169795E+00
         -1   -1    0    0    0  501 -0.00000000000E+00  0.00000000000E+00  0.23433953978E+03  0.23433953978E+03  0.00000000000E+00 0. -1.
          1   -1    0    0  502    0  0.00000000000E+00 -0.00000000000E+00 -0.22066865856E+03  0.22066865856E+03  0.00000000000E+00 0.  1.
          6    2    1    2  502    0  0.16276502636E+02 -0.30383252580E+02 -0.13477977325E+03  0.22384911841E+03  0.17537039078E+03 0.  0.
         24    2    3    3    0    0 -0.13979246779E+02  0.26379622523E+02 -0.13330363722E+03  0.15933785319E+03  0.82020655564E+02 0.  0.
         -6    2    1    2    0  501 -0.16276502636E+02  0.30383252580E+02  0.14845065447E+03  0.23115907993E+03  0.17380695281E+03 0.  0.
        -24    2    5    5    0    0  0.46703196070E+02 -0.14252323256E+02  0.11586431692E+03  0.14723806662E+03  0.76617172270E+02 0.  0.
          5    1    3    3  502    0  0.30255749414E+02 -0.56762875102E+02 -0.14761360284E+01  0.64511265218E+02  0.47000000000E+01 0. -1.
        -13    1    4    4    0    0 -0.30857164270E+02 -0.18249011406E+02 -0.80781889723E+02  0.88379322872E+02  0.00000000000E+00 0.  1.
         14    1    4    4    0    0  0.16877917492E+02  0.44628633929E+02 -0.52521747498E+02  0.70958530322E+02  0.00000000000E+00 0. -1.
         -5    1    5    5    0  501 -0.62979698705E+02  0.44635575836E+02  0.32586337559E+02  0.83921013309E+02  0.47000000000E+01 0.  1.
         11    1    6    6    0    0  0.30243231791E+02 -0.43857552091E+02  0.90132272352E+02  0.10469940049E+03  0.00000000000E+00 0. -1.
        -12    1    6    6    0    0  0.16459964279E+02  0.29605228835E+02  0.25732044564E+02  0.42538666127E+02  0.00000000000E+00 0.  1.
<mgrwt>
<rscale>  2 0.17795703E+03</rscale>
<asrwt>0</asrwt>
<pdfrwt beam="2">  1        1 0.33949024E-01 0.17795703E+03</pdfrwt>
<pdfrwt beam="1">  1       -1 0.36052237E-01 0.17795703E+03</pdfrwt>
<totfact> 0.95745128E+02</totfact>
</mgrwt>
</event>
<event>
12    1  0.4154313E-002  0.1858728E+03  0.7546771E-02  0.1162237E+00
         -2   -1    0    0    0  501 -0.00000000000E+00  0.00000000000E+00  0.19941122303E+02  0.19941122303E+02  0.00000000000E+00 0. -1.
          2   -1    0    0  502    0  0.00000000000E+00 -0.00000000000E+00 -0.17606493750E+04  0.17606493750E+04  0.00000000000E+00 0.  1.
          6    2    1    2  502    0  0.63956636913E+02  0.26204472480E+02 -0.75941178142E+03  0.78190795040E+03  0.17290651621E+03 0.  0.
         24    2    3    3    0    0  0.99341820866E+00  0.25248689861E+02 -0.17104672836E+03  0.19016408174E+03  0.79163826850E+02 0.  0.
         -6    2    1    2    0  501 -0.63956636913E+02 -0.26204472480E+02 -0.98129647130E+03  0.99868254693E+03  0.17218286551E+03 0.  0.
        -24    2    5    5    0    0  0.78063361049E+01  0.15657325686E+02 -0.71053186094E+03  0.71541959724E+03  0.81630778377E+02 0.  0.
          5    1    3    3  502    0  0.62963218704E+02  0.95578261882E+00 -0.58836505306E+03  0.59174386866E+03  0.47000000000E+01 0. -1.
        -11    1    4    4    0    0  0.19272835622E+02 -0.10692945372E+02 -0.13270257746E+03  0.13452046438E+03  0.00000000000E+00 0.  1.
         12    1    4    4    0    0 -0.18279417414E+02  0.35941635233E+02 -0.38344150905E+02  0.55643617360E+02  0.00000000000E+00 0. -1.
         -5    1    5    5    0  501 -0.71762973018E+02 -0.41861798166E+02 -0.27076461036E+03  0.28326294968E+03  0.47000000000E+01 0.  1.
         11    1    6    6    0    0 -0.12237936394E+02 -0.18913697917E+02 -0.67759123423E+02  0.71405839139E+02  0.00000000000E+00 0. -1.
        -12    1    6    6    0    0  0.20044272499E+02  0.34571023603E+02 -0.64277273752E+03  0.64401375810E+03  0.00000000000E+00 0.  1.
<mgrwt>
<rscale>  2 0.18587281E+03</rscale>
<asrwt>0</asrwt>
<pdfrwt beam="2">  1        2 0.27086919E+00 0.18587281E+03</pdfrwt>
<pdfrwt beam="1">  1       -2 0.30678644E-02 0.18587281E+03</pdfrwt>
<totfact> 0.40536618E+03</totfact>
</mgrwt>
</event>
<event>
12    1  0.4154313E-002  0.2487563E+03  0.7546771E-02  0.1114093E+00
         -2   -1    0    0    0  501 -0.00000000000E+00  0.00000000000E+00  0.13518311073E+03  0.13518311073E+03  0.00000000000E+00 0. -1.
          2   -1    0    0  502    0  0.00000000000E+00 -0.00000000000E+00 -0.72351608345E+03  0.72351608345E+03  0.00000000000E+00 0.  1.
          6    2    1    2  502    0 -0.14682497682E+03  0.10170751266E+03 -0.55408670362E+03  0.60720172480E+03  0.17256844298E+03 0.  0.
         24    2    3    3    0    0 -0.36390814676E+02  0.10365772068E+03 -0.27991673892E+03  0.31158243072E+03  0.81615047402E+02 0.  0.
         -6    2    1    2    0  501  0.14682497682E+03 -0.10170751266E+03 -0.34246269093E+02  0.25149746939E+03  0.17371291895E+03 0.  0.
        -24    2    5    5    0    0  0.36988789486E+02  0.18131095829E+02 -0.27970906973E+02  0.88749964638E+02  0.73466165019E+02 0.  0.
          5    1    3    3  502    0 -0.11043416214E+03 -0.19502080162E+01 -0.27416996471E+03  0.29561929407E+03  0.47000000000E+01 0. -1.
        -13    1    4    4    0    0 -0.54327942481E+02  0.10119541351E+03 -0.26218952499E+03  0.28624357471E+03  0.00000000000E+00 0.  1.
         14    1    4    4    0    0  0.17937127804E+02  0.24623071634E+01 -0.17727213930E+02  0.25338856015E+02  0.00000000000E+00 0. -1.
         -5    1    5    5    0  501  0.10983618733E+03 -0.11983860849E+03 -0.62753621198E+01  0.16274750475E+03  0.47000000000E+01 0.  1.
         13    1    6    6    0    0  0.74848296956E+01  0.74042584869E+01  0.25027278035E+02  0.27151618094E+02  0.00000000000E+00 0. -1.
        -14    1    6    6    0    0  0.29503959791E+02  0.10726837342E+02 -0.52998185008E+02  0.61598346543E+02  0.00000000000E+00 0.  1.
<mgrwt>
<rscale>  2 0.24875630E+03</rscale>
<asrwt>0</asrwt>
<pdfrwt beam="2">  1        2 0.11131017E+00 0.24875630E+03</pdfrwt>
<pdfrwt beam="1">  1       -2 0.20797402E-01 0.24875630E+03</pdfrwt>
<totfact> 0.79395461E+02</totfact>
</mgrwt>
</event>
<event>
12    1  0.4154313E-002  0.2207587E+03  0.7546771E-02  0.1133319E+00
          1   -1    0    0  502    0  0.00000000000E+00  0.00000000000E+00  0.19443710693E+03  0.19443710693E+03  0.00000000000E+00 0. -1.
         -1   -1    0    0    0  501 -0.00000000000E+00 -0.00000000000E+00 -0.25413823305E+03  0.25413823305E+03  0.00000000000E+00 0.  1.
          6    2    1    2  502    0 -0.12471753019E+03  0.55719182372E+02 -0.34395336460E+01  0.21982574683E+03  0.17219883552E+03 0.  0.
         24    2    3    3    0    0  0.35342521222E+01  0.12242261444E+02 -0.21590340056E+02  0.83113259861E+02  0.79242080220E+02 0.  0.
         -6    2    1    2    0  501  0.12471753019E+03 -0.55719182372E+02 -0.56261592481E+02  0.22874959315E+03  0.17464798870E+03 0.  0.
        -24    2    5    5    0    0  0.84148923062E+02 -0.16354259623E+02 -0.99914516802E+02  0.15717392111E+03  0.85861677992E+02 0.  0.
          5    1    3    3  502    0 -0.12825178231E+03  0.43476920928E+02  0.18150806410E+02  0.13671248697E+03  0.47000000000E+01 0. -1.
        -11    1    4    4    0    0  0.21309248456E+01 -0.98764652527E+01  0.27475311387E+02  0.29274189014E+02  0.00000000000E+00 0.  1.
         12    1    4    4    0    0  0.14033272766E+01  0.22118726697E+02 -0.49065651443E+02  0.53839070847E+02  0.00000000000E+00 0. -1.
         -5    1    5    5    0  501  0.40568607126E+02 -0.39364922750E+02  0.43652924321E+02  0.71575672048E+02  0.47000000000E+01 0.  1.
         11    1    6    6    0    0  0.17640583681E+02 -0.18629831113E+02  0.10929609553E+02  0.27887580836E+02  0.00000000000E+00 0. -1.
        -12    1    6    6    0    0  0.66508339381E+02  0.22755714907E+01 -0.11084412635E+03  0.12928634027E+03  0.00000000000E+00 0.  1.
<mgrwt>
<rscale>  2 0.22075873E+03</rscale>
<asrwt>0</asrwt>
<pdfrwt beam="1">  1        1 0.29913401E-01 0.22075873E+03</pdfrwt>
<pdfrwt beam="2">  1       -1 0.39098190E-01 0.22075873E+03</pdfrwt>
<totfact> 0.97643245E+02</totfact>
</mgrwt>
</event>
<event>
12    1  0.4154313E-002  0.1954857E+03  0.7546771E-02  0.1153605E+00
          1   -1    0    0  502    0  0.00000000000E+00  0.00000000000E+00  0.39738680921E+03  0.39738680921E+03  0.00000000000E+00 0. -1.
         -1   -1    0    0    0  501 -0.00000000000E+00 -0.00000000000E+00 -0.96300326778E+02  0.96300326778E+02  0.00000000000E+00 0.  1.
          6    2    1    2  502    0  0.60178032709E+02  0.38852282544E+02  0.14310442627E+03  0.23661966381E+03  0.17429599251E+03 0.  0.
         24    2    3    3    0    0 -0.32468518174E+02  0.13136953612E+00  0.34638949344E+02  0.88736121187E+02  0.74966795725E+02 0.  0.
         -6    2    1    2    0  501 -0.60178032709E+02 -0.38852282544E+02  0.15798205616E+03  0.25706747217E+03  0.18972205908E+03 0.  0.
        -24    2    5    5    0    0 -0.57975779613E+02  0.11756663432E+02  0.17632591877E+03  0.20298695232E+03  0.81323201037E+02 0.  0.
          5    1    3    3  502    0  0.92646550883E+02  0.38720913007E+02  0.10846547692E+03  0.14788354262E+03  0.47000000000E+01 0. -1.
        -11    1    4    4    0    0 -0.79016401423E+01  0.26190446541E+02 -0.12050529661E+02  0.29892987005E+02  0.00000000000E+00 0.  1.
         12    1    4    4    0    0 -0.24566878032E+02 -0.26059077005E+02  0.46689479005E+02  0.58843134182E+02  0.00000000000E+00 0. -1.
         -5    1    5    5    0  501 -0.22022530957E+01 -0.50608945976E+02 -0.18343862611E+02  0.54080519848E+02  0.47000000000E+01 0.  1.
         13    1    6    6    0    0 -0.50436556913E+00 -0.94237661692E+00 -0.87306863624E+01  0.87958707740E+01  0.00000000000E+00 0. -1.
        -14    1    6    6    0    0 -0.57471414044E+02  0.12699040049E+02  0.18505660513E+03  0.19419108155E+03  0.00000000000E+00 0.  1.
<mgrwt>
<rscale>  2 0.19548572E+03</rscale>
<asrwt>0</asrwt>
<pdfrwt beam="1">  1        1 0.61136431E-01 0.19548572E+03</pdfrwt>
<pdfrwt beam="2">  1       -1 0.14815435E-01 0.19548572E+03</pdfrwt>
<totfact> 0.19843471E+03</totfact>
</mgrwt>
</event>
<event>
12    1  0.4154313E-002  0.9616892E+03  0.7546771E-02  0.9351591E-01
         -2   -1    0    0    0  501 -0.00000000000E+00  0.00000000000E+00  0.82204142975E+03  0.82204142975E+03  0.00000000000E+00 0. -1.
          2   -1    0    0  502    0  0.00000000000E+00 -0.00000000000E+00 -0.11325844296E+04  0.11325844296E+04  0.00000000000E+00 0.  1.
          6    2    1    2  502    0  0.84548216961E+03 -0.42308193868E+03 -0.23498234292E+03  0.99031036352E+03  0.17793113460E+03 0.  0.
         24    2    3    3    0    0  0.80373701388E+03 -0.39157276436E+03 -0.25659108706E+03  0.93352555996E+03  0.79426493460E+02 0.  0.
         -6    2    1    2    0  501 -0.84548216961E+03  0.42308193868E+03 -0.75560656970E+02  0.96431549585E+03  0.17423127358E+03 0.  0.
        -24    2    5    5    0    0 -0.47064804194E+03  0.22622345182E+03 -0.11057647188E+03  0.53946012704E+03  0.78124535177E+02 0.  0.
          5    1    3    3  502    0  0.41745155726E+02 -0.31509174321E+02  0.21608744140E+02  0.56784803568E+02  0.47000000000E+01 0. -1.
        -11    1    4    4    0    0  0.10809537040E+03 -0.84082944427E+02 -0.35553331346E+02  0.14148706660E+03  0.00000000000E+00 0.  1.
         12    1    4    4    0    0  0.69564164348E+03 -0.30748981993E+03 -0.22103775571E+03  0.79203849335E+03  0.00000000000E+00 0. -1.
         -5    1    5    5    0  501 -0.37483412767E+03  0.19685848686E+03  0.35015814911E+02  0.42485536881E+03  0.47000000000E+01 0.  1.
         13    1    6    6    0    0 -0.38595728021E+03  0.18454990430E+03 -0.58884463644E+02  0.43184380206E+03  0.00000000000E+00 0. -1.
        -14    1    6    6    0    0 -0.84690761732E+02  0.41673547524E+02 -0.51692008237E+02  0.10761632498E+03  0.00000000000E+00 0.  1.
<mgrwt>
<rscale>  2 0.96168925E+03</rscale>
<asrwt>0</asrwt>
<pdfrwt beam="2">  1        2 0.17424376E+00 0.96168925E+03</pdfrwt>
<pdfrwt beam="1">  1       -2 0.12646791E+00 0.96168925E+03</pdfrwt>
<totfact> 0.96459850E+00</totfact>
</mgrwt>
</event>
<event>
12    1  0.4154313E-002  0.1814268E+03  0.7546771E-02  0.1166429E+00
          1   -1    0    0  502    0  0.00000000000E+00  0.00000000000E+00  0.16568168333E+03  0.16568168333E+03  0.00000000000E+00 0.  1.
         -1   -1    0    0    0  501 -0.00000000000E+00 -0.00000000000E+00 -0.20381230720E+03  0.20381230720E+03  0.00000000000E+00 0. -1.
          6    2    1    2  502    0  0.45315985236E+02  0.30798761502E+02  0.10314298947E+02  0.18142371507E+03  0.17264436683E+03 0.  0.
         24    2    3    3    0    0  0.78394898647E+02  0.10518510264E+02  0.51867468837E+02  0.12437760188E+03  0.80766046906E+02 0.  0.
         -6    2    1    2    0  501 -0.45315985236E+02 -0.30798761502E+02 -0.48444922823E+02  0.18807027546E+03  0.17326689164E+03 0.  0.
        -24    2    5    5    0    0 -0.34159821477E+02 -0.57284117920E+02 -0.87310478162E+02  0.13950531396E+03  0.85966560102E+02 0.  0.
          5    1    3    3  502    0 -0.33078913411E+02  0.20280251238E+02 -0.41553169890E+02  0.57046113195E+02  0.47000000000E+01 0. -1.
        -11    1    4    4    0    0  0.76270990202E+01  0.34610890234E+02  0.30149351140E+02  0.46530309868E+02  0.00000000000E+00 0.  1.
         12    1    4    4    0    0  0.70767799627E+02 -0.24092379970E+02  0.21718117697E+02  0.77847292008E+02  0.00000000000E+00 0. -1.
         -5    1    5    5    0  501 -0.11156163759E+02  0.26485356418E+02  0.38865555339E+02  0.48564961507E+02  0.47000000000E+01 0.  1.
         11    1    6    6    0    0  0.32325977560E+01  0.21365432304E+02 -0.19926177779E+02  0.29393603840E+02  0.00000000000E+00 0. -1.
        -12    1    6    6    0    0 -0.37392419233E+02 -0.78649550224E+02 -0.67384300382E+02  0.11011171012E+03  0.00000000000E+00 0.  1.
<mgrwt>
<rscale>  2 0.18142677E+03</rscale>
<asrwt>0</asrwt>
<pdfrwt beam="1">  1        1 0.25489490E-01 0.18142677E+03</pdfrwt>
<pdfrwt beam="2">  1       -1 0.31355739E-01 0.18142677E+03</pdfrwt>
<totfact> 0.17447440E+03</totfact>
</mgrwt>
</event>
<event>
12    1  0.4154313E-002  0.1825544E+03  0.7546771E-02  0.1165354E+00
         -1   -1    0    0    0  501 -0.00000000000E+00  0.00000000000E+00  0.34900306238E+02  0.34900306238E+02  0.00000000000E+00 0.  1.
          1   -1    0    0  502    0  0.00000000000E+00 -0.00000000000E+00 -0.96423300134E+03  0.96423300134E+03  0.00000000000E+00 0. -1.
          6    2    1    2  502    0 -0.29356623630E+02 -0.55931401576E+02 -0.51743177208E+03  0.54919288017E+03  0.17287870846E+03 0.  0.
         24    2    3    3    0    0  0.45615446877E+02 -0.53841821172E+02 -0.26285418329E+03  0.28375547433E+03  0.80281609611E+02 0.  0.
         -6    2    1    2    0  501  0.29356623630E+02  0.55931401576E+02 -0.41190092302E+03  0.44994042740E+03  0.16968760943E+03 0.  0.
        -24    2    5    5    0    0 -0.11748724099E+02  0.54711008628E+02 -0.90892196262E+02  0.12627419249E+03  0.67471870910E+02 0.  0.
          5    1    3    3  502    0 -0.74972070507E+02 -0.20895804045E+01 -0.25457758880E+03  0.26543740584E+03  0.47000000000E+01 0. -1.
        -13    1    4    4    0    0  0.42445476196E+02 -0.70791970582E+02 -0.24664134599E+03  0.26008666844E+03  0.00000000000E+00 0.  1.
         14    1    4    4    0    0  0.31699706808E+01  0.16950149410E+02 -0.16212837292E+02  0.23668805889E+02  0.00000000000E+00 0. -1.
         -5    1    5    5    0  501  0.41105347729E+02  0.12203929484E+01 -0.32100872676E+03  0.32366623492E+03  0.47000000000E+01 0.  1.
         11    1    6    6    0    0  0.16965829496E+02  0.43047284217E+02 -0.81792388360E+02  0.93972883549E+02  0.00000000000E+00 0. -1.
        -12    1    6    6    0    0 -0.28714553595E+02  0.11663724411E+02 -0.90998079023E+01  0.32301308939E+02  0.00000000000E+00 0.  1.
<mgrwt>
<rscale>  2 0.18255442E+03</rscale>
<asrwt>0</asrwt>
<pdfrwt beam="2">  1        1 0.14834352E+00 0.18255442E+03</pdfrwt>
<pdfrwt beam="1">  1       -1 0.53692785E-02 0.18255442E+03</pdfrwt>
<totfact> 0.26705908E+03</totfact>
</mgrwt>
</event>
<event>
12    1  0.4154313E-002  0.1958334E+03  0.7546771E-02  0.1153303E+00
          2   -1    0    0  502    0  0.00000000000E+00  0.00000000000E+00  0.13187309008E+04  0.13187309008E+04  0.00000000000E+00 0. -1.
         -2   -1    0    0    0  501 -0.00000000000E+00 -0.00000000000E+00 -0.34845443446E+02  0.34845443446E+02  0.00000000000E+00 0.  1.
          6    2    1    2  502    0 -0.74711894482E+02  0.45308732753E+02  0.90831446585E+03  0.92852802915E+03  0.17173928962E+03 0.  0.
         24    2    3    3    0    0 -0.21123455554E+01  0.35986505034E+02  0.22997291901E+03  0.24623268064E+03  0.80271408272E+02 0.  0.
         -6    2    1    2    0  501  0.74711894482E+02 -0.45308732753E+02  0.37557099150E+03  0.42504831510E+03  0.17882324253E+03 0.  0.
        -24    2    5    5    0    0 -0.23005142508E+02 -0.53878930537E+02  0.20800163542E+03  0.23082255289E+03  0.81130726893E+02 0.  0.
          5    1    3    3  502    0 -0.72599548927E+02  0.93222277183E+01  0.67834154684E+03  0.68229534851E+03  0.47000000000E+01 0. -1.
        -13    1    4    4    0    0 -0.24456143022E+02  0.43666317962E+02  0.79682896007E+02  0.94096834016E+02  0.00000000000E+00 0.  1.
         14    1    4    4    0    0  0.22343797466E+02 -0.76798129277E+01  0.15029002301E+03  0.15213584662E+03  0.00000000000E+00 0. -1.
         -5    1    5    5    0  501  0.97717036991E+02  0.85701977840E+01  0.16756935608E+03  0.19422576221E+03  0.47000000000E+01 0.  1.
         11    1    6    6    0    0  0.11890159963E+02  0.15386609424E+02  0.68541378642E+02  0.71246362993E+02  0.00000000000E+00 0. -1.
        -12    1    6    6    0    0 -0.34895302471E+02 -0.69265539961E+02  0.13946025678E+03  0.15957618990E+03  0.00000000000E+00 0.  1.
<mgrwt>
<rscale>  2 0.19583340E+03</rscale>
<asrwt>0</asrwt>
<pdfrwt beam="1">  1        2 0.20288164E+00 0.19583340E+03</pdfrwt>
<pdfrwt beam="2">  1       -2 0.53608385E-02 0.19583340E+03</pdfrwt>
<totfact> 0.30049800E+03</totfact>
</mgrwt>
</event>
<event>
12    1  0.4154313E-002  0.2048244E+03  0.7546771E-02  0.1145731E+00
          1   -1    0    0  502    0  0.00000000000E+00  0.00000000000E+00  0.59739585565E+03  0.59739585565E+03  0.00000000000E+00 0.  1.
         -1   -1    0    0    0  501 -0.00000000000E+00 -0.00000000000E+00 -0.71647205281E+02  0.71647205281E+02  0.00000000000E+00 0. -1.
          6    2    1    2  502    0  0.63566453488E+02 -0.90321757003E+02  0.31009881777E+03  0.37168981323E+03  0.17260743518E+03 0.  0.
         24    2    3    3    0    0 -0.34172020106E+02 -0.46215528745E+02  0.13937206099E+03  0.17002701529E+03  0.78619415475E+02 0.  0.
         -6    2    1    2    0  501 -0.63566453488E+02  0.90321757003E+02  0.21564983260E+03  0.29735324770E+03  0.17238152401E+03 0.  0.
        -24    2    5    5    0    0 -0.38299436970E+02  0.12308800557E+03  0.20338556456E+03  0.25394182709E+03  0.80642790643E+02 0.  0.
          5    1    3    3  502    0  0.97738473595E+02 -0.44106228257E+02  0.17072675678E+03  0.20166279793E+03  0.47000000000E+01 0. -1.
        -13    1    4    4    0    0 -0.37303760315E+02 -0.65283236199E+02  0.91681769771E+02  0.11857073151E+03  0.00000000000E+00 0.  1.
         14    1    4    4    0    0  0.31317402082E+01  0.19067707454E+02  0.47690291221E+02  0.51456283786E+02  0.00000000000E+00 0. -1.
         -5    1    5    5    0  501 -0.25267016518E+02 -0.32766248572E+02  0.12264268037E+02  0.43411420613E+02  0.47000000000E+01 0.  1.
         11    1    6    6    0    0 -0.32816704283E+02  0.30013573204E+02  0.21160250857E+02  0.49249435254E+02  0.00000000000E+00 0. -1.
        -12    1    6    6    0    0 -0.54827326872E+01  0.93074432371E+02  0.18222531371E+03  0.20469239183E+03  0.00000000000E+00 0.  1.
<mgrwt>
<rscale>  2 0.20482445E+03</rscale>
<asrwt>0</asrwt>
<pdfrwt beam="1">  1        1 0.91907051E-01 0.20482445E+03</pdfrwt>
<pdfrwt beam="2">  1       -1 0.11022647E-01 0.20482445E+03</pdfrwt>
<totfact> 0.18424122E+03</totfact>
</mgrwt>
</event>
<event>
12    1  0.4154313E-002  0.2366033E+03  0.7546771E-02  0.1122077E+00
         -1   -1    0    0    0  501 -0.00000000000E+00  0.00000000000E+00  0.49900961523E+02  0.49900961523E+02  0.00000000000E+00 0.  1.
          1   -1    0    0  502    0  0.00000000000E+00 -0.00000000000E+00 -0.11320393824E+04  0.11320393824E+04  0.00000000000E+00 0. -1.
          6    2    1    2  502    0 -0.38425653656E+01 -0.15965825690E+03 -0.59939952457E+03  0.64478242721E+03  0.17595188002E+03 0.  0.
         24    2    3    3    0    0 -0.46719154044E+02 -0.25102818640E+02 -0.24719479187E+03  0.26529088375E+03  0.80381322560E+02 0.  0.
         -6    2    1    2    0  501  0.38425653656E+01  0.15965825690E+03 -0.48273889629E+03  0.53715791669E+03  0.17319428735E+03 0.  0.
        -24    2    5    5    0    0 -0.17906362915E+02  0.10626296527E+03 -0.15697431222E+03  0.20629733082E+03  0.79405279333E+02 0.  0.
          5    1    3    3  502    0  0.42876588679E+02 -0.13455543826E+03 -0.35220473270E+03  0.37949154346E+03  0.47000000000E+01 0. -1.
        -13    1    4    4    0    0 -0.29416595838E+02 -0.36911640213E+02 -0.57266755613E+02  0.74211094806E+02  0.00000000000E+00 0.  1.
         14    1    4    4    0    0 -0.17302558206E+02  0.11808821573E+02 -0.18992803626E+03  0.19107978895E+03  0.00000000000E+00 0. -1.
         -5    1    5    5    0  501  0.21748928281E+02  0.53395291629E+02 -0.32576458407E+03  0.33086058587E+03  0.47000000000E+01 0.  1.
         13    1    6    6    0    0 -0.39536291627E+01  0.36337974342E+01 -0.72349133419E+02  0.72548141078E+02  0.00000000000E+00 0. -1.
        -14    1    6    6    0    0 -0.13952733752E+02  0.10262916783E+03 -0.84625178800E+02  0.13374918974E+03  0.00000000000E+00 0.  1.
<mgrwt>
<rscale>  2 0.23660329E+03</rscale>
<asrwt>0</asrwt>
<pdfrwt beam="2">  1        1 0.17415990E+00 0.23660329E+03</pdfrwt>
<pdfrwt beam="1">  1       -1 0.76770712E-02 0.23660329E+03</pdfrwt>
<totfact> 0.11757452E+03</totfact>
</mgrwt>
</event>
<event>
12    1  0.4154313E-002  0.2627932E+03  0.7546771E-02  0.1105477E+00
         -1   -1    0    0    0  501 -0.00000000000E+00  0.00000000000E+00  0.23932465025E+02  0.23932465025E+02  0.00000000000E+00 0.  1.
          1   -1    0    0  502    0  0.00000000000E+00 -0.00000000000E+00 -0.28995834195E+04  0.28995834195E+04  0.00000000000E+00 0. -1.
          6    2    1    2  502    0 -0.16333476903E+03 -0.11261909067E+03 -0.13502611563E+04  0.13760554082E+04  0.17596019372E+03 0.  0.
         24    2    3    3    0    0 -0.53147430790E+01 -0.29857047761E+02 -0.38879064192E+03  0.39816608704E+03  0.80364045634E+02 0.  0.
         -6    2    1    2    0  501  0.16333476903E+03  0.11261909067E+03 -0.15253897981E+04  0.15474604763E+04  0.16869671946E+03 0.  0.
        -24    2    5    5    0    0  0.72771381595E+02  0.12529949851E+02 -0.43079179373E+03  0.44456136738E+03  0.81243868679E+02 0.  0.
          5    1    3    3  502    0 -0.15802002595E+03 -0.82762042912E+02 -0.96147051442E+03  0.97788932116E+03  0.47000000000E+01 0. -1.
        -13    1    4    4    0    0 -0.26314885525E+02  0.18752570016E+02 -0.17140659645E+03  0.17442578190E+03  0.00000000000E+00 0.  1.
         14    1    4    4    0    0  0.21000142446E+02 -0.48609617777E+02 -0.21738404546E+03  0.22374030514E+03  0.00000000000E+00 0. -1.
         -5    1    5    5    0  501  0.90563387435E+02  0.10008914082E+03 -0.10945980044E+04  0.11028991089E+04  0.47000000000E+01 0.  1.
         13    1    6    6    0    0  0.16015938219E+02  0.24321811172E+02 -0.30109247319E+03  0.30249750112E+03  0.00000000000E+00 0. -1.
        -14    1    6    6    0    0  0.56755443377E+02 -0.11791861321E+02 -0.12969932055E+03  0.14206386626E+03  0.00000000000E+00 0.  1.
<mgrwt>
<rscale>  2 0.26279317E+03</rscale>
<asrwt>0</asrwt>
<pdfrwt beam="2">  1        1 0.44608938E+00 0.26279317E+03</pdfrwt>
<pdfrwt beam="1">  1       -1 0.36819208E-02 0.26279317E+03</pdfrwt>
<totfact> 0.23692298E+02</totfact>
</mgrwt>
</event>
<event>
12    1  0.4154313E-002  0.2242226E+03  0.7546771E-02  0.1130774E+00
         -2   -1    0    0    0  501 -0.00000000000E+00  0.00000000000E+00  0.28006205491E+02  0.28006205491E+02  0.00000000000E+00 0. -1.
          2   -1    0    0  502    0  0.00000000000E+00 -0.00000000000E+00 -0.21594020087E+04  0.21594020087E+04  0.00000000000E+00 0.  1.
          6    2    1    2  502    0 -0.13301334146E+03 -0.52842405625E+02 -0.61302656055E+03  0.65244223737E+03  0.17144806888E+03 0.  0.
         24    2    3    3    0    0 -0.13918279355E+03 -0.10463484154E+02 -0.57123545543E+03  0.59242039475E+03  0.71907190574E+02 0.  0.
         -6    2    1    2    0  501  0.13301334146E+03  0.52842405625E+02 -0.15183692427E+04  0.15349659768E+04  0.17375420602E+03 0.  0.
        -24    2    5    5    0    0  0.12486931964E+03  0.98843856343E+02 -0.11664361654E+04  0.11799146574E+04  0.79137954571E+02 0.  0.
          5    1    3    3  502    0  0.61694520847E+01 -0.42378921471E+02 -0.41791105117E+02  0.60021842616E+02  0.47000000000E+01 0. -1.
        -11    1    4    4    0    0 -0.42704629749E+02 -0.23129284898E+02 -0.30740370118E+03  0.31121645959E+03  0.00000000000E+00 0.  1.
         12    1    4    4    0    0 -0.96478163797E+02  0.12665800743E+02 -0.26383175426E+03  0.28120393516E+03  0.00000000000E+00 0. -1.
         -5    1    5    5    0  501  0.81440218212E+01 -0.46001450718E+02 -0.35193307724E+03  0.35505131941E+03  0.47000000000E+01 0.  1.
         13    1    6    6    0    0  0.81286730569E+02  0.58154040620E+02 -0.44824289467E+03  0.45925060438E+03  0.00000000000E+00 0. -1.
        -14    1    6    6    0    0  0.43582589071E+02  0.40689815723E+02 -0.71819327077E+03  0.72066405305E+03  0.00000000000E+00 0.  1.
<mgrwt>
<rscale>  2 0.22422260E+03</rscale>
<asrwt>0</asrwt>
<pdfrwt beam="2">  1        2 0.33221557E+00 0.22422260E+03</pdfrwt>
<pdfrwt beam="1">  1       -2 0.43086486E-02 0.22422260E+03</pdfrwt>
<totfact> 0.15097187E+03</totfact>
</mgrwt>
</event>
<event>
12    1  0.4154313E-002  0.2042625E+03  0.7546771E-02  0.1146192E+00
         -2   -1    0    0    0  501 -0.00000000000E+00  0.00000000000E+00  0.85887737491E+03  0.85887737491E+03  0.00000000000E+00 0.  1.
          2   -1    0    0  502    0  0.00000000000E+00 -0.00000000000E+00 -0.50366488692E+02  0.50366488692E+02  0.00000000000E+00 0. -1.
          6    2    1    2  502    0  0.10664710239E+03 -0.23619736888E+02  0.48914106114E+03  0.52992402427E+03  0.17213075665E+03 0.  0.
         24    2    3    3    0    0  0.75657795231E+01 -0.23649243634E+02  0.34404734048E+03  0.35416456596E+03  0.80295949725E+02 0.  0.
         -6    2    1    2    0  501 -0.10664710239E+03  0.23619736888E+02  0.31936982508E+03  0.37931983934E+03  0.17307500953E+03 0.  0.
        -24    2    5    5    0    0 -0.31415334363E+02 -0.41136687314E+02  0.97996678196E+02  0.13666499484E+03  0.79967628460E+02 0.  0.
          5    1    3    3  502    0  0.99081322864E+02  0.29506745892E-01  0.14509372066E+03  0.17575945831E+03  0.47000000000E+01 0. -1.
        -13    1    4    4    0    0  0.21477249216E+02  0.15858882154E+02  0.24733190143E+03  0.24876865929E+03  0.00000000000E+00 0.  1.
         14    1    4    4    0    0 -0.13911469693E+02 -0.39508125788E+02  0.96715439052E+02  0.10539590667E+03  0.00000000000E+00 0. -1.
         -5    1    5    5    0  501 -0.75231768025E+02  0.64756424201E+02  0.22137314689E+03  0.24265484450E+03  0.47000000000E+01 0.  1.
         13    1    6    6    0    0 -0.38537622602E+02 -0.28019518640E+01  0.92505702115E+01  0.39731251419E+02  0.00000000000E+00 0. -1.
        -14    1    6    6    0    0  0.71222882390E+01 -0.38334735450E+02  0.88746107985E+02  0.96933743424E+02  0.00000000000E+00 0.  1.
<mgrwt>
<rscale>  2 0.20426247E+03</rscale>
<asrwt>0</asrwt>
<pdfrwt beam="2">  1        2 0.77486912E-02 0.20426247E+03</pdfrwt>
<pdfrwt beam="1">  1       -2 0.13213497E+00 0.20426247E+03</pdfrwt>
<totfact> 0.38615215E+02</totfact>
</mgrwt>
</event>
<event>
12    1  0.4154313E-002  0.1917945E+03  0.7546771E-02  0.1156853E+00
          2   -1    0    0  502    0  0.00000000000E+00  0.00000000000E+00  0.73389242985E+02  0.73389242985E+02  0.00000000000E+00 0.  1.
         -2   -1    0    0    0  501 -0.00000000000E+00 -0.00000000000E+00 -0.51552382273E+03  0.51552382273E+03  0.00000000000E+00 0. -1.
          6    2    1    2  502    0 -0.97103312487E+00 -0.82848638340E+02 -0.17194138903E+03  0.25751611606E+03  0.17287529896E+03 0.  0.
         24    2    3    3    0    0  0.37500011191E+02 -0.88425319134E+02 -0.17823632001E+03  0.21785710983E+03  0.80425410350E+02 0.  0.
         -6    2    1    2    0  501  0.97103312487E+00  0.82848638340E+02 -0.27019319072E+03  0.33139694965E+03  0.17307437173E+03 0.  0.
        -24    2    5    5    0    0 -0.65254006008E+02  0.54223413644E+02 -0.20107694251E+03  0.23137542665E+03  0.76840011467E+02 0.  0.
          5    1    3    3  502    0 -0.38471044315E+02  0.55766807946E+01  0.62949309788E+01  0.39659006234E+02  0.47000000000E+01 0. -1.
        -11    1    4    4    0    0  0.48187705336E+02 -0.44884056708E+02 -0.52039845809E+02  0.83933182019E+02  0.00000000000E+00 0.  1.
         12    1    4    4    0    0 -0.10687694145E+02 -0.43541262427E+02 -0.12619647420E+03  0.13392392781E+03  0.00000000000E+00 0. -1.
         -5    1    5    5    0  501  0.66225039133E+02  0.28625224695E+02 -0.69116248208E+02  0.10002152300E+03  0.47000000000E+01 0.  1.
         11    1    6    6    0    0 -0.33301044422E+02  0.67454795933E+02 -0.16531423293E+03  0.18162572688E+03  0.00000000000E+00 0. -1.
        -12    1    6    6    0    0 -0.31952961586E+02 -0.13231382288E+02 -0.35762709580E+02  0.49749699777E+02  0.00000000000E+00 0.  1.
<mgrwt>
<rscale>  2 0.19179449E+03</rscale>
<asrwt>0</asrwt>
<pdfrwt beam="1">  1        2 0.11290653E-01 0.19179449E+03</pdfrwt>
<pdfrwt beam="2">  1       -2 0.79311358E-01 0.19179449E+03</pdfrwt>
<totfact> 0.79276337E+02</totfact>
</mgrwt>
</event>
<event>
12    1  0.4154313E-002  0.1856347E+03  0.7546771E-02  0.1162459E+00
          1   -1    0    0  502    0  0.00000000000E+00  0.00000000000E+00  0.55996874894E+03  0.55996874894E+03  0.00000000000E+00 0. -1.
         -1   -1    0    0    0  501 -0.00000000000E+00 -0.00000000000E+00 -0.75872219365E+02  0.75872219365E+02  0.00000000000E+00 0.  1.
          6    2    1    2  502    0  0.82675623223E+01  0.27118157808E+02  0.11618631157E+03  0.22826568539E+03  0.19442792253E+03 0.  0.
         24    2    3    3    0    0 -0.48356742646E+02  0.29522159121E+02 -0.50655920171E+01  0.94339566730E+02  0.75261950479E+02 0.  0.
         -6    2    1    2    0  501 -0.82675623223E+01 -0.27118157808E+02  0.36791021800E+03  0.40757528292E+03  0.17307783123E+03 0.  0.
        -24    2    5    5    0    0 -0.97527532141E+01  0.50769997631E+02  0.16060011913E+03  0.18606154148E+03  0.78446096770E+02 0.  0.
          5    1    3    3  502    0  0.56624304968E+02 -0.24040013127E+01  0.12125190359E+03  0.13392611866E+03  0.47000000000E+01 0. -1.
        -11    1    4    4    0    0 -0.12264611672E+02  0.49081024361E+02  0.80879756032E+01  0.51232636094E+02  0.00000000000E+00 0.  1.
         12    1    4    4    0    0 -0.36092130974E+02 -0.19558865240E+02 -0.13153567620E+02  0.43106930636E+02  0.00000000000E+00 0. -1.
         -5    1    5    5    0  501  0.14851908919E+01 -0.77888155439E+02  0.20731009888E+03  0.22151374144E+03  0.47000000000E+01 0.  1.
         13    1    6    6    0    0 -0.38643274326E+02  0.19068076631E+02  0.42966717209E+02  0.60852551177E+02  0.00000000000E+00 0. -1.
        -14    1    6    6    0    0  0.28890521112E+02  0.31701921000E+02  0.11763340192E+03  0.12520899030E+03  0.00000000000E+00 0.  1.
<mgrwt>
<rscale>  2 0.18563466E+03</rscale>
<asrwt>0</asrwt>
<pdfrwt beam="1">  1        1 0.86149035E-01 0.18563466E+03</pdfrwt>
<pdfrwt beam="2">  1       -1 0.11672650E-01 0.18563466E+03</pdfrwt>
<totfact> 0.18381097E+03</totfact>
</mgrwt>
</event>
<event>
12    1  0.4154313E-002  0.2373968E+03  0.7546771E-02  0.1121539E+00
         -1   -1    0    0    0  501 -0.00000000000E+00  0.00000000000E+00  0.14387215412E+04  0.14387215412E+04  0.00000000000E+00 0.  1.
          1   -1    0    0  502    0  0.00000000000E+00 -0.00000000000E+00 -0.48441506187E+02  0.48441506187E+02  0.00000000000E+00 0. -1.
          6    2    1    2  502    0 -0.15703775563E+03 -0.22883334542E+02  0.37636496729E+03  0.44643586518E+03  0.18019403271E+03 0.  0.
         24    2    3    3    0    0 -0.16669646375E+01 -0.27807920933E+01  0.10403162179E+03  0.13221979943E+03  0.81541311327E+02 0.  0.
         -6    2    1    2    0  501  0.15703775563E+03  0.22883334542E+02  0.10139150677E+04  0.10407271822E+04  0.17293004229E+03 0.  0.
        -24    2    5    5    0    0  0.24227941664E+02 -0.26735453674E+01  0.22205261990E+03  0.23738427468E+03  0.80310565049E+02 0.  0.
          5    1    3    3  502    0 -0.15537079099E+03 -0.20102542449E+02  0.27233334550E+03  0.31421606575E+03  0.47000000000E+01 0. -1.
        -11    1    4    4    0    0 -0.16743371077E+02  0.35941590590E+02  0.44258670413E+02  0.59421951465E+02  0.00000000000E+00 0.  1.
         12    1    4    4    0    0  0.15076406439E+02 -0.38722382684E+02  0.59772951379E+02  0.72797847966E+02  0.00000000000E+00 0. -1.
         -5    1    5    5    0  501  0.13280981397E+03  0.25556879909E+02  0.79186244785E+03  0.80334290755E+03  0.47000000000E+01 0.  1.
         11    1    6    6    0    0  0.15560894697E+02 -0.27079234672E+02  0.29056028040E+02  0.42657697543E+02  0.00000000000E+00 0. -1.
        -12    1    6    6    0    0  0.86670469669E+01  0.24405689305E+02  0.19299659186E+03  0.19472657714E+03  0.00000000000E+00 0.  1.
<mgrwt>
<rscale>  2 0.23739683E+03</rscale>
<asrwt>0</asrwt>
<pdfrwt beam="2">  1        1 0.74525405E-02 0.23739683E+03</pdfrwt>
<pdfrwt beam="1">  1       -1 0.22134174E+00 0.23739683E+03</pdfrwt>
<totfact> 0.11639805E+02</totfact>
</mgrwt>
</event>
<event>
12    1  0.4154313E-002  0.2650338E+03  0.7546771E-02  0.1104156E+00
          2   -1    0    0  502    0  0.00000000000E+00  0.00000000000E+00  0.71500658135E+03  0.71500658135E+03  0.00000000000E+00 0.  1.
         -2   -1    0    0    0  501 -0.00000000000E+00 -0.00000000000E+00 -0.98372689753E+02  0.98372689753E+02  0.00000000000E+00 0. -1.
          6    2    1    2  502    0 -0.19441316664E+03  0.50633760671E+02  0.32322499358E+03  0.41800591643E+03  0.17289966053E+03 0.  0.
         24    2    3    3    0    0 -0.49272014443E+02  0.58625993854E+02  0.89081741595E+02  0.14237031948E+03  0.80430172335E+02 0.  0.
         -6    2    1    2    0  501  0.19441316664E+03 -0.50633760671E+02  0.29340889801E+03  0.39537335467E+03  0.17283243638E+03 0.  0.
        -24    2    5    5    0    0  0.73770857832E+02 -0.55349271176E+02  0.69980816639E+02  0.14136744871E+03  0.81128044307E+02 0.  0.
          5    1    3    3  502    0 -0.14514115220E+03 -0.79922331830E+01  0.23414325199E+03  0.27563559695E+03  0.47000000000E+01 0. -1.
        -13    1    4    4    0    0  0.15015939071E+02 -0.91886778251E+01  0.13457239683E+02  0.22158689633E+02  0.00000000000E+00 0.  1.
         14    1    4    4    0    0 -0.64287953514E+02  0.67814671679E+02  0.75624501912E+02  0.12021162985E+03  0.00000000000E+00 0. -1.
         -5    1    5    5    0  501  0.12064230881E+03  0.47155105048E+01  0.22342808137E+03  0.25400590596E+03  0.47000000000E+01 0.  1.
         11    1    6    6    0    0  0.30599996739E+02 -0.62151493183E+02  0.68819105732E+02  0.97648539257E+02  0.00000000000E+00 0. -1.
        -12    1    6    6    0    0  0.43170861093E+02  0.68022220073E+01  0.11617109074E+01  0.43718909455E+02  0.00000000000E+00 0.  1.
<mgrwt>
<rscale>  2 0.26503382E+03</rscale>
<asrwt>0</asrwt>
<pdfrwt beam="1">  1        2 0.11000101E+00 0.26503382E+03</pdfrwt>
<pdfrwt beam="2">  1       -2 0.15134260E-01 0.26503382E+03</pdfrwt>
<totfact> 0.13785599E+03</totfact>
</mgrwt>
</event>
<event>
12    1  0.4154313E-002  0.1903141E+03  0.7546771E-02  0.1158178E+00
          2   -1    0    0  502    0  0.00000000000E+00  0.00000000000E+00  0.14309363726E+04  0.14309363726E+04  0.00000000000E+00 0.  1.
         -2   -1    0    0    0  501 -0.00000000000E+00 -0.00000000000E+00 -0.33401464609E+02  0.33401464609E+02  0.00000000000E+00 0. -1.
          6    2    1    2  502    0 -0.40617697688E+02 -0.69439295773E+02  0.33852540292E+03  0.38836891961E+03  0.17250900306E+03 0.  0.
         24    2    3    3    0    0 -0.63080315255E+02 -0.10574167962E+03  0.27168604236E+03  0.30892068249E+03  0.80363259522E+02 0.  0.
         -6    2    1    2    0  501  0.40617697688E+02  0.69439295773E+02  0.10590095051E+04  0.10759689176E+04  0.17244235744E+03 0.  0.
        -24    2    5    5    0    0  0.34890857656E+02  0.88023560091E+01  0.25969678499E+03  0.27432526257E+03  0.80728409684E+02 0.  0.
          5    1    3    3  502    0  0.22462617567E+02  0.36302383844E+02  0.66839360561E+02  0.79448237116E+02  0.47000000000E+01 0. -1.
        -11    1    4    4    0    0 -0.66264598511E+02 -0.68240761240E+02  0.12268441242E+03  0.15523937504E+03  0.00000000000E+00 0.  1.
         12    1    4    4    0    0  0.31842832559E+01 -0.37500918377E+02  0.14900162993E+03  0.15368130746E+03  0.00000000000E+00 0. -1.
         -5    1    5    5    0  501  0.57268400319E+01  0.60636939764E+02  0.79931272010E+03  0.80164365504E+03  0.47000000000E+01 0.  1.
         13    1    6    6    0    0 -0.14245267507E+02 -0.37326936676E+01  0.64940198343E+01  0.16094500364E+02  0.00000000000E+00 0. -1.
        -14    1    6    6    0    0  0.49136125163E+02  0.12535049677E+02  0.25320276515E+03  0.25823076220E+03  0.00000000000E+00 0.  1.
<mgrwt>
<rscale>  2 0.19031414E+03</rscale>
<asrwt>0</asrwt>
<pdfrwt beam="1">  1        2 0.22014401E+00 0.19031414E+03</pdfrwt>
<pdfrwt beam="2">  1       -2 0.51386880E-02 0.19031414E+03</pdfrwt>
<totfact> 0.27868875E+03</totfact>
</mgrwt>
</event>
<event>
12    1  0.4154313E-002  0.1868408E+03  0.7546771E-02  0.1161342E+00
          1   -1    0    0  502    0  0.00000000000E+00  0.00000000000E+00  0.10697641709E+03  0.10697641709E+03  0.00000000000E+00 0. -1.
         -1   -1    0    0    0  501 -0.00000000000E+00 -0.00000000000E+00 -0.35642102803E+03  0.35642102803E+03  0.00000000000E+00 0.  1.
          6    2    1    2  502    0  0.23679427354E+02 -0.70647654087E+02 -0.19080800635E+03  0.26569592456E+03  0.16921826949E+03 0.  0.
         24    2    3    3    0    0  0.34471713482E+01 -0.30338871556E+02 -0.20100672292E+03  0.21921747846E+03  0.81977253466E+02 0.  0.
         -6    2    1    2    0  501 -0.23679427354E+02  0.70647654087E+02 -0.58636604597E+02  0.19770152057E+03  0.17348150774E+03 0.  0.
        -24    2    5    5    0    0  0.41079068069E+01  0.90059985975E+02  0.90159614658E+01  0.12188638841E+03  0.81531148320E+02 0.  0.
          5    1    3    3  502    0  0.20232256006E+02 -0.40308782531E+02  0.10198716566E+02  0.46478446099E+02  0.47000000000E+01 0. -1.
        -13    1    4    4    0    0  0.31427593628E+02 -0.39406223290E+02 -0.78957057096E+02  0.93673693962E+02  0.00000000000E+00 0.  1.
         14    1    4    4    0    0 -0.27980422280E+02  0.90673517338E+01 -0.12204966582E+03  0.12554378449E+03  0.00000000000E+00 0. -1.
         -5    1    5    5    0  501 -0.27787334161E+02 -0.19412331888E+02 -0.67652566063E+02  0.75815132157E+02  0.47000000000E+01 0.  1.
         11    1    6    6    0    0  0.35877761002E+01  0.49215695173E+02  0.45497094753E+02  0.67119612780E+02  0.00000000000E+00 0. -1.
        -12    1    6    6    0    0  0.52013070675E+00  0.40844290802E+02 -0.36481133287E+02  0.54766775631E+02  0.00000000000E+00 0.  1.
<mgrwt>
<rscale>  2 0.18684082E+03</rscale>
<asrwt>0</asrwt>
<pdfrwt beam="1">  1        1 0.16457910E-01 0.18684082E+03</pdfrwt>
<pdfrwt beam="2">  1       -1 0.54834004E-01 0.18684082E+03</pdfrwt>
<totfact> 0.11303454E+03</totfact>
</mgrwt>
</event>
<event>
12    1  0.4154313E-002  0.1897438E+03  0.7546771E-02  0.1158693E+00
         -4   -1    0    0    0  501 -0.00000000000E+00  0.00000000000E+00  0.10150613068E+03  0.10150613068E+03  0.00000000000E+00 0.  1.
          4   -1    0    0  502    0  0.00000000000E+00 -0.00000000000E+00 -0.54280264680E+03  0.54280264680E+03  0.00000000000E+00 0. -1.
          6    2    1    2  502    0  0.55902078185E+02  0.53955566817E+02 -0.41012103360E+03  0.45178832816E+03  0.17285018289E+03 0.  0.
         24    2    3    3    0    0  0.96812758756E+02  0.52600391106E+02 -0.37133904342E+03  0.39520517653E+03  0.78453393717E+02 0.  0.
         -6    2    1    2    0  501 -0.55902078185E+02 -0.53955566817E+02 -0.31175482529E+02  0.19252044933E+03  0.17336656876E+03 0.  0.
        -24    2    5    5    0    0 -0.64480596064E+02 -0.93095286177E+02 -0.51167570263E+02  0.14749509899E+03  0.79449382651E+02 0.  0.
          5    1    3    3  502    0 -0.40910680571E+02  0.13551757110E+01 -0.38781990180E+02  0.56583151630E+02  0.47000000000E+01 0. -1.
        -11    1    4    4    0    0  0.11680847803E+02  0.45200325310E+02 -0.93260288594E+02  0.10429282354E+03  0.00000000000E+00 0.  1.
         12    1    4    4    0    0  0.85131910953E+02  0.74000657964E+01 -0.27807875482E+03  0.29091235299E+03  0.00000000000E+00 0. -1.
         -5    1    5    5    0  501  0.85785178790E+01  0.39139719360E+02  0.19992087734E+02  0.45025350332E+02  0.47000000000E+01 0.  1.
         13    1    6    6    0    0  0.65728134903E+01 -0.59146156269E+02 -0.19577562874E+02  0.62647830343E+02  0.00000000000E+00 0. -1.
        -14    1    6    6    0    0 -0.71053409554E+02 -0.33949129908E+02 -0.31590007389E+02  0.84847268652E+02  0.00000000000E+00 0.  1.
<mgrwt>
<rscale>  2 0.18974380E+03</rscale>
<asrwt>0</asrwt>
<pdfrwt beam="2">  1        4 0.83508099E-01 0.18974380E+03</pdfrwt>
<pdfrwt beam="1">  1       -4 0.15616328E-01 0.18974380E+03</pdfrwt>
<totfact> 0.79988974E+01</totfact>
</mgrwt>
</event>
<event>
12    1  0.5818651E-002  0.2913046E+03  0.7546771E-02  0.1089670E+00
          1   -1    0    0  502    0  0.00000000000E+00  0.00000000000E+00  0.57315825339E+03  0.57315825339E+03  0.00000000000E+00 0. -1.
         -1   -1    0    0    0  501 -0.00000000000E+00 -0.00000000000E+00 -0.16218181465E+03  0.16218181465E+03  0.00000000000E+00 0.  1.
          6    2    1    2  502    0  0.23047635592E+03  0.41725921713E+02  0.97240799390E+02  0.30750051014E+03  0.17389763509E+03 0.  0.
         24    2    3    3    0    0  0.65890763809E+02  0.64950337976E+02  0.63761504433E+02  0.13788110137E+03  0.79909508249E+02 0.  0.
         -6    2    1    2    0  501 -0.23047635592E+03 -0.41725921713E+02  0.31373563935E+03  0.42783955790E+03  0.17249994993E+03 0.  0.
        -24    2    5    5    0    0 -0.85740494912E+02  0.39537510891E+02  0.15208665282E+03  0.19609681306E+03  0.80055998472E+02 0.  0.
          5    1    3    3  502    0  0.16458559211E+03 -0.23224416263E+02  0.33479294958E+02  0.16961940877E+03  0.47000000000E+01 0. -1.
        -13    1    4    4    0    0  0.83795787445E+02  0.61623290208E+02  0.55259782764E+02  0.11778288280E+03  0.00000000000E+00 0.  1.
         14    1    4    4    0    0 -0.17905023637E+02  0.33270477682E+01  0.85017216683E+01  0.20098218568E+02  0.00000000000E+00 0. -1.
         -5    1    5    5    0  501 -0.14473586101E+03 -0.81263432603E+02  0.16164898654E+03  0.23174274484E+03  0.47000000000E+01 0.  1.
         13    1    6    6    0    0 -0.73081275821E+02  0.17638610624E+02  0.48499730644E+02  0.89466291602E+02  0.00000000000E+00 0. -1.
        -14    1    6    6    0    0 -0.12659219091E+02  0.21898900266E+02  0.10358692217E+03  0.10663052146E+03  0.00000000000E+00 0.  1.
<mgrwt>
<rscale>  2 0.29130460E+03</rscale>
<asrwt>0</asrwt>
<pdfrwt beam="1">  1        1 0.88178192E-01 0.29130460E+03</pdfrwt>
<pdfrwt beam="2">  1       -1 0.24951049E-01 0.29130460E+03</pdfrwt>
<totfact> 0.52591397E+02</totfact>
</mgrwt>
</event>
<event>
12    1  0.4154313E-002  0.1890264E+03  0.7546771E-02  0.1159342E+00
          2   -1    0    0  502    0  0.00000000000E+00  0.00000000000E+00  0.58820923174E+03  0.58820923174E+03  0.00000000000E+00 0. -1.
         -2   -1    0    0    0  501 -0.00000000000E+00 -0.00000000000E+00 -0.71466291702E+02  0.71466291702E+02  0.00000000000E+00 0.  1.
          6    2    1    2  502    0 -0.63885437851E+02  0.35473589266E+02  0.13167402700E+03  0.23110724406E+03  0.17530768427E+03 0.  0.
         24    2    3    3    0    0  0.25299743928E+02  0.28693423244E+01  0.10310530613E+03  0.13183340370E+03  0.78109103251E+02 0.  0.
         -6    2    1    2    0  501  0.63885437851E+02 -0.35473589266E+02  0.38506891304E+03  0.42856827938E+03  0.17335794646E+03 0.  0.
        -24    2    5    5    0    0  0.55644791789E+02 -0.47246340918E+02  0.39582557831E+03  0.41001290882E+03  0.78128979035E+02 0.  0.
          5    1    3    3  502    0 -0.89185181779E+02  0.32604246942E+02  0.28568720871E+02  0.99273840360E+02  0.47000000000E+01 0. -1.
        -11    1    4    4    0    0  0.70529761747E+00  0.27845537531E+02  0.58610240766E+01  0.28464416530E+02  0.00000000000E+00 0.  1.
         12    1    4    4    0    0  0.24594446311E+02 -0.24976195207E+02  0.97244282056E+02  0.10336898717E+03  0.00000000000E+00 0. -1.
         -5    1    5    5    0  501  0.82406460620E+01  0.11772751651E+02 -0.10756665277E+02  0.18555370566E+02  0.47000000000E+01 0.  1.
         11    1    6    6    0    0  0.68958417376E+01  0.18123865034E+02  0.14434160000E+03  0.14563833496E+03  0.00000000000E+00 0. -1.
        -12    1    6    6    0    0  0.48748950051E+02 -0.65370205951E+02  0.25148397831E+03  0.26437457386E+03  0.00000000000E+00 0.  1.
<mgrwt>
<rscale>  2 0.18902642E+03</rscale>
<asrwt>0</asrwt>
<pdfrwt beam="1">  1        2 0.90493725E-01 0.18902642E+03</pdfrwt>
<pdfrwt beam="2">  1       -2 0.10994814E-01 0.18902642E+03</pdfrwt>
<totfact> 0.29051586E+03</totfact>
</mgrwt>
</event>
<event>
12    1  0.4154313E-002  0.1946135E+03  0.7546771E-02  0.1154365E+00
          2   -1    0    0  502    0  0.00000000000E+00  0.00000000000E+00  0.17278747292E+04  0.17278747292E+04  0.00000000000E+00 0.  1.
         -2   -1    0    0    0  501 -0.00000000000E+00 -0.00000000000E+00 -0.29704147489E+02  0.29704147489E+02  0.00000000000E+00 0. -1.
          6    2    1    2  502    0 -0.88590695672E+02 -0.20175177753E+02  0.13037438764E+04  0.13184123647E+04  0.17380367967E+03 0.  0.
         24    2    3    3    0    0 -0.50996002147E+02 -0.14360799299E+02  0.12428630715E+04  0.12464698156E+04  0.78559288203E+02 0.  0.
         -6    2    1    2    0  501  0.88590695672E+02  0.20175177753E+02  0.39442670532E+03  0.43916651197E+03  0.17040965409E+03 0.  0.
        -24    2    5    5    0    0  0.83555071747E+02 -0.19504498835E+02  0.13540703726E+03  0.17703465072E+03  0.75128731687E+02 0.  0.
          5    1    3    3  502    0 -0.37594693525E+02 -0.58143784538E+01  0.60880804873E+02  0.71942549163E+02  0.47000000000E+01 0. -1.
        -11    1    4    4    0    0 -0.23977600663E+02  0.15213705395E+02  0.13853443509E+03  0.14141489267E+03  0.00000000000E+00 0.  1.
         12    1    4    4    0    0 -0.27018401484E+02 -0.29574504695E+02  0.11043286364E+04  0.11050549229E+04  0.00000000000E+00 0. -1.
         -5    1    5    5    0  501  0.50356239249E+01  0.39679676588E+02  0.25901966806E+03  0.26213186125E+03  0.47000000000E+01 0.  1.
         13    1    6    6    0    0  0.90780326083E+02 -0.46756356715E+01  0.13186981585E+03  0.16016422042E+03  0.00000000000E+00 0. -1.
        -14    1    6    6    0    0 -0.72252543355E+01 -0.14828863163E+02  0.35372214159E+01  0.16870430293E+02  0.00000000000E+00 0.  1.
<mgrwt>
<rscale>  2 0.19461354E+03</rscale>
<asrwt>0</asrwt>
<pdfrwt beam="1">  1        2 0.26582680E+00 0.19461354E+03</pdfrwt>
<pdfrwt beam="2">  1       -2 0.45698702E-02 0.19461354E+03</pdfrwt>
<totfact> 0.23239092E+03</totfact>
</mgrwt>
</event>
<event>
12    1  0.4154313E-002  0.2998280E+03  0.7546771E-02  0.1085327E+00
         -1   -1    0    0    0  501 -0.00000000000E+00  0.00000000000E+00  0.87861699030E+02  0.87861699030E+02  0.00000000000E+00 0.  1.
          1   -1    0    0  502    0  0.00000000000E+00 -0.00000000000E+00 -0.19175425806E+04  0.19175425806E+04  0.00000000000E+00 0. -1.
          6    2    1    2  502    0 -0.44869571116E+02  0.23957533844E+03 -0.22889228888E+03  0.37664769545E+03  0.17338450156E+03 0.  0.
         24    2    3    3    0    0 -0.62975346101E+00  0.22506237364E+03 -0.13781213922E+03  0.27424910525E+03  0.74611777861E+02 0.  0.
         -6    2    1    2    0  501  0.44869571116E+02 -0.23957533844E+03 -0.16007885927E+04  0.16287565842E+04  0.17582454553E+03 0.  0.
        -24    2    5    5    0    0  0.14218892484E+02 -0.14091779901E+03 -0.56300815634E+03  0.58583611825E+03  0.78522419439E+02 0.  0.
          5    1    3    3  502    0 -0.44239817655E+02  0.14512964793E+02 -0.91080149654E+02  0.10239859020E+03  0.47000000000E+01 0. -1.
        -11    1    4    4    0    0  0.12508470840E+02  0.19212022323E+03 -0.14100531859E+03  0.23864019336E+03  0.00000000000E+00 0.  1.
         12    1    4    4    0    0 -0.13138224301E+02  0.32942150420E+02  0.31931793665E+01  0.35608911898E+02  0.00000000000E+00 0. -1.
         -5    1    5    5    0  501  0.30650678632E+02 -0.98657539432E+02 -0.10377804363E+04  0.10429204659E+04  0.47000000000E+01 0.  1.
         11    1    6    6    0    0  0.26108415031E+02 -0.30229842032E+02 -0.71720481072E+02  0.82093362034E+02  0.00000000000E+00 0. -1.
        -12    1    6    6    0    0 -0.11889522547E+02 -0.11068795697E+03 -0.49128767527E+03  0.50374275622E+03  0.00000000000E+00 0.  1.
<mgrwt>
<rscale>  2 0.29982802E+03</rscale>
<asrwt>0</asrwt>
<pdfrwt beam="2">  1        1 0.29500655E+00 0.29982802E+03</pdfrwt>
<pdfrwt beam="1">  1       -1 0.13517185E-01 0.29982802E+03</pdfrwt>
<totfact> 0.14445725E+02</totfact>
</mgrwt>
</event>
<event>
12    1  0.4154313E-002  0.2784119E+03  0.7546771E-02  0.1096559E+00
          2   -1    0    0  502    0  0.00000000000E+00  0.00000000000E+00  0.51823751919E+03  0.51823751919E+03  0.00000000000E+00 0. -1.
         -2   -1    0    0    0  501 -0.00000000000E+00 -0.00000000000E+00 -0.15327410258E+03  0.15327410258E+03  0.00000000000E+00 0.  1.
          6    2    1    2  502    0 -0.14077530009E+03  0.16682808467E+03  0.23436529648E+03  0.36356159133E+03  0.17204837559E+03 0.  0.
         24    2    3    3    0    0 -0.55582838113E+02  0.90701176662E+02  0.41401921556E+02  0.13926264848E+03  0.79773496922E+02 0.  0.
         -6    2    1    2    0  501  0.14077530009E+03 -0.16682808467E+03  0.13059812012E+03  0.30795003044E+03  0.17357435675E+03 0.  0.
        -24    2    5    5    0    0  0.87870740547E+02 -0.29302500715E+02  0.19515607284E+02  0.12335969126E+03  0.79100258580E+02 0.  0.
          5    1    3    3  502    0 -0.85192461980E+02  0.76126908004E+02  0.19296337493E+03  0.22429894285E+03  0.47000000000E+01 0. -1.
        -13    1    4    4    0    0 -0.49078898301E+02  0.10494579820E+03  0.42875944361E+02  0.12353422774E+03  0.00000000000E+00 0.  1.
         14    1    4    4    0    0 -0.65039398120E+01 -0.14244621534E+02 -0.14740228052E+01  0.15728420739E+02  0.00000000000E+00 0. -1.
         -5    1    5    5    0  501  0.52904559546E+02 -0.13752558395E+03  0.11108251284E+03  0.18459033918E+03  0.47000000000E+01 0.  1.
         13    1    6    6    0    0 -0.16029934513E+01  0.16924293688E+02 -0.82448246446E+01  0.18893873035E+02  0.00000000000E+00 0. -1.
        -14    1    6    6    0    0  0.89473733998E+02 -0.46226794403E+02  0.27760431929E+02  0.10446581822E+03  0.00000000000E+00 0.  1.
<mgrwt>
<rscale>  2 0.27841192E+03</rscale>
<asrwt>0</asrwt>
<pdfrwt beam="1">  1        2 0.79728848E-01 0.27841192E+03</pdfrwt>
<pdfrwt beam="2">  1       -2 0.23580631E-01 0.27841192E+03</pdfrwt>
<totfact> 0.94443093E+02</totfact>
</mgrwt>
</event>
<event>
12    1  0.4154313E-002  0.1802098E+03  0.7546771E-02  0.1167600E+00
         -2   -1    0    0    0  501 -0.00000000000E+00  0.00000000000E+00  0.56263757382E+02  0.56263757382E+02  0.00000000000E+00 0. -1.
          2   -1    0    0  502    0  0.00000000000E+00 -0.00000000000E+00 -0.11538313606E+04  0.11538313606E+04  0.00000000000E+00 0.  1.
          6    2    1    2  502    0 -0.34875860212E+02 -0.33738387608E+02 -0.97754026026E+03  0.99413587779E+03  0.17426008910E+03 0.  0.
         24    2    3    3    0    0 -0.11564175964E+01 -0.46462546899E+02 -0.92712682592E+03  0.93198678768E+03  0.82916316229E+02 0.  0.
         -6    2    1    2    0  501  0.34875860212E+02  0.33738387608E+02 -0.12002734293E+03  0.21595924016E+03  0.17285029921E+03 0.  0.
        -24    2    5    5    0    0  0.44122125590E+02 -0.17653134250E+02 -0.92441082064E+01  0.93396615200E+02  0.79869137211E+02 0.  0.
          5    1    3    3  502    0 -0.33719442616E+02  0.12724159291E+02 -0.50413434345E+02  0.62149090118E+02  0.47000000000E+01 0. -1.
        -11    1    4    4    0    0 -0.41088639103E+02 -0.23284736131E+02 -0.38205895803E+03  0.38496688508E+03  0.00000000000E+00 0.  1.
         12    1    4    4    0    0  0.39932221507E+02 -0.23177810768E+02 -0.54506786789E+03  0.54701990259E+03  0.00000000000E+00 0. -1.
         -5    1    5    5    0  501 -0.92462653778E+01  0.51391521858E+02 -0.11078323472E+03  0.12256262496E+03  0.47000000000E+01 0.  1.
         11    1    6    6    0    0 -0.22536308746E+02 -0.13497566709E+01 -0.10183102098E+02  0.24766966372E+02  0.00000000000E+00 0. -1.
        -12    1    6    6    0    0  0.66658434336E+02 -0.16303377579E+02  0.93899389145E+00  0.68629648827E+02  0.00000000000E+00 0.  1.
<mgrwt>
<rscale>  2 0.18020984E+03</rscale>
<asrwt>0</asrwt>
<pdfrwt beam="2">  1        2 0.17751252E+00 0.18020984E+03</pdfrwt>
<pdfrwt beam="1">  1       -2 0.86559627E-02 0.18020984E+03</pdfrwt>
<totfact> 0.17729803E+03</totfact>
</mgrwt>
</event>
<event>
12    1  0.4154313E-002  0.2732896E+03  0.7546771E-02  0.1099412E+00
          2   -1    0    0  502    0  0.00000000000E+00  0.00000000000E+00  0.59302361683E+03  0.59302361683E+03  0.00000000000E+00 0.  1.
         -2   -1    0    0    0  501 -0.00000000000E+00 -0.00000000000E+00 -0.22458773670E+03  0.22458773670E+03  0.00000000000E+00 0. -1.
          6    2    1    2  502    0  0.13185965798E+03 -0.16807084726E+03  0.45609606819E+03  0.53303198761E+03  0.17454139137E+03 0.  0.
         24    2    3    3    0    0  0.10913136988E+03 -0.45385264878E+02  0.30351279082E+03  0.33587196698E+03  0.81978569454E+02 0.  0.
         -6    2    1    2    0  501 -0.13185965798E+03  0.16807084726E+03 -0.87660188056E+02  0.28457936591E+03  0.16633198079E+03 0.  0.
        -24    2    5    5    0    0 -0.13862719044E+03  0.13171112470E+03 -0.21521686969E+02  0.20865690385E+03  0.80679627010E+02 0.  0.
          5    1    3    3  502    0  0.22728288100E+02 -0.12268558238E+03  0.15258327736E+03  0.19716002063E+03  0.47000000000E+01 0. -1.
        -11    1    4    4    0    0  0.12194822226E+03 -0.33764088832E+02  0.26629463984E+03  0.29482913325E+03  0.00000000000E+00 0.  1.
         12    1    4    4    0    0 -0.12816852382E+02 -0.11621176045E+02  0.37218150986E+02  0.41042833729E+02  0.00000000000E+00 0. -1.
         -5    1    5    5    0  501  0.67675324567E+01  0.36359722563E+02 -0.66138501088E+02  0.75922462069E+02  0.47000000000E+01 0.  1.
         11    1    6    6    0    0 -0.12559326793E+03  0.77762837590E+02  0.35389488840E+01  0.14776079324E+03  0.00000000000E+00 0. -1.
        -12    1    6    6    0    0 -0.13033922510E+02  0.53948287108E+02 -0.25060635853E+02  0.60896110608E+02  0.00000000000E+00 0.  1.
<mgrwt>
<rscale>  2 0.27328957E+03</rscale>
<asrwt>0</asrwt>
<pdfrwt beam="1">  1        2 0.91234402E-01 0.27328957E+03</pdfrwt>
<pdfrwt beam="2">  1       -2 0.34551960E-01 0.27328957E+03</pdfrwt>
<totfact> 0.40516544E+02</totfact>
</mgrwt>
</event>
<event>
12    1  0.4154313E-002  0.2134871E+03  0.7546771E-02  0.1138834E+00
          2   -1    0    0  502    0  0.00000000000E+00  0.00000000000E+00  0.13219222458E+04  0.13219222458E+04  0.00000000000E+00 0. -1.
         -2   -1    0    0    0  501 -0.00000000000E+00 -0.00000000000E+00 -0.37368496690E+02  0.37368496690E+02  0.00000000000E+00 0.  1.
          6    2    1    2  502    0  0.11960659602E+03  0.22590857306E+02  0.44815693355E+03  0.49561273122E+03  0.17312208875E+03 0.  0.
         24    2    3    3    0    0  0.50799620352E+02  0.13040581078E+02  0.93080625285E+02  0.13377453206E+03  0.80504437410E+02 0.  0.
         -6    2    1    2    0  501 -0.11960659602E+03 -0.22590857306E+02  0.83639681559E+03  0.86367801130E+03  0.17766257184E+03 0.  0.
        -24    2    5    5    0    0 -0.52781384206E+02 -0.31093602351E+02  0.73405576546E+03  0.74106607816E+03  0.81168828795E+02 0.  0.
          5    1    3    3  502    0  0.68806975666E+02  0.95502762281E+01  0.35507630827E+03  0.36183819916E+03  0.47000000000E+01 0. -1.
        -13    1    4    4    0    0 -0.14399455255E+02 -0.80354302136E+01  0.50445367449E+02  0.53072097636E+02  0.00000000000E+00 0.  1.
         14    1    4    4    0    0  0.65199075607E+02  0.21076011291E+02  0.42635257835E+02  0.80702434428E+02  0.00000000000E+00 0. -1.
         -5    1    5    5    0  501 -0.66825211812E+02  0.85027450449E+01  0.10234105013E+03  0.12261193314E+03  0.47000000000E+01 0.  1.
         13    1    6    6    0    0 -0.42493361769E+02  0.97182882415E+01  0.57115263816E+03  0.57281364072E+03  0.00000000000E+00 0. -1.
        -14    1    6    6    0    0 -0.10288022436E+02 -0.40811890592E+02  0.16290312730E+03  0.16825243744E+03  0.00000000000E+00 0.  1.
<mgrwt>
<rscale>  2 0.21348712E+03</rscale>
<asrwt>0</asrwt>
<pdfrwt beam="1">  1        2 0.20337262E+00 0.21348712E+03</pdfrwt>
<pdfrwt beam="2">  1       -2 0.57490005E-02 0.21348712E+03</pdfrwt>
<totfact> 0.26923763E+03</totfact>
</mgrwt>
</event>
<event>
12    1  0.4154313E-002  0.2962851E+03  0.7546771E-02  0.1087113E+00
          2   -1    0    0  502    0  0.00000000000E+00  0.00000000000E+00  0.48301575449E+03  0.48301575449E+03  0.00000000000E+00 0. -1.
         -2   -1    0    0    0  501 -0.00000000000E+00 -0.00000000000E+00 -0.20736468316E+03  0.20736468316E+03  0.00000000000E+00 0.  1.
          6    2    1    2  502    0  0.22386142817E+03 -0.88489583315E+02  0.16707874489E+02  0.29728911010E+03  0.17365862069E+03 0.  0.
         24    2    3    3    0    0  0.86171609869E+02  0.19603715735E+02 -0.13131974406E+02  0.11965140593E+03  0.79587424699E+02 0.  0.
         -6    2    1    2    0  501 -0.22386142817E+03  0.88489583315E+02  0.25894319683E+03  0.39309132755E+03  0.17182801644E+03 0.  0.
        -24    2    5    5    0    0 -0.12279716944E+03  0.34643409883E+01  0.20051054929E+03  0.24859309046E+03  0.80640546655E+02 0.  0.
          5    1    3    3  502    0  0.13768981830E+03 -0.10809329905E+03  0.29839848895E+02  0.17763770417E+03  0.47000000000E+01 0. -1.
        -11    1    4    4    0    0  0.87023017864E+02  0.51784743982E+01  0.14589865344E+02  0.88389402114E+02  0.00000000000E+00 0.  1.
         12    1    4    4    0    0 -0.85140799548E+00  0.14425241337E+02 -0.27721839750E+02  0.31262003812E+02  0.00000000000E+00 0. -1.
         -5    1    5    5    0  501 -0.10106425872E+03  0.85025242327E+02  0.58432647542E+02  0.14449823709E+03  0.47000000000E+01 0.  1.
         11    1    6    6    0    0 -0.31701095422E+02  0.37781983802E+02  0.74847946561E+02  0.89636225128E+02  0.00000000000E+00 0. -1.
        -12    1    6    6    0    0 -0.91096074023E+02 -0.34317642814E+02  0.12566260273E+03  0.15895686533E+03  0.00000000000E+00 0.  1.
<mgrwt>
<rscale>  2 0.29628511E+03</rscale>
<asrwt>0</asrwt>
<pdfrwt beam="1">  1        2 0.74310116E-01 0.29628511E+03</pdfrwt>
<pdfrwt beam="2">  1       -2 0.31902259E-01 0.29628511E+03</pdfrwt>
<totfact> 0.59338520E+02</totfact>
</mgrwt>
</event>
<event>
12    1  0.4154313E-002  0.1827272E+03  0.7546771E-02  0.1165189E+00
         -1   -1    0    0    0  501 -0.00000000000E+00  0.00000000000E+00  0.84635304105E+02  0.84635304105E+02  0.00000000000E+00 0.  1.
          1   -1    0    0  502    0  0.00000000000E+00 -0.00000000000E+00 -0.39494305496E+03  0.39494305496E+03  0.00000000000E+00 0. -1.
          6    2    1    2  502    0  0.46049394100E+02 -0.31742397595E+02 -0.16309502918E+03  0.24490571103E+03  0.17392726137E+03 0.  0.
         24    2    3    3    0    0  0.46744886996E+02  0.39140733377E+02 -0.52963585924E+02  0.11384875104E+03  0.80245343858E+02 0.  0.
         -6    2    1    2    0  501 -0.46049394100E+02  0.31742397595E+02 -0.14721272168E+03  0.23467264804E+03  0.17398718290E+03 0.  0.
        -24    2    5    5    0    0 -0.45606479353E+01 -0.42357444258E+02 -0.10762049685E+03  0.14085507566E+03  0.80268477016E+02 0.  0.
          5    1    3    3  502    0 -0.69549289629E+00 -0.70883130972E+02 -0.11013144325E+03  0.13105695998E+03  0.47000000000E+01 0. -1.
        -13    1    4    4    0    0  0.21471972981E+02  0.35389453727E+02  0.12774364787E+02  0.43320243010E+02  0.00000000000E+00 0.  1.
         14    1    4    4    0    0  0.25272914016E+02  0.37512796503E+01 -0.65737950711E+02  0.70528508035E+02  0.00000000000E+00 0. -1.
         -5    1    5    5    0  501 -0.41488746165E+02  0.74099841853E+02 -0.39592224831E+02  0.93817572384E+02  0.47000000000E+01 0.  1.
         11    1    6    6    0    0 -0.19363673985E+02 -0.45856837649E+02 -0.22922169884E+02  0.54801708929E+02  0.00000000000E+00 0. -1.
        -12    1    6    6    0    0  0.14803026050E+02  0.34993933911E+01 -0.84698326967E+02  0.86053366728E+02  0.00000000000E+00 0.  1.
<mgrwt>
<rscale>  2 0.18272723E+03</rscale>
<asrwt>0</asrwt>
<pdfrwt beam="2">  1        1 0.60760469E-01 0.18272723E+03</pdfrwt>
<pdfrwt beam="1">  1       -1 0.13020816E-01 0.18272723E+03</pdfrwt>
<totfact> 0.24451168E+03</totfact>
</mgrwt>
</event>
<event>
12    1  0.4154313E-002  0.2357674E+03  0.7546771E-02  0.1122645E+00
          1   -1    0    0  502    0  0.00000000000E+00  0.00000000000E+00  0.14710567382E+04  0.14710567382E+04  0.00000000000E+00 0. -1.
         -1   -1    0    0    0  501 -0.00000000000E+00 -0.00000000000E+00 -0.44497333997E+02  0.44497333997E+02  0.00000000000E+00 0.  1.
          6    2    1    2  502    0 -0.11138532938E+03 -0.11638635189E+03  0.42018384613E+03  0.48203485630E+03  0.17277344597E+03 0.  0.
         24    2    3    3    0    0 -0.63902602663E+02 -0.13755597581E+03  0.37730621298E+03  0.41448233052E+03  0.80189992256E+02 0.  0.
         -6    2    1    2    0  501  0.11138532938E+03  0.11638635189E+03  0.10063755581E+04  0.10335192159E+04  0.17151597955E+03 0.  0.
        -24    2    5    5    0    0  0.51720401746E+02  0.11665327960E+02  0.64580325932E+03  0.65330760499E+03  0.83294040349E+02 0.  0.
          5    1    3    3  502    0 -0.47482726720E+02  0.21169623923E+02  0.42877633156E+02  0.67552525777E+02  0.47000000000E+01 0. -1.
        -13    1    4    4    0    0  0.13749489213E+01 -0.70563827724E+02  0.10462425060E+03  0.12620371659E+03  0.00000000000E+00 0.  1.
         14    1    4    4    0    0 -0.65277551584E+02 -0.66992148086E+02  0.27268196238E+03  0.28827861394E+03  0.00000000000E+00 0. -1.
         -5    1    5    5    0  501  0.59664927637E+02  0.10472102393E+03  0.36057229878E+03  0.38021161093E+03  0.47000000000E+01 0.  1.
         11    1    6    6    0    0 -0.18919182137E+02  0.18099179738E+01  0.27823606516E+03  0.27888441909E+03  0.00000000000E+00 0. -1.
        -12    1    6    6    0    0  0.70639583883E+02  0.98554099859E+01  0.36756719416E+03  0.37442318590E+03  0.00000000000E+00 0.  1.
<mgrwt>
<rscale>  2 0.23576737E+03</rscale>
<asrwt>0</asrwt>
<pdfrwt beam="1">  1        1 0.22631638E+00 0.23576737E+03</pdfrwt>
<pdfrwt beam="2">  1       -1 0.68457448E-02 0.23576737E+03</pdfrwt>
<totfact> 0.82098280E+02</totfact>
</mgrwt>
</event>
<event>
12    1  0.4154313E-002  0.2024786E+03  0.7546771E-02  0.1147664E+00
         -2   -1    0    0    0  501 -0.00000000000E+00  0.00000000000E+00  0.16425802895E+03  0.16425802895E+03  0.00000000000E+00 0.  1.
          2   -1    0    0  502    0  0.00000000000E+00 -0.00000000000E+00 -0.31326560448E+03  0.31326560448E+03  0.00000000000E+00 0. -1.
          6    2    1    2  502    0  0.43519590778E+02  0.98086078697E+02  0.33073580528E+02  0.20538230698E+03  0.17196859212E+03 0.  0.
         24    2    3    3    0    0  0.60936958585E+02  0.10122627652E+03 -0.24773566477E+02  0.14470605166E+03  0.79787466497E+02 0.  0.
         -6    2    1    2    0  501 -0.43519590778E+02 -0.98086078697E+02 -0.18208115606E+03  0.27214132645E+03  0.17144247009E+03 0.  0.
        -24    2    5    5    0    0 -0.45117215168E+01 -0.57629782859E+02 -0.19163939542E+03  0.21494188872E+03  0.78312260507E+02 0.  0.
          5    1    3    3  502    0 -0.17417367807E+02 -0.31401978251E+01  0.57847147006E+02  0.60676255326E+02  0.47000000000E+01 0. -1.
        -11    1    4    4    0    0  0.11951670434E+02  0.47306755258E+02  0.26592700933E+02  0.55569265445E+02  0.00000000000E+00 0.  1.
         12    1    4    4    0    0  0.48985288151E+02  0.53919521264E+02 -0.51366267410E+02  0.89136786212E+02  0.00000000000E+00 0. -1.
         -5    1    5    5    0  501 -0.39007869261E+02 -0.40456295838E+02  0.95582393528E+01  0.57199437731E+02  0.47000000000E+01 0.  1.
         11    1    6    6    0    0 -0.33917626362E+02 -0.51544617293E+02 -0.91219896799E+02  0.11012866349E+03  0.00000000000E+00 0. -1.
        -12    1    6    6    0    0  0.29405904845E+02 -0.60851655652E+01 -0.10041949862E+03  0.10481322523E+03  0.00000000000E+00 0.  1.
<mgrwt>
<rscale>  2 0.20247862E+03</rscale>
<asrwt>0</asrwt>
<pdfrwt beam="2">  1        2 0.48194708E-01 0.20247862E+03</pdfrwt>
<pdfrwt beam="1">  1       -2 0.25270466E-01 0.20247862E+03</pdfrwt>
<totfact> 0.14450289E+03</totfact>
</mgrwt>
</event>
<event>
12    1  0.4154313E-002  0.1866556E+03  0.7546771E-02  0.1161513E+00
          1   -1    0    0  502    0  0.00000000000E+00  0.00000000000E+00  0.99675593766E+03  0.99675593766E+03  0.00000000000E+00 0. -1.
         -1   -1    0    0    0  501 -0.00000000000E+00 -0.00000000000E+00 -0.35513016965E+02  0.35513016965E+02  0.00000000000E+00 0.  1.
          6    2    1    2  502    0 -0.64504232233E+02 -0.25498566493E+02  0.41370913036E+03  0.45351455301E+03  0.17236366316E+03 0.  0.
         24    2    3    3    0    0 -0.64893597311E+02 -0.78573336603E+02  0.32306369485E+03  0.34836814173E+03  0.81272769374E+02 0.  0.
         -6    2    1    2    0  501  0.64504232233E+02  0.25498566493E+02  0.54753379034E+03  0.57875440161E+03  0.17421949650E+03 0.  0.
        -24    2    5    5    0    0 -0.10898423681E+01 -0.22214946142E+02  0.14326769063E+03  0.16640463348E+03  0.81671165514E+02 0.  0.
          5    1    3    3  502    0  0.38936507790E+00  0.53074770110E+02  0.90645435511E+02  0.10514641129E+03  0.47000000000E+01 0. -1.
        -11    1    4    4    0    0 -0.65270059677E+02 -0.29853080620E+02  0.12255657501E+03  0.14202641019E+03  0.00000000000E+00 0.  1.
         12    1    4    4    0    0  0.37646236625E+00 -0.48720255984E+02  0.20050711984E+03  0.20634173154E+03  0.00000000000E+00 0. -1.
         -5    1    5    5    0  501  0.65594074601E+02  0.47713512635E+02  0.40426609971E+03  0.41234976814E+03  0.47000000000E+01 0.  1.
         11    1    6    6    0    0  0.13200937185E+02 -0.32905124184E+02  0.14423801037E+03  0.14853153058E+03  0.00000000000E+00 0. -1.
        -12    1    6    6    0    0 -0.14290779553E+02  0.10690178043E+02 -0.97031974333E+00  0.17873102899E+02  0.00000000000E+00 0.  1.
<mgrwt>
<rscale>  2 0.18665562E+03</rscale>
<asrwt>0</asrwt>
<pdfrwt beam="1">  1        1 0.15334705E+00 0.18665562E+03</pdfrwt>
<pdfrwt beam="2">  1       -1 0.54635418E-02 0.18665562E+03</pdfrwt>
<totfact> 0.24614548E+03</totfact>
</mgrwt>
</event>
<event>
12    1  0.4154313E-002  0.1876176E+03  0.7546771E-02  0.1160628E+00
          1   -1    0    0  502    0  0.00000000000E+00  0.00000000000E+00  0.36383078044E+02  0.36383078044E+02  0.00000000000E+00 0.  1.
         -1   -1    0    0    0  501 -0.00000000000E+00 -0.00000000000E+00 -0.11839937744E+04  0.11839937744E+04  0.00000000000E+00 0. -1.
          6    2    1    2  502    0 -0.80416668156E+02  0.14708327115E+02 -0.84257011785E+03  0.86391709402E+03  0.17246787076E+03 0.  0.
         24    2    3    3    0    0 -0.78006496928E+02  0.22817098346E+01 -0.29007632640E+03  0.31125833010E+03  0.81530688451E+02 0.  0.
         -6    2    1    2    0  501  0.80416668156E+02 -0.14708327115E+02 -0.30504057854E+03  0.35645975845E+03  0.16531977933E+03 0.  0.
        -24    2    5    5    0    0  0.75200998209E+02 -0.22853005156E+02 -0.32045942805E+03  0.33766162254E+03  0.71719427882E+02 0.  0.
          5    1    3    3  502    0 -0.24101712278E+01  0.12426617281E+02 -0.55249379145E+03  0.55265876392E+03  0.47000000000E+01 0. -1.
        -13    1    4    4    0    0  0.90489406921E+01  0.19289234919E+02 -0.88508333505E+02  0.91036712437E+02  0.00000000000E+00 0.  1.
         14    1    4    4    0    0 -0.87055437620E+02 -0.17007525085E+02 -0.20156799289E+03  0.22022161767E+03  0.00000000000E+00 0. -1.
         -5    1    5    5    0  501  0.52156699476E+01  0.81446780408E+01  0.15418849514E+02  0.18798135911E+02  0.47000000000E+01 0.  1.
         11    1    6    6    0    0  0.21102468740E+02 -0.37388922789E+02 -0.80311956363E+02  0.91067316141E+02  0.00000000000E+00 0. -1.
        -12    1    6    6    0    0  0.54098529468E+02  0.14535917633E+02 -0.24014747169E+03  0.24659430640E+03  0.00000000000E+00 0.  1.
<mgrwt>
<rscale>  2 0.18761763E+03</rscale>
<asrwt>0</asrwt>
<pdfrwt beam="1">  1        1 0.55973978E-02 0.18761763E+03</pdfrwt>
<pdfrwt beam="2">  1       -1 0.18215285E+00 0.18761763E+03</pdfrwt>
<totfact> 0.31506112E+02</totfact>
</mgrwt>
</event>
<event>
12    1  0.4154313E-002  0.1912074E+03  0.7546771E-02  0.1157377E+00
          2   -1    0    0  502    0  0.00000000000E+00  0.00000000000E+00  0.82241543743E+03  0.82241543743E+03  0.00000000000E+00 0. -1.
         -2   -1    0    0    0  501 -0.00000000000E+00 -0.00000000000E+00 -0.69310438428E+02  0.69310438428E+02  0.00000000000E+00 0.  1.
          6    2    1    2  502    0 -0.63321136150E+02 -0.50426023044E+02  0.64401340663E+03  0.67190252975E+03  0.17363004202E+03 0.  0.
         24    2    3    3    0    0 -0.34016588478E+02  0.40436598980E+02  0.31253444702E+03  0.32691678620E+03  0.80028480520E+02 0.  0.
         -6    2    1    2    0  501  0.63321136150E+02  0.50426023044E+02  0.10909159237E+03  0.21982334610E+03  0.17282643861E+03 0.  0.
        -24    2    5    5    0    0  0.97561865019E+02  0.65991930232E+01  0.45090246178E+02  0.13490290770E+03  0.81263751770E+02 0.  0.
          5    1    3    3  502    0 -0.29304547672E+02 -0.90862622024E+02  0.33147895961E+03  0.34498574356E+03  0.47000000000E+01 0. -1.
        -13    1    4    4    0    0  0.79626842366E+01 -0.20158329443E+02  0.57773075536E+02  0.61704868876E+02  0.00000000000E+00 0.  1.
         14    1    4    4    0    0 -0.41979272714E+02  0.60594928423E+02  0.25476137148E+03  0.26521191732E+03  0.00000000000E+00 0. -1.
         -5    1    5    5    0  501 -0.34240728869E+02  0.43826830021E+02  0.64001346192E+02  0.84920438397E+02  0.47000000000E+01 0.  1.
         11    1    6    6    0    0  0.16880075464E+02  0.10359054851E+02  0.50206523558E+02  0.53971677507E+02  0.00000000000E+00 0. -1.
        -12    1    6    6    0    0  0.80681789556E+02 -0.37598618274E+01 -0.51162773805E+01  0.80931230196E+02  0.00000000000E+00 0.  1.
<mgrwt>
<rscale>  2 0.19120740E+03</rscale>
<asrwt>0</asrwt>
<pdfrwt beam="1">  1        2 0.12652545E+00 0.19120740E+03</pdfrwt>
<pdfrwt beam="2">  1       -2 0.10663145E-01 0.19120740E+03</pdfrwt>
<totfact> 0.20378720E+03</totfact>
</mgrwt>
</event>
<event>
12    1  0.4154313E-002  0.1941440E+03  0.7546771E-02  0.1154776E+00
         -2   -1    0    0    0  501 -0.00000000000E+00  0.00000000000E+00  0.26452729629E+03  0.26452729629E+03  0.00000000000E+00 0.  1.
          2   -1    0    0  502    0  0.00000000000E+00 -0.00000000000E+00 -0.18536485988E+03  0.18536485988E+03  0.00000000000E+00 0. -1.
          6    2    1    2  502    0 -0.86111968253E+02  0.86473359765E+00 -0.68604117555E+02  0.20592205995E+03  0.17401537573E+03 0.  0.
         24    2    3    3    0    0 -0.81098719863E+02  0.51437699947E+02 -0.85674521516E+02  0.15210527562E+03  0.81074360279E+02 0.  0.
         -6    2    1    2    0  501  0.86111968253E+02 -0.86473359765E+00  0.14776655397E+03  0.24397009622E+03  0.17398400656E+03 0.  0.
        -24    2    5    5    0    0  0.42645161091E+02  0.23542699987E+02  0.16551452492E+03  0.19084602812E+03  0.81573770316E+02 0.  0.
          5    1    3    3  502    0 -0.50132483902E+01 -0.50572966350E+02  0.17070403960E+02  0.53816784336E+02  0.47000000000E+01 0. -1.
        -13    1    4    4    0    0  0.64450674252E+01 -0.12668985931E+02 -0.60495097156E+00  0.14227018813E+02  0.00000000000E+00 0.  1.
         14    1    4    4    0    0 -0.87543787288E+02  0.64106685878E+02 -0.85069570544E+02  0.13787825681E+03  0.00000000000E+00 0. -1.
         -5    1    5    5    0  501  0.43466807162E+02 -0.24407433585E+02 -0.17747970949E+02  0.53124068103E+02  0.47000000000E+01 0.  1.
         11    1    6    6    0    0 -0.47786959807E+01  0.43247988618E+02  0.70679155082E+02  0.82998598891E+02  0.00000000000E+00 0. -1.
        -12    1    6    6    0    0  0.47423857072E+02 -0.19705288631E+02  0.94835369835E+02  0.10784742923E+03  0.00000000000E+00 0.  1.
<mgrwt>
<rscale>  2 0.19414405E+03</rscale>
<asrwt>0</asrwt>
<pdfrwt beam="2">  1        2 0.28517671E-01 0.19414405E+03</pdfrwt>
<pdfrwt beam="1">  1       -2 0.40696507E-01 0.19414405E+03</pdfrwt>
<totfact> 0.10626532E+03</totfact>
</mgrwt>
</event>
<event>
12    1  0.4154313E-002  0.2330459E+03  0.7546771E-02  0.1124514E+00
          2   -1    0    0  502    0  0.00000000000E+00  0.00000000000E+00  0.11963665898E+04  0.11963665898E+04  0.00000000000E+00 0.  1.
         -2   -1    0    0    0  501 -0.00000000000E+00 -0.00000000000E+00 -0.17728413389E+03  0.17728413389E+03  0.00000000000E+00 0. -1.
          6    2    1    2  502    0 -0.11108640702E+03 -0.10964157696E+03  0.11016450260E+04  0.11259165037E+04  0.17235064488E+03 0.  0.
         24    2    3    3    0    0 -0.95321258729E+02 -0.90618582548E+02  0.10846737500E+04  0.10955762923E+04  0.80451218348E+02 0.  0.
         -6    2    1    2    0  501  0.11108640702E+03  0.10964157696E+03 -0.82562570040E+02  0.24773422004E+03  0.17376478522E+03 0.  0.
        -24    2    5    5    0    0  0.94578876119E+02  0.55428132874E+02  0.12301210926E+02  0.13713212677E+03  0.81464462680E+02 0.  0.
          5    1    3    3  502    0 -0.15765148295E+02 -0.19022994416E+02  0.16971276022E+02  0.30340211389E+02  0.47000000000E+01 0. -1.
        -11    1    4    4    0    0 -0.33993458288E+02 -0.11095293783E+02  0.57454528744E+03  0.57565697083E+03  0.00000000000E+00 0.  1.
         12    1    4    4    0    0 -0.61327800441E+02 -0.79523288765E+02  0.51012846253E+03  0.51991932148E+03  0.00000000000E+00 0. -1.
         -5    1    5    5    0  501  0.16507530906E+02  0.54213444090E+02 -0.94863780966E+02  0.11060209327E+03  0.47000000000E+01 0.  1.
         11    1    6    6    0    0  0.10793182671E+03  0.57978258903E+02  0.14455442777E+02  0.12336821936E+03  0.00000000000E+00 0. -1.
        -12    1    6    6    0    0 -0.13352950590E+02 -0.25501260293E+01 -0.21542318515E+01  0.13763907407E+02  0.00000000000E+00 0.  1.
<mgrwt>
<rscale>  2 0.23304589E+03</rscale>
<asrwt>0</asrwt>
<pdfrwt beam="1">  1        2 0.18405639E+00 0.23304589E+03</pdfrwt>
<pdfrwt beam="2">  1       -2 0.27274483E-01 0.23304589E+03</pdfrwt>
<totfact> 0.24788730E+02</totfact>
</mgrwt>
</event>
<event>
12    1  0.4154313E-002  0.2242400E+03  0.7546771E-02  0.1130761E+00
         -4   -1    0    0    0  501 -0.00000000000E+00  0.00000000000E+00  0.25899913253E+03  0.25899913253E+03  0.00000000000E+00 0.  1.
          4   -1    0    0  502    0  0.00000000000E+00 -0.00000000000E+00 -0.21366971965E+03  0.21366971965E+03  0.00000000000E+00 0. -1.
          6    2    1    2  502    0  0.14182765416E+03  0.46269906969E+02 -0.49008193663E+02  0.22597518090E+03  0.16250228171E+03 0.  0.
         24    2    3    3    0    0  0.36175781214E+02 -0.24684839077E+02 -0.14657071294E+02  0.94069973071E+02  0.81953045508E+02 0.  0.
         -6    2    1    2    0  501 -0.14182765416E+03 -0.46269906969E+02  0.94337606540E+02  0.24669367129E+03  0.17234324957E+03 0.  0.
        -24    2    5    5    0    0 -0.86271962505E+02  0.41996264398E+02  0.78292946120E+02  0.14106757124E+03  0.67555432842E+02 0.  0.
          5    1    3    3  502    0  0.10565187295E+03  0.70954746046E+02 -0.34351122369E+02  0.13190520782E+03  0.47000000000E+01 0. -1.
        -11    1    4    4    0    0  0.49476318883E+02 -0.40601583264E+02  0.66331629415E+01  0.64345889879E+02  0.00000000000E+00 0.  1.
         12    1    4    4    0    0 -0.13300537669E+02  0.15916744187E+02 -0.21290234235E+02  0.29724083192E+02  0.00000000000E+00 0. -1.
         -5    1    5    5    0  501 -0.55555691654E+02 -0.88266171367E+02  0.16044660420E+02  0.10562610005E+03  0.47000000000E+01 0.  1.
         13    1    6    6    0    0  0.31076831288E+01  0.24631717184E+02  0.26515732478E+02  0.36324416784E+02  0.00000000000E+00 0. -1.
        -14    1    6    6    0    0 -0.89379645634E+02  0.17364547214E+02  0.51777213642E+02  0.10474315446E+03  0.00000000000E+00 0.  1.
<mgrwt>
<rscale>  2 0.22424004E+03</rscale>
<asrwt>0</asrwt>
<pdfrwt beam="2">  1        4 0.32872265E-01 0.22424004E+03</pdfrwt>
<pdfrwt beam="1">  1       -4 0.39846020E-01 0.22424004E+03</pdfrwt>
<totfact> 0.98662897E+01</totfact>
</mgrwt>
</event>
<event>
12    1  0.4154313E-002  0.2095575E+03  0.7546771E-02  0.1141917E+00
         -2   -1    0    0    0  501 -0.00000000000E+00  0.00000000000E+00  0.57647870990E+02  0.57647870990E+02  0.00000000000E+00 0. -1.
          2   -1    0    0  502    0  0.00000000000E+00 -0.00000000000E+00 -0.76363572074E+03  0.76363572074E+03  0.00000000000E+00 0.  1.
          6    2    1    2  502    0 -0.44120312370E+02  0.11237401399E+03 -0.33470171428E+03  0.39549182810E+03  0.17266739000E+03 0.  0.
         24    2    3    3    0    0 -0.71248127586E+02  0.12644085509E+03 -0.23727481743E+03  0.29327693385E+03  0.92996964597E+02 0.  0.
         -6    2    1    2    0  501  0.44120312370E+02 -0.11237401399E+03 -0.37128613547E+03  0.42579176363E+03  0.16991383286E+03 0.  0.
        -24    2    5    5    0    0  0.90950192594E+02 -0.10563081943E+03 -0.28238990544E+03  0.32497937317E+03  0.80235445717E+02 0.  0.
          5    1    3    3  502    0  0.27127815215E+02 -0.14066841096E+02 -0.97426896851E+02  0.10221489425E+03  0.47000000000E+01 0. -1.
        -13    1    4    4    0    0 -0.56057195071E+02  0.46188974280E+02 -0.17831969256E+03  0.19254543157E+03  0.00000000000E+00 0.  1.
         14    1    4    4    0    0 -0.15190932515E+02  0.80251880808E+02 -0.58955124873E+02  0.10073150229E+03  0.00000000000E+00 0. -1.
         -5    1    5    5    0  501 -0.46829880224E+02 -0.67431945632E+01 -0.88896230031E+02  0.10081239045E+03  0.47000000000E+01 0.  1.
         11    1    6    6    0    0  0.75332365840E+02 -0.26370590426E+02 -0.13156499831E+03  0.15388216974E+03  0.00000000000E+00 0. -1.
        -12    1    6    6    0    0  0.15617826754E+02 -0.79260229003E+02 -0.15082490713E+03  0.17109720344E+03  0.00000000000E+00 0.  1.
<mgrwt>
<rscale>  2 0.20955753E+03</rscale>
<asrwt>0</asrwt>
<pdfrwt beam="2">  1        2 0.11748241E+00 0.20955753E+03</pdfrwt>
<pdfrwt beam="1">  1       -2 0.88689039E-02 0.20955753E+03</pdfrwt>
<totfact> 0.29998592E+03</totfact>
</mgrwt>
</event>
<event>
12    1  0.4154313E-002  0.1933368E+03  0.7546771E-02  0.1155486E+00
          2   -1    0    0  502    0  0.00000000000E+00  0.00000000000E+00  0.80155580230E+03  0.80155580230E+03  0.00000000000E+00 0.  1.
         -2   -1    0    0    0  501 -0.00000000000E+00 -0.00000000000E+00 -0.53474195687E+02  0.53474195687E+02  0.00000000000E+00 0. -1.
          6    2    1    2  502    0  0.46362426594E+02 -0.78067555971E+02  0.22360569629E+03  0.29655128068E+03  0.17233437488E+03 0.  0.
         24    2    3    3    0    0 -0.14186270318E+02 -0.26806980457E+02  0.36842336230E+02  0.93582233880E+02  0.80501008020E+02 0.  0.
         -6    2    1    2    0  501 -0.46362426594E+02  0.78067555971E+02  0.52447591032E+03  0.55847871730E+03  0.16905466358E+03 0.  0.
        -24    2    5    5    0    0 -0.81518609062E+01 -0.16486033485E+02  0.35206089131E+03  0.35810542220E+03  0.62883861868E+02 0.  0.
          5    1    3    3  502    0  0.60548696911E+02 -0.51260575514E+02  0.18676336006E+03  0.20296904680E+03  0.47000000000E+01 0. -1.
        -13    1    4    4    0    0  0.13158946878E+02 -0.13237154610E+02  0.54987923487E+02  0.58069371226E+02  0.00000000000E+00 0.  1.
         14    1    4    4    0    0 -0.27345217195E+02 -0.13569825846E+02 -0.18145587257E+02  0.35512862654E+02  0.00000000000E+00 0. -1.
         -5    1    5    5    0  501 -0.38210565687E+02  0.94553589455E+02  0.17241501901E+03  0.20037329510E+03  0.47000000000E+01 0.  1.
         11    1    6    6    0    0  0.26607041837E+02 -0.14169974663E+02  0.14070944364E+03  0.14390229458E+03  0.00000000000E+00 0. -1.
        -12    1    6    6    0    0 -0.34758902743E+02 -0.23160588217E+01  0.21135144767E+03  0.21420312762E+03  0.00000000000E+00 0.  1.
<mgrwt>
<rscale>  2 0.19333684E+03</rscale>
<asrwt>0</asrwt>
<pdfrwt beam="1">  1        2 0.12331627E+00 0.19333684E+03</pdfrwt>
<pdfrwt beam="2">  1       -2 0.82267999E-02 0.19333684E+03</pdfrwt>
<totfact> 0.31695176E+03</totfact>
</mgrwt>
</event>
<event>
12    1  0.4154313E-002  0.1824048E+03  0.7546771E-02  0.1165496E+00
          1   -1    0    0  502    0  0.00000000000E+00  0.00000000000E+00  0.10706215400E+04  0.10706215400E+04  0.00000000000E+00 0.  1.
         -1   -1    0    0    0  501 -0.00000000000E+00 -0.00000000000E+00 -0.31965353355E+02  0.31965353355E+02  0.00000000000E+00 0. -1.
          6    2    1    2  502    0  0.11025252059E+02  0.57095202090E+02  0.61093172269E+03  0.63754875674E+03  0.17276987338E+03 0.  0.
         24    2    3    3    0    0  0.47714158380E+02  0.93543432080E+02  0.45860122057E+03  0.47661019333E+03  0.76257342491E+02 0.  0.
         -6    2    1    2    0  501 -0.11025252059E+02 -0.57095202090E+02  0.42772446396E+03  0.46503813662E+03  0.17300529805E+03 0.  0.
        -24    2    5    5    0    0  0.74019087288E+01 -0.16010439298E+02  0.40726783350E+03  0.41535834477E+03  0.79651390112E+02 0.  0.
          5    1    3    3  502    0 -0.36688906321E+02 -0.36448229990E+02  0.15233050212E+03  0.16093856341E+03  0.47000000000E+01 0. -1.
        -13    1    4    4    0    0 -0.31470849894E+00  0.55028669446E+01  0.18705318929E+03  0.18713438008E+03  0.00000000000E+00 0.  1.
         14    1    4    4    0    0  0.48028866879E+02  0.88040565135E+02  0.27154803128E+03  0.28947581325E+03  0.00000000000E+00 0. -1.
         -5    1    5    5    0  501 -0.18427160787E+02 -0.41084762792E+02  0.20456630462E+02  0.49679791849E+02  0.47000000000E+01 0.  1.
         11    1    6    6    0    0  0.68008181112E+01 -0.32598090635E+02  0.68310149903E+02  0.75994494668E+02  0.00000000000E+00 0. -1.
        -12    1    6    6    0    0  0.60109061762E+00  0.16587651337E+02  0.33895768359E+03  0.33936385010E+03  0.00000000000E+00 0.  1.
<mgrwt>
<rscale>  2 0.18240484E+03</rscale>
<asrwt>0</asrwt>
<pdfrwt beam="1">  1        1 0.16471098E+00 0.18240484E+03</pdfrwt>
<pdfrwt beam="2">  1       -1 0.49177475E-02 0.18240484E+03</pdfrwt>
<totfact> 0.25427381E+03</totfact>
</mgrwt>
</event>
<event>
12    1  0.4154313E-002  0.3413331E+03  0.7546771E-02  0.1066230E+00
          2   -1    0    0  502    0  0.00000000000E+00  0.00000000000E+00  0.34016169277E+04  0.34016169277E+04  0.00000000000E+00 0. -1.
         -2   -1    0    0    0  501 -0.00000000000E+00 -0.00000000000E+00 -0.69240496695E+02  0.69240496695E+02  0.00000000000E+00 0.  1.
          6    2    1    2  502    0  0.25289399560E+03  0.14995577448E+03  0.43205244223E+03  0.55049420166E+03  0.17300995900E+03 0.  0.
         24    2    3    3    0    0  0.18509223527E+03  0.15612327178E+03  0.25616320524E+03  0.36182986901E+03  0.81655709154E+02 0.  0.
         -6    2    1    2    0  501 -0.25289399560E+03 -0.14995577448E+03  0.29003239888E+04  0.29203632227E+04  0.17378148792E+03 0.  0.
        -24    2    5    5    0    0 -0.18973970029E+03 -0.16526200402E+03  0.25799099312E+04  0.25933922699E+04  0.80221748109E+02 0.  0.
          5    1    3    3  502    0  0.67801760332E+02 -0.61674973039E+01  0.17588923698E+03  0.18866433265E+03  0.47000000000E+01 0. -1.
        -11    1    4    4    0    0  0.42169113334E+02 -0.37165346661E+00  0.57765833357E+02  0.71521072063E+02  0.00000000000E+00 0.  1.
         12    1    4    4    0    0  0.14292312193E+03  0.15649492525E+03  0.19839737189E+03  0.29030879694E+03  0.00000000000E+00 0. -1.
         -5    1    5    5    0  501 -0.63154295306E+02  0.15306229539E+02  0.32041405761E+03  0.32697095282E+03  0.47000000000E+01 0.  1.
         11    1    6    6    0    0 -0.14569818865E+03 -0.95292822612E+02  0.14394784307E+04  0.14499678744E+04  0.00000000000E+00 0. -1.
        -12    1    6    6    0    0 -0.44041511642E+02 -0.69969181405E+02  0.11404315004E+04  0.11434243955E+04  0.00000000000E+00 0.  1.
<mgrwt>
<rscale>  2 0.34133306E+03</rscale>
<asrwt>0</asrwt>
<pdfrwt beam="1">  1        2 0.52332555E+00 0.34133306E+03</pdfrwt>
<pdfrwt beam="2">  1       -2 0.10652387E-01 0.34133306E+03</pdfrwt>
<totfact> 0.68887259E+01</totfact>
</mgrwt>
</event>
<event>
12    1  0.4154313E-002  0.2214598E+03  0.7546771E-02  0.1132799E+00
          2   -1    0    0  502    0  0.00000000000E+00  0.00000000000E+00  0.14924497321E+04  0.14924497321E+04  0.00000000000E+00 0. -1.
         -2   -1    0    0    0  501 -0.00000000000E+00 -0.00000000000E+00 -0.49641019519E+02  0.49641019519E+02  0.00000000000E+00 0.  1.
          6    2    1    2  502    0  0.13812974159E+03 -0.63245850476E+01  0.11696924910E+04  0.11904735036E+04  0.17299368049E+03 0.  0.
         24    2    3    3    0    0  0.10713321367E+03 -0.43515159017E+02  0.50528131174E+03  0.52428416971E+03  0.78699377827E+02 0.  0.
         -6    2    1    2    0  501 -0.13812974159E+03  0.63245850476E+01  0.27311622166E+03  0.35161724805E+03  0.17298090272E+03 0.  0.
        -24    2    5    5    0    0 -0.44718596695E+02 -0.50349739913E+02  0.82073323351E+02  0.13148751336E+03  0.77576327350E+02 0.  0.
          5    1    3    3  502    0  0.30996527920E+02  0.37190573970E+02  0.66441117922E+03  0.66618933390E+03  0.47000000000E+01 0. -1.
        -11    1    4    4    0    0 -0.10308941264E+02 -0.13963408428E+02  0.92085868736E+02  0.93707301027E+02  0.00000000000E+00 0.  1.
         12    1    4    4    0    0  0.11744215493E+03 -0.29551750589E+02  0.41319544301E+03  0.43057686868E+03  0.00000000000E+00 0. -1.
         -5    1    5    5    0  501 -0.93411144891E+02  0.56674324961E+02  0.19104289830E+03  0.22012973468E+03  0.47000000000E+01 0.  1.
         13    1    6    6    0    0  0.28192430846E+01  0.98205097165E+01 -0.81568916385E+01  0.13073845030E+02  0.00000000000E+00 0. -1.
        -14    1    6    6    0    0 -0.47537839780E+02 -0.60170249629E+02  0.90230214990E+02  0.11841366833E+03  0.00000000000E+00 0.  1.
<mgrwt>
<rscale>  2 0.22145977E+03</rscale>
<asrwt>0</asrwt>
<pdfrwt beam="1">  1        2 0.22960762E+00 0.22145977E+03</pdfrwt>
<pdfrwt beam="2">  1       -2 0.76370811E-02 0.22145977E+03</pdfrwt>
<totfact> 0.14056359E+03</totfact>
</mgrwt>
</event>
<event>
12    1  0.4154313E-002  0.1760855E+03  0.7546771E-02  0.1171646E+00
          1   -1    0    0  502    0  0.00000000000E+00  0.00000000000E+00  0.15001005599E+04  0.15001005599E+04  0.00000000000E+00 0.  1.
         -1   -1    0    0    0  501 -0.00000000000E+00 -0.00000000000E+00 -0.20859662169E+02  0.20859662169E+02  0.00000000000E+00 0. -1.
          6    2    1    2  502    0 -0.31255150299E+02 -0.15776778460E+02  0.66467993838E+03  0.68746476782E+03  0.17199591666E+03 0.  0.
         24    2    3    3    0    0 -0.17814676334E+02  0.44324289417E+02  0.54363678180E+03  0.55157392760E+03  0.80067732313E+02 0.  0.
         -6    2    1    2    0  501  0.31255150299E+02  0.15776778460E+02  0.81456095935E+03  0.83349545425E+03  0.17314538573E+03 0.  0.
        -24    2    5    5    0    0  0.13471851698E+02 -0.42406219040E+02  0.29007613042E+03  0.30547279121E+03  0.84792019246E+02 0.  0.
          5    1    3    3  502    0 -0.13440473966E+02 -0.60101067877E+02  0.12104315658E+03  0.13589084022E+03  0.47000000000E+01 0. -1.
        -11    1    4    4    0    0 -0.48575419082E+02  0.15263231904E+02  0.29816115503E+03  0.30247745694E+03  0.00000000000E+00 0.  1.
         12    1    4    4    0    0  0.30760742748E+02  0.29061057513E+02  0.24547562677E+03  0.24909647066E+03  0.00000000000E+00 0. -1.
         -5    1    5    5    0  501  0.17783298601E+02  0.58182997500E+02  0.52448482893E+03  0.52802266304E+03  0.47000000000E+01 0.  1.
         11    1    6    6    0    0 -0.28907217602E+02  0.56632194341E+01  0.63338573219E+02  0.69853232862E+02  0.00000000000E+00 0. -1.
        -12    1    6    6    0    0  0.42379069300E+02 -0.48069438474E+02  0.22673755720E+03  0.23561955835E+03  0.00000000000E+00 0.  1.
<mgrwt>
<rscale>  2 0.17608554E+03</rscale>
<asrwt>0</asrwt>
<pdfrwt beam="1">  1        1 0.23078462E+00 0.17608554E+03</pdfrwt>
<pdfrwt beam="2">  1       -1 0.32091800E-02 0.17608554E+03</pdfrwt>
<totfact> 0.24373681E+03</totfact>
</mgrwt>
</event>
<event>
12    1  0.4154313E-002  0.1740971E+03  0.7546771E-02  0.1173641E+00
         -2   -1    0    0    0  501 -0.00000000000E+00  0.00000000000E+00  0.62304113267E+02  0.62304113267E+02  0.00000000000E+00 0. -1.
          2   -1    0    0  502    0  0.00000000000E+00 -0.00000000000E+00 -0.49717478600E+03  0.49717478600E+03  0.00000000000E+00 0.  1.
          6    2    1    2  502    0  0.18770816423E+02 -0.50586613577E+00 -0.17573097442E+03  0.24697249921E+03  0.17251504440E+03 0.  0.
         24    2    3    3    0    0 -0.93395286517E+01  0.61583381761E+02 -0.12855857013E+03  0.16395086389E+03  0.80453962681E+02 0.  0.
         -6    2    1    2    0  501 -0.18770816423E+02  0.50586613577E+00 -0.25913969832E+03  0.31250640006E+03  0.17364984131E+03 0.  0.
        -24    2    5    5    0    0  0.13091693441E+02  0.38629601073E+02 -0.63624985677E+02  0.11072252668E+03  0.80917863263E+02 0.  0.
          5    1    3    3  502    0  0.28110345075E+02 -0.62089247897E+02 -0.47172404288E+02  0.83021635319E+02  0.47000000000E+01 0. -1.
        -13    1    4    4    0    0  0.14248785451E+02  0.73394962741E+02 -0.86832779617E+02  0.11458525236E+03  0.00000000000E+00 0.  1.
         14    1    4    4    0    0 -0.23588314103E+02 -0.11811580980E+02 -0.41725790514E+02  0.49365611527E+02  0.00000000000E+00 0. -1.
         -5    1    5    5    0  501 -0.31862509864E+02 -0.38123734937E+02 -0.19551471264E+03  0.20178387339E+03  0.47000000000E+01 0.  1.
         13    1    6    6    0    0 -0.13976392814E+02  0.53015732214E+02 -0.22110911218E+02  0.59117677671E+02  0.00000000000E+00 0. -1.
        -14    1    6    6    0    0  0.27068086254E+02 -0.14386131142E+02 -0.41514074459E+02  0.51604849005E+02  0.00000000000E+00 0.  1.
<mgrwt>
<rscale>  2 0.17409715E+03</rscale>
<asrwt>0</asrwt>
<pdfrwt beam="2">  1        2 0.76488429E-01 0.17409715E+03</pdfrwt>
<pdfrwt beam="1">  1       -2 0.95852482E-02 0.17409715E+03</pdfrwt>
<totfact> 0.43506056E+03</totfact>
</mgrwt>
</event>
<event>
12    1  0.4154313E-002  0.1871870E+03  0.7546771E-02  0.1161023E+00
          2   -1    0    0  502    0  0.00000000000E+00  0.00000000000E+00  0.12889973296E+04  0.12889973296E+04  0.00000000000E+00 0. -1.
         -2   -1    0    0    0  501 -0.00000000000E+00 -0.00000000000E+00 -0.30941914395E+02  0.30941914395E+02  0.00000000000E+00 0.  1.
          6    2    1    2  502    0  0.12599403376E+02 -0.60503213019E+02  0.38260244108E+03  0.42343407457E+03  0.17056495489E+03 0.  0.
         24    2    3    3    0    0 -0.53431685006E+02 -0.82109511435E+01  0.20508446126E+03  0.22689067365E+03  0.80606307811E+02 0.  0.
         -6    2    1    2    0  501 -0.12599403376E+02  0.60503213019E+02  0.87545297411E+03  0.89650516941E+03  0.18298695349E+03 0.  0.
        -24    2    5    5    0    0 -0.78960846701E+02  0.56797497668E+02  0.54822243930E+03  0.56255983496E+03  0.80404937093E+02 0.  0.
          5    1    3    3  502    0  0.66031088382E+02 -0.52292261876E+02  0.17751797982E+03  0.19654340092E+03  0.47000000000E+01 0. -1.
        -11    1    4    4    0    0  0.16367618260E+02 -0.13722156768E+02  0.21055021301E+02  0.29991839487E+02  0.00000000000E+00 0.  1.
         12    1    4    4    0    0 -0.69799303266E+02  0.55112056240E+01  0.18402943996E+03  0.19689883416E+03  0.00000000000E+00 0. -1.
         -5    1    5    5    0  501  0.66361443325E+02  0.37057153515E+01  0.32723053481E+03  0.33394533445E+03  0.47000000000E+01 0.  1.
         13    1    6    6    0    0 -0.66585219319E+02  0.28066893171E+02  0.19504620949E+03  0.20800087923E+03  0.00000000000E+00 0. -1.
        -14    1    6    6    0    0 -0.12375627382E+02  0.28730604497E+02  0.35317622981E+03  0.35455895573E+03  0.00000000000E+00 0.  1.
<mgrwt>
<rscale>  2 0.18718696E+03</rscale>
<asrwt>0</asrwt>
<pdfrwt beam="1">  1        2 0.19830724E+00 0.18718696E+03</pdfrwt>
<pdfrwt beam="2">  1       -2 0.47602955E-02 0.18718696E+03</pdfrwt>
<totfact> 0.37324713E+03</totfact>
</mgrwt>
</event>
<event>
12    1  0.4154313E-002  0.3154620E+03  0.7546771E-02  0.1077757E+00
         -2   -1    0    0    0  501 -0.00000000000E+00  0.00000000000E+00  0.64600830196E+03  0.64600830196E+03  0.00000000000E+00 0.  1.
          2   -1    0    0  502    0  0.00000000000E+00 -0.00000000000E+00 -0.20687314079E+03  0.20687314079E+03  0.00000000000E+00 0. -1.
          6    2    1    2  502    0 -0.17209124775E+03  0.19838796252E+03  0.44405212951E+01  0.31619048864E+03  0.17602137838E+03 0.  0.
         24    2    3    3    0    0 -0.19339602012E+03  0.20470815250E+03  0.81048232035E+01  0.29318276742E+03  0.81135680531E+02 0.  0.
         -6    2    1    2    0  501  0.17209124775E+03 -0.19838796252E+03  0.43469463987E+03  0.53669095411E+03  0.17350668308E+03 0.  0.
        -24    2    5    5    0    0  0.16653597805E+03 -0.14307215970E+03  0.41674164688E+03  0.47808123632E+03  0.81756916586E+02 0.  0.
          5    1    3    3  502    0  0.21304772366E+02 -0.63201899798E+01 -0.36643019084E+01  0.23007721213E+02  0.47000000000E+01 0. -1.
        -13    1    4    4    0    0 -0.83747315197E+02  0.12113594545E+03  0.38047130594E+02  0.15210231501E+03  0.00000000000E+00 0.  1.
         14    1    4    4    0    0 -0.10964870492E+03  0.83572207046E+02 -0.29942307390E+02  0.14108045242E+03  0.00000000000E+00 0. -1.
         -5    1    5    5    0  501  0.55552697091E+01 -0.55315802818E+02  0.17952992986E+02  0.58609717796E+02  0.47000000000E+01 0.  1.
         13    1    6    6    0    0  0.39797005842E+01  0.21690686559E+01 -0.27709839456E+01  0.53123655372E+01  0.00000000000E+00 0. -1.
        -14    1    6    6    0    0  0.16255627746E+03 -0.14524122836E+03  0.41951263083E+03  0.47276887078E+03  0.00000000000E+00 0.  1.
<mgrwt>
<rscale>  2 0.31546198E+03</rscale>
<asrwt>0</asrwt>
<pdfrwt beam="2">  1        2 0.31826637E-01 0.31546198E+03</pdfrwt>
<pdfrwt beam="1">  1       -2 0.99385892E-01 0.31546198E+03</pdfrwt>
<totfact> 0.14344381E+02</totfact>
</mgrwt>
</event>
<event>
12    1  0.4154313E-002  0.2611755E+03  0.7546771E-02  0.1106439E+00
          2   -1    0    0  502    0  0.00000000000E+00  0.00000000000E+00  0.26823062170E+04  0.26823062170E+04  0.00000000000E+00 0.  1.
         -2   -1    0    0    0  501 -0.00000000000E+00 -0.00000000000E+00 -0.27867459512E+02  0.27867459512E+02  0.00000000000E+00 0. -1.
          6    2    1    2  502    0  0.18214798477E+03 -0.61334377359E+02  0.93590742554E+03  0.97220745042E+03  0.17979105449E+03 0.  0.
         24    2    3    3    0    0  0.20605888413E+03 -0.65963023454E+02  0.89560976502E+03  0.92488782536E+03  0.80555906668E+02 0.  0.
         -6    2    1    2    0  501 -0.18214798477E+03  0.61334377359E+02  0.17185313319E+04  0.17379662260E+04  0.17388752094E+03 0.  0.
        -24    2    5    5    0    0 -0.10893658993E+03 -0.11257924723E+02  0.62606903036E+03  0.64063969262E+03  0.80391936754E+02 0.  0.
          5    1    3    3  502    0 -0.23910899363E+02  0.46286460952E+01  0.40297660518E+02  0.47319625065E+02  0.47000000000E+01 0. -1.
        -13    1    4    4    0    0  0.18918919083E+02 -0.18385642460E+02  0.23966703567E+03  0.24111458964E+03  0.00000000000E+00 0.  1.
         14    1    4    4    0    0  0.18713996505E+03 -0.47577380994E+02  0.65594272935E+03  0.68377323572E+03  0.00000000000E+00 0. -1.
         -5    1    5    5    0  501 -0.73211394843E+02  0.72592302082E+02  0.10924623016E+04  0.10973265334E+04  0.47000000000E+01 0.  1.
         13    1    6    6    0    0 -0.57042006964E+01  0.84960034487E+01  0.62903471039E+01  0.12012012607E+02  0.00000000000E+00 0. -1.
        -14    1    6    6    0    0 -0.10323238923E+03 -0.19753928172E+02  0.61977868325E+03  0.62862768001E+03  0.00000000000E+00 0.  1.
<mgrwt>
<rscale>  2 0.26117552E+03</rscale>
<asrwt>0</asrwt>
<pdfrwt beam="1">  1        2 0.41266229E+00 0.26117552E+03</pdfrwt>
<pdfrwt beam="2">  1       -2 0.42873036E-02 0.26117552E+03</pdfrwt>
<totfact> 0.78758471E+02</totfact>
</mgrwt>
</event>
<event>
12    1  0.4154313E-002  0.2088719E+03  0.7546771E-02  0.1142462E+00
         -2   -1    0    0    0  501 -0.00000000000E+00  0.00000000000E+00  0.12771940003E+02  0.12771940003E+02  0.00000000000E+00 0. -1.
          2   -1    0    0  502    0  0.00000000000E+00 -0.00000000000E+00 -0.34860825853E+04  0.34860825853E+04  0.00000000000E+00 0.  1.
          6    2    1    2  502    0  0.83870060877E+01  0.12907513640E+03 -0.15538651672E+04  0.15688240665E+04  0.17315097730E+03 0.  0.
         24    2    3    3    0    0  0.61063457930E+02  0.38728139067E+02 -0.92227479988E+03  0.92861638875E+03  0.80678226942E+02 0.  0.
         -6    2    1    2    0  501 -0.83870060877E+01 -0.12907513640E+03 -0.19194454781E+04  0.19300304588E+04  0.15497062943E+03 0.  0.
        -24    2    5    5    0    0 -0.14665107572E+02 -0.14431789653E+03 -0.13200419287E+04  0.13303818440E+04  0.79764883277E+02 0.  0.
          5    1    3    3  502    0 -0.52676451843E+02  0.90346997338E+02 -0.63159036732E+03  0.64020767771E+03  0.47000000000E+01 0. -1.
        -13    1    4    4    0    0  0.50202259802E+02 -0.69480933606E+01 -0.27428520412E+03  0.27892815579E+03  0.00000000000E+00 0.  1.
         14    1    4    4    0    0  0.10861198128E+02  0.45676232427E+02 -0.64798959576E+03  0.64968823296E+03  0.00000000000E+00 0. -1.
         -5    1    5    5    0  501  0.62781014846E+01  0.15242760125E+02 -0.59940354934E+03  0.59964861483E+03  0.47000000000E+01 0.  1.
         13    1    6    6    0    0 -0.22209755710E+02 -0.13806603554E+03 -0.13047334954E+04  0.13122061566E+04  0.00000000000E+00 0. -1.
        -14    1    6    6    0    0  0.75446481377E+01 -0.62518609941E+01 -0.15308433358E+02  0.18175687423E+02  0.00000000000E+00 0.  1.
<mgrwt>
<rscale>  2 0.20887190E+03</rscale>
<asrwt>0</asrwt>
<pdfrwt beam="2">  1        2 0.53632118E+00 0.20887190E+03</pdfrwt>
<pdfrwt beam="1">  1       -2 0.19649110E-02 0.20887190E+03</pdfrwt>
<totfact> 0.83525273E+02</totfact>
</mgrwt>
</event>
<event>
12    1  0.4154313E-002  0.2395181E+03  0.7546771E-02  0.1120114E+00
         -1   -1    0    0    0  501 -0.00000000000E+00  0.00000000000E+00  0.97087952608E+02  0.97087952608E+02  0.00000000000E+00 0.  1.
          1   -1    0    0  502    0  0.00000000000E+00 -0.00000000000E+00 -0.73016853782E+03  0.73016853782E+03  0.00000000000E+00 0. -1.
          6    2    1    2  502    0 -0.81841564867E+02  0.14335559142E+03 -0.49733755141E+03  0.55206979295E+03  0.17374564428E+03 0.  0.
         24    2    3    3    0    0 -0.48754769404E+02  0.15341511486E+03 -0.29761683718E+03  0.34932269990E+03  0.86817866155E+02 0.  0.
         -6    2    1    2    0  501  0.81841564867E+02 -0.14335559142E+03 -0.13574303380E+03  0.27518669748E+03  0.17335708787E+03 0.  0.
        -24    2    5    5    0    0  0.10905684821E+03 -0.94432259845E+02 -0.14353439715E+03  0.21846845207E+03  0.79470079540E+02 0.  0.
          5    1    3    3  502    0 -0.33086795463E+02 -0.10059523439E+02 -0.19972071423E+03  0.20274709305E+03  0.47000000000E+01 0. -1.
        -11    1    4    4    0    0 -0.55055872075E+02  0.10507637982E+03 -0.26591011941E+03  0.29117071668E+03  0.00000000000E+00 0.  1.
         12    1    4    4    0    0  0.63011026711E+01  0.48338735047E+02 -0.31706717765E+02  0.58151983219E+02  0.00000000000E+00 0. -1.
         -5    1    5    5    0  501 -0.27215283340E+02 -0.48923331579E+02  0.77913633528E+01  0.56718245415E+02  0.47000000000E+01 0.  1.
         11    1    6    6    0    0 -0.19178983000E+01 -0.14085196852E+02 -0.51482748898E+02  0.53409217729E+02  0.00000000000E+00 0. -1.
        -12    1    6    6    0    0  0.11097474651E+03 -0.80347062993E+02 -0.92051648256E+02  0.16505923434E+03  0.00000000000E+00 0.  1.
<mgrwt>
<rscale>  2 0.23951815E+03</rscale>
<asrwt>0</asrwt>
<pdfrwt beam="2">  1        1 0.11233362E+00 0.23951815E+03</pdfrwt>
<pdfrwt beam="1">  1       -1 0.14936608E-01 0.23951815E+03</pdfrwt>
<totfact> 0.85965321E+02</totfact>
</mgrwt>
</event>
<event>
12    1  0.4154313E-002  0.2522435E+03  0.7546771E-02  0.1111895E+00
         -2   -1    0    0    0  501 -0.00000000000E+00  0.00000000000E+00  0.36070849258E+03  0.36070849258E+03  0.00000000000E+00 0.  1.
          2   -1    0    0  502    0  0.00000000000E+00 -0.00000000000E+00 -0.36020120930E+03  0.36020120930E+03  0.00000000000E+00 0. -1.
          6    2    1    2  502    0 -0.18108852063E+03 -0.24815064540E+02 -0.25723571201E+03  0.36000185175E+03  0.17326939141E+03 0.  0.
         24    2    3    3    0    0 -0.10934871986E+03 -0.39008790678E+02 -0.69547118853E+02  0.15851448521E+03  0.82530067211E+02 0.  0.
         -6    2    1    2    0  501  0.18108852063E+03  0.24815064540E+02  0.25774299529E+03  0.36090785012E+03  0.17439663106E+03 0.  0.
        -24    2    5    5    0    0  0.17047991056E+03  0.21819932177E+02  0.27827904028E+03  0.33713112686E+03  0.81723087899E+02 0.  0.
          5    1    3    3  502    0 -0.71739800769E+02  0.14193726138E+02 -0.18768859316E+03  0.20148736655E+03  0.47000000000E+01 0. -1.
        -11    1    4    4    0    0 -0.14918319826E+02  0.81737979006E+01  0.15455258103E+02  0.22983303539E+02  0.00000000000E+00 0.  1.
         12    1    4    4    0    0 -0.94430400037E+02 -0.47182588579E+02 -0.85002376956E+02  0.13553118167E+03  0.00000000000E+00 0. -1.
         -5    1    5    5    0  501  0.10608610074E+02  0.29951323633E+01 -0.20536044986E+02  0.23776723265E+02  0.47000000000E+01 0.  1.
         13    1    6    6    0    0  0.43257727004E+02 -0.26270819201E+02  0.48384507703E+02  0.70017479765E+02  0.00000000000E+00 0. -1.
        -14    1    6    6    0    0  0.12722218355E+03  0.48090751378E+02  0.22989453257E+03  0.26711364709E+03  0.00000000000E+00 0.  1.
<mgrwt>
<rscale>  2 0.25224348E+03</rscale>
<asrwt>0</asrwt>
<pdfrwt beam="2">  1        2 0.55415571E-01 0.25224348E+03</pdfrwt>
<pdfrwt beam="1">  1       -2 0.55493614E-01 0.25224348E+03</pdfrwt>
<totfact> 0.28056906E+02</totfact>
</mgrwt>
</event>
<event>
12    1  0.4154313E-002  0.2462147E+03  0.7546771E-02  0.1115721E+00
         -2   -1    0    0    0  501 -0.00000000000E+00  0.00000000000E+00  0.12764245455E+03  0.12764245455E+03  0.00000000000E+00 0.  1.
          2   -1    0    0  502    0  0.00000000000E+00 -0.00000000000E+00 -0.79003710794E+03  0.79003710794E+03  0.00000000000E+00 0. -1.
          6    2    1    2  502    0  0.15490510480E+03 -0.87085394191E+02 -0.40215515993E+02  0.24799777155E+03  0.16824431519E+03 0.  0.
         24    2    3    3    0    0  0.12592497769E+03 -0.12584532738E+03 -0.30352272874E+02  0.19838372362E+03  0.82101735050E+02 0.  0.
         -6    2    1    2    0  501 -0.15490510480E+03  0.87085394191E+02 -0.62217913739E+03  0.66968179094E+03  0.17259016407E+03 0.  0.
        -24    2    5    5    0    0 -0.82725133615E+02  0.12092780998E+03 -0.46228670958E+03  0.49095592314E+03  0.76561959608E+02 0.  0.
          5    1    3    3  502    0  0.28980127103E+02  0.38759933185E+02 -0.98632431197E+01  0.49614047933E+02  0.47000000000E+01 0. -1.
        -11    1    4    4    0    0  0.15817159156E+02 -0.51541374969E+02  0.18278261147E+02  0.56927942945E+02  0.00000000000E+00 0.  1.
         12    1    4    4    0    0  0.11010781854E+03 -0.74303952408E+02 -0.48630534021E+02  0.14145578067E+03  0.00000000000E+00 0. -1.
         -5    1    5    5    0  501 -0.72179971182E+02 -0.33842415792E+02 -0.15989242782E+03  0.17872586780E+03  0.47000000000E+01 0.  1.
         11    1    6    6    0    0 -0.32438180433E+02  0.55116066442E+01 -0.16266254264E+03  0.16595697073E+03  0.00000000000E+00 0. -1.
        -12    1    6    6    0    0 -0.50286953182E+02  0.11541620334E+03 -0.29962416694E+03  0.32499895241E+03  0.00000000000E+00 0.  1.
<mgrwt>
<rscale>  2 0.24621472E+03</rscale>
<asrwt>0</asrwt>
<pdfrwt beam="2">  1        2 0.12154417E+00 0.24621472E+03</pdfrwt>
<pdfrwt beam="1">  1       -2 0.19637301E-01 0.24621472E+03</pdfrwt>
<totfact> 0.78515018E+02</totfact>
</mgrwt>
</event>
<event>
12    1  0.4154313E-002  0.1854244E+03  0.7546771E-02  0.1162654E+00
          1   -1    0    0  502    0  0.00000000000E+00  0.00000000000E+00  0.10222333916E+03  0.10222333916E+03  0.00000000000E+00 0. -1.
         -1   -1    0    0    0  501 -0.00000000000E+00 -0.00000000000E+00 -0.33866127384E+03  0.33866127384E+03  0.00000000000E+00 0.  1.
          6    2    1    2  502    0  0.36399340974E+02 -0.48483881966E+02 -0.98189008221E+02  0.20661167955E+03  0.17138175503E+03 0.  0.
         24    2    3    3    0    0  0.45047451729E+02  0.30070932784E+02 -0.78825307681E+02  0.12510897016E+03  0.80655386535E+02 0.  0.
         -6    2    1    2    0  501 -0.36399340974E+02  0.48483881966E+02 -0.13824892646E+03  0.23427293345E+03  0.17915201045E+03 0.  0.
        -24    2    5    5    0    0  0.13065203539E+02  0.15797675545E+02 -0.15444425297E+01  0.85191294139E+02  0.82673485461E+02 0.  0.
          5    1    3    3  502    0 -0.86481107551E+01 -0.78554814751E+02 -0.19363700540E+02  0.81502709395E+02  0.47000000000E+01 0. -1.
        -11    1    4    4    0    0 -0.18433381946E+02  0.27849231848E+02 -0.23072992460E+02  0.40592268544E+02  0.00000000000E+00 0.  1.
         12    1    4    4    0    0  0.63480833675E+02  0.22217009366E+01 -0.55752315222E+02  0.84516701614E+02  0.00000000000E+00 0. -1.
         -5    1    5    5    0  501 -0.49464544513E+02  0.32686206421E+02 -0.13670448393E+03  0.14908163931E+03  0.47000000000E+01 0.  1.
         13    1    6    6    0    0  0.47747429501E+02  0.15179813759E+02  0.30787169032E+01  0.50196835234E+02  0.00000000000E+00 0. -1.
        -14    1    6    6    0    0 -0.34682225962E+02  0.61786178602E+00 -0.46231594330E+01  0.34994458905E+02  0.00000000000E+00 0.  1.
<mgrwt>
<rscale>  2 0.18542441E+03</rscale>
<asrwt>0</asrwt>
<pdfrwt beam="1">  1        1 0.15726668E-01 0.18542441E+03</pdfrwt>
<pdfrwt beam="2">  1       -1 0.52101733E-01 0.18542441E+03</pdfrwt>
<totfact> 0.13188243E+03</totfact>
</mgrwt>
</event>
<event>
12    1  0.4154313E-002  0.1948203E+03  0.7546771E-02  0.1154184E+00
         -2   -1    0    0    0  501 -0.00000000000E+00  0.00000000000E+00  0.45174948341E+03  0.45174948341E+03  0.00000000000E+00 0.  1.
          2   -1    0    0  502    0  0.00000000000E+00 -0.00000000000E+00 -0.84658001193E+02  0.84658001193E+02  0.00000000000E+00 0. -1.
          6    2    1    2  502    0 -0.48117616149E+02  0.75985307721E+02  0.15941391195E+03  0.25103647398E+03  0.17180641424E+03 0.  0.
         24    2    3    3    0    0 -0.98013781120E+02  0.63680348415E+02  0.11944119951E+03  0.18576054395E+03  0.81110366065E+02 0.  0.
         -6    2    1    2    0  501  0.48117616149E+02 -0.75985307721E+02  0.20767757026E+03  0.28537101062E+03  0.17383201240E+03 0.  0.
        -24    2    5    5    0    0  0.17130040383E+02  0.87359506471E+01  0.10111230381E+03  0.14567073328E+03  0.10308496223E+03 0.  0.
          5    1    3    3  502    0  0.49896164971E+02  0.12304959306E+02  0.39972712438E+02  0.65275930035E+02  0.47000000000E+01 0. -1.
        -13    1    4    4    0    0 -0.88322022463E+02  0.19363190459E+02  0.10406845139E+03  0.13786208823E+03  0.00000000000E+00 0.  1.
         14    1    4    4    0    0 -0.96917586567E+01  0.44317157956E+02  0.15372748121E+02  0.47898455716E+02  0.00000000000E+00 0. -1.
         -5    1    5    5    0  501  0.30987575766E+02 -0.84721258368E+02  0.10656526646E+03  0.13970027733E+03  0.47000000000E+01 0.  1.
         11    1    6    6    0    0 -0.25225819597E+02 -0.35263685826E+02  0.48559624152E+02  0.65099205911E+02  0.00000000000E+00 0. -1.
        -12    1    6    6    0    0  0.42355859979E+02  0.43999636473E+02  0.52552679654E+02  0.80571527373E+02  0.00000000000E+00 0.  1.
<mgrwt>
<rscale>  2 0.19482034E+03</rscale>
<asrwt>0</asrwt>
<pdfrwt beam="2">  1        2 0.13024308E-01 0.19482034E+03</pdfrwt>
<pdfrwt beam="1">  1       -2 0.69499919E-01 0.19482034E+03</pdfrwt>
<totfact> 0.88775204E+02</totfact>
</mgrwt>
</event>
<event>
12    1  0.4154313E-002  0.1700451E+03  0.7546771E-02  0.1177801E+00
         -4   -1    0    0    0  501 -0.00000000000E+00  0.00000000000E+00  0.28021959108E+02  0.28021959108E+02  0.00000000000E+00 0. -1.
          4   -1    0    0  502    0  0.00000000000E+00 -0.00000000000E+00 -0.11944144296E+04  0.11944144296E+04  0.00000000000E+00 0.  1.
          6    2    1    2  502    0  0.33338482225E+02 -0.10574076796E+02 -0.78892200642E+03  0.80576275731E+03  0.16010129094E+03 0.  0.
         24    2    3    3    0    0 -0.25573987026E+02  0.24011213660E+02 -0.55928060608E+03  0.56612952903E+03  0.80481551318E+02 0.  0.
         -6    2    1    2    0  501 -0.33338482225E+02  0.10574076796E+02 -0.37747046402E+03  0.41667363135E+03  0.17294420590E+03 0.  0.
        -24    2    5    5    0    0  0.78467905895E+01  0.67931319211E+02 -0.23256576733E+03  0.25541129514E+03  0.80447854544E+02 0.  0.
          5    1    3    3  502    0  0.58912469251E+02 -0.34585290456E+02 -0.22964140034E+03  0.23963322829E+03  0.47000000000E+01 0. -1.
        -13    1    4    4    0    0  0.20094148302E+02  0.31793486589E+02 -0.33566615215E+03  0.33776673353E+03  0.00000000000E+00 0.  1.
         14    1    4    4    0    0 -0.45668135328E+02 -0.77822729285E+01 -0.22361445393E+03  0.22836279549E+03  0.00000000000E+00 0. -1.
         -5    1    5    5    0  501 -0.41185272815E+02 -0.57357242415E+02 -0.14490469669E+03  0.16126233620E+03  0.47000000000E+01 0.  1.
         11    1    6    6    0    0 -0.21620417809E+02  0.40906655043E+02 -0.48410292920E+02  0.66965314556E+02  0.00000000000E+00 0. -1.
        -12    1    6    6    0    0  0.29467208399E+02  0.27024664168E+02 -0.18415547441E+03  0.18844598059E+03  0.00000000000E+00 0.  1.
<mgrwt>
<rscale>  2 0.17004513E+03</rscale>
<asrwt>0</asrwt>
<pdfrwt beam="2">  1        4 0.18375615E+00 0.17004513E+03</pdfrwt>
<pdfrwt beam="1">  1       -4 0.43110688E-02 0.17004513E+03</pdfrwt>
<totfact> 0.97629856E+01</totfact>
</mgrwt>
</event>
<event>
11    1  0.4154313E-002  0.1789898E+03  0.7546771E-02  0.1168784E+00
          2   -1    0    0  502    0  0.00000000000E+00  0.00000000000E+00  0.61302499288E+03  0.61302499288E+03  0.00000000000E+00 0.  1.
         -2   -1    0    0    0  501 -0.00000000000E+00 -0.00000000000E+00 -0.52280287106E+02  0.52280287106E+02  0.00000000000E+00 0. -1.
          6    2    1    2  502    0  0.58774646942E+02  0.15121451683E+01  0.27746782349E+03  0.32846746383E+03  0.16566754666E+03 0.  0.
         -6    2    1    2    0  501 -0.58774646942E+02 -0.15121451683E+01  0.28327688229E+03  0.33683781616E+03  0.17250268592E+03 0.  0.
        -24    2    4    4    0    0  0.10781737665E+02 -0.24907373523E+02  0.23150786072E+03  0.24690701530E+03  0.81428259876E+02 0.  0.
          5    1    3    3  502    0  0.93959410232E+02  0.53227717657E+02  0.16111044144E+03  0.19401088897E+03  0.47000000000E+01 0. -1.
        -13    1    3    3    0    0 -0.28018585614E+02 -0.51911652771E+02  0.11024660881E+03  0.12503669697E+03  0.00000000000E+00 0.  1.
         14    1    3    3    0    0 -0.71661776760E+01  0.19608028161E+00  0.61107732356E+01  0.94198778918E+01  0.00000000000E+00 0. -1.
         -5    1    4    4    0  501 -0.69556384607E+02  0.23395228355E+02  0.51769021568E+02  0.89930800861E+02  0.47000000000E+01 0.  1.
         13    1    5    5    0    0  0.47853190342E+00 -0.53191057126E+02  0.17467072235E+03  0.18259074127E+03  0.00000000000E+00 0. -1.
        -14    1    5    5    0    0  0.10303205762E+02  0.28283683603E+02  0.56837138365E+02  0.64316274026E+02  0.00000000000E+00 0.  1.
<mgrwt>
<rscale>  2 0.17898984E+03</rscale>
<asrwt>0</asrwt>
<pdfrwt beam="1">  1        2 0.94311532E-01 0.17898984E+03</pdfrwt>
<pdfrwt beam="2">  1       -2 0.80431215E-02 0.17898984E+03</pdfrwt>
<totfact> 0.45237425E+03</totfact>
</mgrwt>
</event>
<event>
12    1  0.4154313E-002  0.1765527E+03  0.7546771E-02  0.1171182E+00
         -2   -1    0    0    0  501 -0.00000000000E+00  0.00000000000E+00  0.24863865894E+02  0.24863865894E+02  0.00000000000E+00 0. -1.
          2   -1    0    0  502    0  0.00000000000E+00 -0.00000000000E+00 -0.12539214826E+04  0.12539214826E+04  0.00000000000E+00 0.  1.
          6    2    1    2  502    0  0.35208372473E+02  0.64246878696E+01 -0.60221394591E+03  0.62722346922E+03  0.17165878245E+03 0.  0.
         24    2    3    3    0    0  0.70790370696E+02  0.49950271099E+02 -0.40731672033E+03  0.42432553051E+03  0.81479684722E+02 0.  0.
         -6    2    1    2    0  501 -0.35208372473E+02 -0.64246878696E+01 -0.62684367084E+03  0.65156187931E+03  0.17412348720E+03 0.  0.
        -24    2    5    5    0    0 -0.84694259085E+02  0.21085108628E+02 -0.50278984813E+03  0.51511744811E+03  0.70218620298E+02 0.  0.
          5    1    3    3  502    0 -0.35581998223E+02 -0.43525583229E+02 -0.19489722558E+03  0.20289793871E+03  0.47000000000E+01 0. -1.
        -11    1    4    4    0    0  0.12966991349E+02 -0.13381052921E+02 -0.18669370022E+03  0.18762124918E+03  0.00000000000E+00 0.  1.
         12    1    4    4    0    0  0.57823379347E+02  0.63331324020E+02 -0.22062302011E+03  0.23670428134E+03  0.00000000000E+00 0. -1.
         -5    1    5    5    0  501  0.49485886611E+02 -0.27509796498E+02 -0.12405382271E+03  0.13644443120E+03  0.47000000000E+01 0.  1.
         13    1    6    6    0    0 -0.42354630835E+02 -0.69012696287E+01 -0.95762835655E+02  0.10493837700E+03  0.00000000000E+00 0. -1.
        -14    1    6    6    0    0 -0.42339628250E+02  0.27986378257E+02 -0.40702701248E+03  0.41017907111E+03  0.00000000000E+00 0.  1.
<mgrwt>
<rscale>  2 0.17655270E+03</rscale>
<asrwt>0</asrwt>
<pdfrwt beam="2">  1        2 0.19291098E+00 0.17655270E+03</pdfrwt>
<pdfrwt beam="1">  1       -2 0.38252106E-02 0.17655270E+03</pdfrwt>
<totfact> 0.54110203E+03</totfact>
</mgrwt>
</event>
<event>
12    1  0.4154313E-002  0.1781331E+03  0.7546771E-02  0.1169622E+00
          2   -1    0    0  502    0  0.00000000000E+00  0.00000000000E+00  0.52148734535E+03  0.52148734535E+03  0.00000000000E+00 0.  1.
         -2   -1    0    0    0  501 -0.00000000000E+00 -0.00000000000E+00 -0.98059642591E+02  0.98059642591E+02  0.00000000000E+00 0. -1.
          6    2    1    2  502    0  0.27560183541E+02 -0.10812202840E+02  0.20713396846E+02  0.17909903862E+03  0.17541651398E+03 0.  0.
         24    2    3    3    0    0  0.52962732094E+02 -0.44479931392E+01  0.68061694338E+02  0.12478749368E+03  0.90081566976E+02 0.  0.
         -6    2    1    2    0  501 -0.27560183541E+02  0.10812202840E+02  0.40271430591E+03  0.44044794932E+03  0.17589518592E+03 0.  0.
        -24    2    5    5    0    0 -0.77458066409E+01 -0.61300501278E+02  0.20586297336E+03  0.22981701913E+03  0.81354468244E+02 0.  0.
          5    1    3    3  502    0 -0.25402548553E+02 -0.63642097006E+01 -0.47348297492E+02  0.54311544937E+02  0.47000000000E+01 0. -1.
        -13    1    4    4    0    0  0.16268684522E+01  0.26510023835E+02  0.58279850770E+02  0.64046616386E+02  0.00000000000E+00 0.  1.
         14    1    4    4    0    0  0.51335863642E+02 -0.30958016975E+02  0.97818435680E+01  0.60740877294E+02  0.00000000000E+00 0. -1.
         -5    1    5    5    0  501 -0.19814376900E+02  0.72112704117E+02  0.19685133255E+03  0.21063093019E+03  0.47000000000E+01 0.  1.
         11    1    6    6    0    0  0.31212665192E+02 -0.95865853706E+01  0.10501282957E+03  0.10997193943E+03  0.00000000000E+00 0. -1.
        -12    1    6    6    0    0 -0.38958471833E+02 -0.51713915907E+02  0.10085014380E+03  0.11984507971E+03  0.00000000000E+00 0.  1.
<mgrwt>
<rscale>  2 0.17813307E+03</rscale>
<asrwt>0</asrwt>
<pdfrwt beam="1">  1        2 0.80228821E-01 0.17813307E+03</pdfrwt>
<pdfrwt beam="2">  1       -2 0.15086099E-01 0.17813307E+03</pdfrwt>
<totfact> 0.19910477E+03</totfact>
</mgrwt>
</event>
<event>
12    1  0.4154313E-002  0.1742149E+03  0.7546771E-02  0.1173522E+00
          2   -1    0    0  502    0  0.00000000000E+00  0.00000000000E+00  0.17956702694E+04  0.17956702694E+04  0.00000000000E+00 0. -1.
         -2   -1    0    0    0  501 -0.00000000000E+00 -0.00000000000E+00 -0.18991408511E+02  0.18991408511E+02  0.00000000000E+00 0.  1.
          6    2    1    2  502    0  0.19182083506E+02 -0.10956901930E+01  0.58889895429E+03  0.61422109366E+03  0.17348319996E+03 0.  0.
         24    2    3    3    0    0  0.26012265409E+02  0.52826904228E+02  0.22154661339E+03  0.24283971295E+03  0.80130546725E+02 0.  0.
         -6    2    1    2    0  501 -0.19182083506E+02  0.10956901930E+01  0.11877799066E+04  0.12004405843E+04  0.17282169116E+03 0.  0.
        -24    2    5    5    0    0 -0.68828822965E+02  0.37119519064E+02  0.77647052562E+03  0.78455597060E+03  0.80661814338E+02 0.  0.
          5    1    3    3  502    0 -0.68301819028E+01 -0.53922594421E+02  0.36735234090E+03  0.37138138071E+03  0.47000000000E+01 0. -1.
        -13    1    4    4    0    0 -0.10296691418E+02 -0.60623578663E+01  0.13431153442E+01  0.12024059044E+02  0.00000000000E+00 0.  1.
         14    1    4    4    0    0  0.36308956827E+02  0.58889262094E+02  0.22020349805E+03  0.23081565391E+03  0.00000000000E+00 0. -1.
         -5    1    5    5    0  501  0.49646739459E+02 -0.36023828871E+02  0.41130938099E+03  0.41588461366E+03  0.47000000000E+01 0.  1.
         11    1    6    6    0    0 -0.72370733467E+02  0.16743804878E+02  0.36059777724E+03  0.36816930211E+03  0.00000000000E+00 0. -1.
        -12    1    6    6    0    0  0.35419105023E+01  0.20375714186E+02  0.41587274837E+03  0.41638666849E+03  0.00000000000E+00 0.  1.
<mgrwt>
<rscale>  2 0.17421485E+03</rscale>
<asrwt>0</asrwt>
<pdfrwt beam="1">  1        2 0.27625683E+00 0.17421485E+03</pdfrwt>
<pdfrwt beam="2">  1       -2 0.29217566E-02 0.17421485E+03</pdfrwt>
<totfact> 0.41768279E+03</totfact>
</mgrwt>
</event>
<event>
12    1  0.4154313E-002  0.2514395E+03  0.7546771E-02  0.1112398E+00
         -2   -1    0    0    0  501 -0.00000000000E+00  0.00000000000E+00  0.11626057406E+03  0.11626057406E+03  0.00000000000E+00 0. -1.
          2   -1    0    0  502    0  0.00000000000E+00 -0.00000000000E+00 -0.60144553757E+03  0.60144553757E+03  0.00000000000E+00 0.  1.
          6    2    1    2  502    0 -0.18162579152E+03 -0.21914473151E+02 -0.13138760178E+03  0.28359355092E+03  0.17232071246E+03 0.  0.
         24    2    3    3    0    0 -0.16392873004E+03 -0.54066335879E+02 -0.54638552147E+02  0.19839123357E+03  0.81104333844E+02 0.  0.
         -6    2    1    2    0  501  0.18162579152E+03  0.21914473151E+02 -0.35379736173E+03  0.43411256071E+03  0.17266432729E+03 0.  0.
        -24    2    5    5    0    0  0.78130158160E+02 -0.48530113777E+02 -0.21224873974E+03  0.24508375777E+03  0.80975473115E+02 0.  0.
          5    1    3    3  502    0 -0.17697061477E+02  0.32151862728E+02 -0.76749049634E+02  0.85202317348E+02  0.47000000000E+01 0. -1.
        -13    1    4    4    0    0 -0.82773825276E+02 -0.52250486506E+02 -0.63584594048E+02  0.11672454794E+03  0.00000000000E+00 0.  1.
         14    1    4    4    0    0 -0.81154904766E+02 -0.18158493729E+01  0.89460419015E+01  0.81666685632E+02  0.00000000000E+00 0. -1.
         -5    1    5    5    0  501  0.10349563336E+03  0.70444586928E+02 -0.14154862199E+03  0.18902880294E+03  0.47000000000E+01 0.  1.
         13    1    6    6    0    0 -0.15222196391E+02 -0.11731921167E+02 -0.57708646453E+02  0.60824675195E+02  0.00000000000E+00 0. -1.
        -14    1    6    6    0    0  0.93352354551E+02 -0.36798192610E+02 -0.15454009329E+03  0.18425908258E+03  0.00000000000E+00 0.  1.
<mgrwt>
<rscale>  2 0.25143954E+03</rscale>
<asrwt>0</asrwt>
<pdfrwt beam="2">  1        2 0.92530084E-01 0.25143954E+03</pdfrwt>
<pdfrwt beam="1">  1       -2 0.17886242E-01 0.25143954E+03</pdfrwt>
<totfact> 0.12808586E+03</totfact>
</mgrwt>
</event>
<event>
12    1  0.4154313E-002  0.2140174E+03  0.7546771E-02  0.1138424E+00
         -2   -1    0    0    0  501 -0.00000000000E+00  0.00000000000E+00  0.12061681654E+03  0.12061681654E+03  0.00000000000E+00 0. -1.
          2   -1    0    0  502    0  0.00000000000E+00 -0.00000000000E+00 -0.43982546677E+03  0.43982546677E+03  0.00000000000E+00 0.  1.
          6    2    1    2  502    0 -0.17511503974E+02 -0.12720684652E+03 -0.57310731718E+02  0.22343572470E+03  0.17363976656E+03 0.  0.
         24    2    3    3    0    0 -0.35229348975E+02 -0.97951297863E+02  0.24773945558E+02  0.13438633727E+03  0.81304215659E+02 0.  0.
         -6    2    1    2    0  501  0.17511503974E+02  0.12720684652E+03 -0.26189791851E+03  0.33700655861E+03  0.16880363223E+03 0.  0.
        -24    2    5    5    0    0 -0.30801902353E+00  0.94282520020E+02 -0.27120814427E+03  0.29814376176E+03  0.80290452126E+02 0.  0.
          5    1    3    3  502    0  0.17717845001E+02 -0.29255548659E+02 -0.82084677276E+02  0.89049387434E+02  0.47000000000E+01 0. -1.
        -13    1    4    4    0    0 -0.17897780168E+02 -0.83059696722E+02 -0.17112649779E+02  0.86672293941E+02  0.00000000000E+00 0.  1.
         14    1    4    4    0    0 -0.17331568807E+02 -0.14891601141E+02  0.41886595337E+02  0.47714043329E+02  0.00000000000E+00 0. -1.
         -5    1    5    5    0  501  0.17819522998E+02  0.32924326502E+02  0.93102257586E+01  0.38862796852E+02  0.47000000000E+01 0.  1.
         11    1    6    6    0    0 -0.15159966857E+02  0.44133700934E+02 -0.41154760000E+02  0.62219951976E+02  0.00000000000E+00 0. -1.
        -12    1    6    6    0    0  0.14851947833E+02  0.50148819086E+02 -0.23005338427E+03  0.23592380979E+03  0.00000000000E+00 0.  1.
<mgrwt>
<rscale>  2 0.21401745E+03</rscale>
<asrwt>0</asrwt>
<pdfrwt beam="2">  1        2 0.67665456E-01 0.21401745E+03</pdfrwt>
<pdfrwt beam="1">  1       -2 0.18556433E-01 0.21401745E+03</pdfrwt>
<totfact> 0.17086504E+03</totfact>
</mgrwt>
</event>
<event>
12    1  0.4154313E-002  0.1832385E+03  0.7546771E-02  0.1164705E+00
          2   -1    0    0  502    0  0.00000000000E+00  0.00000000000E+00  0.25708569345E+04  0.25708569345E+04  0.00000000000E+00 0.  1.
         -2   -1    0    0    0  501 -0.00000000000E+00 -0.00000000000E+00 -0.17321143526E+02  0.17321143526E+02  0.00000000000E+00 0. -1.
          6    2    1    2  502    0 -0.20912771499E+02  0.32441893442E+02  0.68989622736E+03  0.71645950847E+03  0.18938743963E+03 0.  0.
         24    2    3    3    0    0 -0.12633723099E+02 -0.49265016366E+02  0.50860019650E+03  0.51737434438E+03  0.80096189369E+02 0.  0.
         -6    2    1    2    0  501  0.20912771499E+02 -0.32441893442E+02  0.18636395636E+04  0.18717185696E+04  0.16937579549E+03 0.  0.
        -24    2    5    5    0    0 -0.13150770448E+02 -0.35987515768E+02  0.51330565654E+03  0.52094225687E+03  0.80187866294E+02 0.  0.
          5    1    3    3  502    0 -0.82790484002E+01  0.81706909808E+02  0.18129603086E+03  0.19908516409E+03  0.47000000000E+01 0. -1.
        -11    1    4    4    0    0  0.28305059402E+02 -0.43861371630E+02  0.32683698546E+03  0.33097947274E+03  0.00000000000E+00 0.  1.
         12    1    4    4    0    0 -0.40938782500E+02 -0.54036447364E+01  0.18176321103E+03  0.18639487164E+03  0.00000000000E+00 0. -1.
         -5    1    5    5    0  501  0.34063541947E+02  0.35456223269E+01  0.13503339071E+04  0.13507763127E+04  0.47000000000E+01 0.  1.
         11    1    6    6    0    0 -0.41823416637E+02 -0.63744789484E+01  0.17063672924E+03  0.17580308737E+03  0.00000000000E+00 0. -1.
        -12    1    6    6    0    0  0.28672646189E+02 -0.29613036820E+02  0.34266892730E+03  0.34513916950E+03  0.00000000000E+00 0.  1.
<mgrwt>
<rscale>  2 0.18323852E+03</rscale>
<asrwt>0</asrwt>
<pdfrwt beam="1">  1        2 0.39551615E+00 0.18323852E+03</pdfrwt>
<pdfrwt beam="2">  1       -2 0.26647934E-02 0.18323852E+03</pdfrwt>
<totfact> 0.18717928E+03</totfact>
</mgrwt>
</event>
<event>
12    1  0.4154313E-002  0.2114056E+03  0.7546771E-02  0.1140458E+00
          1   -1    0    0  502    0  0.00000000000E+00  0.00000000000E+00  0.28726765114E+04  0.28726765114E+04  0.00000000000E+00 0.  1.
         -1   -1    0    0    0  501 -0.00000000000E+00 -0.00000000000E+00 -0.26499429957E+02  0.26499429957E+02  0.00000000000E+00 0. -1.
          6    2    1    2  502    0 -0.92497850177E+02  0.80959421448E+02  0.23479285800E+04  0.23572788068E+04  0.16995433477E+03 0.  0.
         24    2    3    3    0    0 -0.10766320165E+03  0.28278984383E+02  0.20216957682E+04  0.20264387339E+04  0.82517253426E+02 0.  0.
         -6    2    1    2    0  501  0.92497850177E+02 -0.80959421448E+02  0.49824850143E+03  0.54189713456E+03  0.17404210715E+03 0.  0.
        -24    2    5    5    0    0  0.11257788258E+03 -0.86617525142E+02  0.49384319781E+03  0.52006324946E+03  0.80051883855E+02 0.  0.
          5    1    3    3  502    0  0.15165351468E+02  0.52680437065E+02  0.32623281185E+03  0.33084007294E+03  0.47000000000E+01 0. -1.
        -13    1    4    4    0    0 -0.41510383399E+02 -0.15858277016E+02  0.12198355538E+04  0.12206446556E+04  0.00000000000E+00 0.  1.
         14    1    4    4    0    0 -0.66152818246E+02  0.44137261399E+02  0.80186021437E+03  0.80579407828E+03  0.00000000000E+00 0. -1.
         -5    1    5    5    0  501 -0.20080032398E+02  0.56581036940E+01  0.44053036146E+01  0.21833885098E+02  0.47000000000E+01 0.  1.
         11    1    6    6    0    0  0.60597879263E+02 -0.87263995657E+02  0.26745623637E+03  0.28778454837E+03  0.00000000000E+00 0. -1.
        -12    1    6    6    0    0  0.51980003313E+02  0.64647051444E+00  0.22638696144E+03  0.23227870109E+03  0.00000000000E+00 0.  1.
<mgrwt>
<rscale>  2 0.21140557E+03</rscale>
<asrwt>0</asrwt>
<pdfrwt beam="1">  1        1 0.44194999E+00 0.21140557E+03</pdfrwt>
<pdfrwt beam="2">  1       -1 0.40768376E-02 0.21140557E+03</pdfrwt>
<totfact> 0.21553216E+02</totfact>
</mgrwt>
</event>
<event>
12    1  0.4154313E-002  0.2329097E+03  0.7546771E-02  0.1124608E+00
          1   -1    0    0  502    0  0.00000000000E+00  0.00000000000E+00  0.26656334150E+03  0.26656334150E+03  0.00000000000E+00 0. -1.
         -1   -1    0    0    0  501 -0.00000000000E+00 -0.00000000000E+00 -0.50880629688E+03  0.50880629688E+03  0.00000000000E+00 0.  1.
          6    2    1    2  502    0 -0.39541342461E+02 -0.14872849786E+03 -0.42138071479E+03  0.48135198461E+03  0.17451172584E+03 0.  0.
         24    2    3    3    0    0 -0.64273434959E+02 -0.16314352049E+03 -0.30065151810E+03  0.35718637661E+03  0.80273841208E+02 0.  0.
         -6    2    1    2    0  501  0.39541342461E+02  0.14872849786E+03  0.17913775940E+03  0.29401765377E+03  0.17513526214E+03 0.  0.
        -24    2    5    5    0    0  0.27930602486E+02  0.15774810950E+03  0.19980672346E+03  0.26822116656E+03  0.79720027864E+02 0.  0.
          5    1    3    3  502    0  0.24732092497E+02  0.14415022634E+02 -0.12072919669E+03  0.12416560800E+03  0.47000000000E+01 0. -1.
        -13    1    4    4    0    0 -0.10412195281E+02 -0.10675227301E+03 -0.22134466786E+03  0.24596325659E+03  0.00000000000E+00 0.  1.
         14    1    4    4    0    0 -0.53861239678E+02 -0.56391247481E+02 -0.79306850240E+02  0.11122312002E+03  0.00000000000E+00 0. -1.
         -5    1    5    5    0  501  0.11610739975E+02 -0.90196116473E+01 -0.20668964061E+02  0.25796487210E+02  0.47000000000E+01 0.  1.
         11    1    6    6    0    0  0.52026137237E+02  0.80984747464E+02  0.87597282043E+02  0.13014811600E+03  0.00000000000E+00 0. -1.
        -12    1    6    6    0    0 -0.24095534751E+02  0.76763362039E+02  0.11220944142E+03  0.13807305056E+03  0.00000000000E+00 0.  1.
<mgrwt>
<rscale>  2 0.23290969E+03</rscale>
<asrwt>0</asrwt>
<pdfrwt beam="1">  1        1 0.41009746E-01 0.23290969E+03</pdfrwt>
<pdfrwt beam="2">  1       -1 0.78277891E-01 0.23290969E+03</pdfrwt>
<totfact> 0.17597957E+02</totfact>
</mgrwt>
</event>
<event>
12    1  0.4154313E-002  0.2556556E+03  0.7546771E-02  0.1109782E+00
          1   -1    0    0  502    0  0.00000000000E+00  0.00000000000E+00  0.16566474171E+03  0.16566474171E+03  0.00000000000E+00 0. -1.
         -1   -1    0    0    0  501 -0.00000000000E+00 -0.00000000000E+00 -0.46876575639E+03  0.46876575639E+03  0.00000000000E+00 0.  1.
          6    2    1    2  502    0 -0.12700672794E+03  0.13783357214E+03 -0.27760016381E+03  0.37713721737E+03  0.17332578350E+03 0.  0.
         24    2    3    3    0    0  0.36678187860E+01  0.77290111965E+02 -0.13613898641E+03  0.17520974909E+03  0.78596553706E+02 0.  0.
         -6    2    1    2    0  501  0.12700672794E+03 -0.13783357214E+03 -0.25500850863E+02  0.25729328072E+03  0.17441541319E+03 0.  0.
        -24    2    5    5    0    0  0.10563752495E+03 -0.36011216353E+02  0.27296554568E+02  0.14052817037E+03  0.80913351165E+02 0.  0.
          5    1    3    3  502    0 -0.13067454673E+03  0.60543460177E+02 -0.14146117740E+03  0.20192746828E+03  0.47000000000E+01 0. -1.
        -13    1    4    4    0    0 -0.79305574314E+01  0.66347624385E+02 -0.40254630135E+02  0.78008565235E+02  0.00000000000E+00 0.  1.
         14    1    4    4    0    0  0.11598376217E+02  0.10942487581E+02 -0.95884356275E+02  0.97201183859E+02  0.00000000000E+00 0. -1.
         -5    1    5    5    0  501  0.21369202992E+02 -0.10182235579E+03 -0.52797405431E+02  0.11676511035E+03  0.47000000000E+01 0.  1.
         13    1    6    6    0    0  0.84651505697E+02 -0.40391271171E+02 -0.13188988693E+02  0.94716849749E+02  0.00000000000E+00 0. -1.
        -14    1    6    6    0    0  0.20986019251E+02  0.43800548175E+01  0.40485543261E+02  0.45811320624E+02  0.00000000000E+00 0.  1.
<mgrwt>
<rscale>  2 0.25565565E+03</rscale>
<asrwt>0</asrwt>
<pdfrwt beam="1">  1        1 0.25486883E-01 0.25565565E+03</pdfrwt>
<pdfrwt beam="2">  1       -1 0.72117808E-01 0.25565565E+03</pdfrwt>
<totfact> 0.37858915E+02</totfact>
</mgrwt>
</event>
<event>
12    1  0.4154313E-002  0.2284188E+03  0.7546771E-02  0.1127758E+00
         -2   -1    0    0    0  501 -0.00000000000E+00  0.00000000000E+00  0.15076710917E+03  0.15076710917E+03  0.00000000000E+00 0.  1.
          2   -1    0    0  502    0  0.00000000000E+00 -0.00000000000E+00 -0.34667302847E+03  0.34667302847E+03  0.00000000000E+00 0. -1.
          6    2    1    2  502    0  0.13408611530E+03  0.65357682781E+02 -0.87864175948E+02  0.24539475177E+03  0.17391882522E+03 0.  0.
         24    2    3    3    0    0  0.11452650036E+03  0.33554532628E+02  0.61779253694E+01  0.14410296673E+03  0.80531188457E+02 0.  0.
         -6    2    1    2    0  501 -0.13408611530E+03 -0.65357682781E+02 -0.10804174335E+03  0.25204538587E+03  0.17205564570E+03 0.  0.
        -24    2    5    5    0    0 -0.14107115861E+03 -0.36546773266E+02 -0.13134417720E+03  0.21404600745E+03  0.85601763971E+02 0.  0.
          5    1    3    3  502    0  0.19559614943E+02  0.31803150152E+02 -0.94042101318E+02  0.10129178504E+03  0.47000000000E+01 0. -1.
        -11    1    4    4    0    0 -0.47832358491E+01  0.23784945225E+02  0.11475417881E+01  0.24288264999E+02  0.00000000000E+00 0.  1.
         12    1    4    4    0    0  0.11930973621E+03  0.97695874037E+01  0.50303835813E+01  0.11981470173E+03  0.00000000000E+00 0. -1.
         -5    1    5    5    0  501  0.69850433075E+01 -0.28810909515E+02  0.23302433849E+02  0.37999378421E+02  0.47000000000E+01 0.  1.
         13    1    6    6    0    0 -0.12824426253E+02 -0.90806014752E+01 -0.65370689014E+02  0.67232806085E+02  0.00000000000E+00 0. -1.
        -14    1    6    6    0    0 -0.12824673235E+03 -0.27466171791E+02 -0.65973488185E+02  0.14681320137E+03  0.00000000000E+00 0.  1.
<mgrwt>
<rscale>  2 0.22841885E+03</rscale>
<asrwt>0</asrwt>
<pdfrwt beam="2">  1        2 0.53334311E-01 0.22841885E+03</pdfrwt>
<pdfrwt beam="1">  1       -2 0.23194940E-01 0.22841885E+03</pdfrwt>
<totfact> 0.15098469E+03</totfact>
</mgrwt>
</event>
<event>
12    1  0.4154313E-002  0.2114798E+03  0.7546771E-02  0.1140400E+00
         -1   -1    0    0    0  501 -0.00000000000E+00  0.00000000000E+00  0.10573545207E+03  0.10573545207E+03  0.00000000000E+00 0.  1.
          1   -1    0    0  502    0  0.00000000000E+00 -0.00000000000E+00 -0.68785445628E+03  0.68785445628E+03  0.00000000000E+00 0. -1.
          6    2    1    2  502    0 -0.27095491922E+02  0.11289442473E+03 -0.53917104262E+03  0.57999604570E+03  0.17947334903E+03 0.  0.
         24    2    3    3    0    0 -0.13240339458E+02  0.10585978169E+03 -0.20156075569E+03  0.24199567988E+03  0.80954128245E+02 0.  0.
         -6    2    1    2    0  501  0.27095491922E+02 -0.11289442473E+03 -0.42947961591E+02  0.21359386266E+03  0.17406462577E+03 0.  0.
        -24    2    5    5    0    0 -0.42325021491E+02 -0.69239515482E+02 -0.61130953687E+02  0.12946497353E+03  0.80241310590E+02 0.  0.
          5    1    3    3  502    0 -0.13855152464E+02  0.70346430418E+01 -0.33761028693E+03  0.33800036581E+03  0.47000000000E+01 0. -1.
        -13    1    4    4    0    0  0.73892145507E+01 -0.41808622402E+01  0.28309665709E+01  0.89495515236E+01  0.00000000000E+00 0.  1.
         14    1    4    4    0    0 -0.20629554008E+02  0.11004064393E+03 -0.20439172226E+03  0.23304612836E+03  0.00000000000E+00 0. -1.
         -5    1    5    5    0  501  0.69420513412E+02 -0.43654909246E+02  0.18182992096E+02  0.84128889124E+02  0.47000000000E+01 0.  1.
         11    1    6    6    0    0 -0.25155360658E+02  0.11824613590E+02 -0.30130455061E+02  0.40993389450E+02  0.00000000000E+00 0. -1.
        -12    1    6    6    0    0 -0.17169660832E+02 -0.81064129072E+02 -0.31000498626E+02  0.88471584084E+02  0.00000000000E+00 0.  1.
<mgrwt>
<rscale>  2 0.21147976E+03</rscale>
<asrwt>0</asrwt>
<pdfrwt beam="2">  1        1 0.10582377E+00 0.21147976E+03</pdfrwt>
<pdfrwt beam="1">  1       -1 0.16266992E-01 0.21147976E+03</pdfrwt>
<totfact> 0.81948573E+02</totfact>
</mgrwt>
</event>
<event>
12    1  0.4154313E-002  0.2159069E+03  0.7546771E-02  0.1136972E+00
         -2   -1    0    0    0  501 -0.00000000000E+00  0.00000000000E+00  0.48521938142E+02  0.48521938142E+02  0.00000000000E+00 0. -1.
          2   -1    0    0  502    0  0.00000000000E+00 -0.00000000000E+00 -0.10467131323E+04  0.10467131323E+04  0.00000000000E+00 0.  1.
          6    2    1    2  502    0  0.12973041595E+03 -0.10652392680E+01 -0.34289466186E+03  0.40539855732E+03  0.17303215190E+03 0.  0.
         24    2    3    3    0    0  0.11028616791E+02  0.27430457669E+02 -0.20217723307E+03  0.21905047809E+03  0.78951997979E+02 0.  0.
         -6    2    1    2    0  501 -0.12973041595E+03  0.10652392680E+01 -0.65529653230E+03  0.68983651312E+03  0.17213295453E+03 0.  0.
        -24    2    5    5    0    0 -0.78373285958E+02 -0.51765702143E+02 -0.26202941700E+03  0.28969931521E+03  0.80275886747E+02 0.  0.
          5    1    3    3  502    0  0.11870179916E+03 -0.28495696937E+02 -0.14071742880E+03  0.18634807923E+03  0.47000000000E+01 0. -1.
        -13    1    4    4    0    0 -0.27582819154E+01 -0.15578535349E+02 -0.14652870741E+03  0.14738032765E+03  0.00000000000E+00 0.  1.
         14    1    4    4    0    0  0.13786898706E+02  0.43008993019E+02 -0.55648525654E+02  0.71670150439E+02  0.00000000000E+00 0. -1.
         -5    1    5    5    0  501 -0.51357129992E+02  0.52830941411E+02 -0.39326711530E+03  0.40013719791E+03  0.47000000000E+01 0.  1.
         13    1    6    6    0    0 -0.31435777414E+02 -0.39474500570E+02 -0.21934901451E+03  0.22507872947E+03  0.00000000000E+00 0. -1.
        -14    1    6    6    0    0 -0.46937508544E+02 -0.12291201573E+02 -0.42680402490E+02  0.64620585738E+02  0.00000000000E+00 0.  1.
<mgrwt>
<rscale>  2 0.21590692E+03</rscale>
<asrwt>0</asrwt>
<pdfrwt beam="2">  1        2 0.16103279E+00 0.21590692E+03</pdfrwt>
<pdfrwt beam="1">  1       -2 0.74649135E-02 0.21590692E+03</pdfrwt>
<totfact> 0.25816337E+03</totfact>
</mgrwt>
</event>
<event>
12    1  0.4154313E-002  0.1789792E+03  0.7546771E-02  0.1168795E+00
          1   -1    0    0  502    0  0.00000000000E+00  0.00000000000E+00  0.22074415655E+04  0.22074415655E+04  0.00000000000E+00 0. -1.
         -1   -1    0    0    0  501 -0.00000000000E+00 -0.00000000000E+00 -0.17129180122E+02  0.17129180122E+02  0.00000000000E+00 0.  1.
          6    2    1    2  502    0  0.50118904111E+01  0.43340181381E+02  0.66120087856E+03  0.68503936045E+03  0.17374934014E+03 0.  0.
         24    2    3    3    0    0  0.53563918623E+02 -0.13118372753E+02  0.46628155515E+03  0.47632783606E+03  0.80178136968E+02 0.  0.
         -6    2    1    2    0  501 -0.50118904111E+01 -0.43340181381E+02  0.15291115068E+04  0.15395313852E+04  0.17341105865E+03 0.  0.
        -24    2    5    5    0    0 -0.34426408301E+01 -0.96446574071E+02  0.10322838905E+04  0.10398489642E+04  0.79762424312E+02 0.  0.
          5    1    3    3  502    0 -0.48552028211E+02  0.56458554134E+02  0.19491932340E+03  0.20871152439E+03  0.47000000000E+01 0. -1.
        -13    1    4    4    0    0 -0.10280644546E+02  0.22079829728E+02  0.12365312049E+03  0.12602898373E+03  0.00000000000E+00 0.  1.
         14    1    4    4    0    0  0.63844563168E+02 -0.35198202481E+02  0.34262843466E+03  0.35029885233E+03  0.00000000000E+00 0. -1.
         -5    1    5    5    0  501 -0.15692495811E+01  0.53106392690E+02  0.49682761636E+03  0.49968242101E+03  0.47000000000E+01 0.  1.
         13    1    6    6    0    0  0.67572693628E+01 -0.46089757998E+01  0.46631267807E+03  0.46638440913E+03  0.00000000000E+00 0. -1.
        -14    1    6    6    0    0 -0.10199910193E+02 -0.91837598271E+02  0.56597121240E+03  0.57346455504E+03  0.00000000000E+00 0.  1.
<mgrwt>
<rscale>  2 0.17897919E+03</rscale>
<asrwt>0</asrwt>
<pdfrwt beam="1">  1        1 0.33960617E+00 0.17897919E+03</pdfrwt>
<pdfrwt beam="2">  1       -1 0.26352602E-02 0.17897919E+03</pdfrwt>
<totfact> 0.11392624E+03</totfact>
</mgrwt>
</event>
<event>
12    1  0.4154313E-002  0.1966857E+03  0.7546771E-02  0.1152566E+00
         -2   -1    0    0    0  501 -0.00000000000E+00  0.00000000000E+00  0.23589178741E+03  0.23589178741E+03  0.00000000000E+00 0. -1.
          2   -1    0    0  502    0  0.00000000000E+00 -0.00000000000E+00 -0.16839207473E+03  0.16839207473E+03  0.00000000000E+00 0.  1.
          6    2    1    2  502    0 -0.93396976192E+02  0.42957754339E+01  0.66392653463E+02  0.20748257328E+03  0.17291496446E+03 0.  0.
         24    2    3    3    0    0 -0.12664332263E+03  0.20849601646E+02  0.28540253311E+02  0.15424496523E+03  0.80645682987E+02 0.  0.
         -6    2    1    2    0  501  0.93396976192E+02 -0.42957754339E+01  0.11070592232E+01  0.19680128885E+03  0.17317064666E+03 0.  0.
        -24    2    5    5    0    0  0.49493472919E+01  0.47429213656E+02  0.22509189938E+02  0.92022480150E+02  0.75415163426E+02 0.  0.
          5    1    3    3  502    0  0.33246346440E+02 -0.16553826212E+02  0.37852400152E+02  0.53237608052E+02  0.47000000000E+01 0. -1.
        -13    1    4    4    0    0 -0.59089302840E+02  0.48788952599E+02  0.26605276232E+02  0.81115647869E+02  0.00000000000E+00 0.  1.
         14    1    4    4    0    0 -0.67554019792E+02 -0.27939350953E+02  0.19349770789E+01  0.73129317364E+02  0.00000000000E+00 0. -1.
         -5    1    5    5    0  501  0.88447628900E+02 -0.51724989090E+02 -0.21402130715E+02  0.10477880870E+03  0.47000000000E+01 0.  1.
         13    1    6    6    0    0 -0.53335858897E+01  0.66812213544E+02  0.19956936303E+02  0.69932812925E+02  0.00000000000E+00 0. -1.
        -14    1    6    6    0    0  0.10282933182E+02 -0.19382999888E+02  0.25522536354E+01  0.22089667224E+02  0.00000000000E+00 0.  1.
<mgrwt>
<rscale>  2 0.19668567E+03</rscale>
<asrwt>0</asrwt>
<pdfrwt beam="2">  1        2 0.25906473E-01 0.19668567E+03</pdfrwt>
<pdfrwt beam="1">  1       -2 0.36291044E-01 0.19668567E+03</pdfrwt>
<totfact> 0.14680722E+03</totfact>
</mgrwt>
</event>
<event>
12    1  0.4154313E-002  0.1885175E+03  0.7546771E-02  0.1159805E+00
         -1   -1    0    0    0  501 -0.00000000000E+00  0.00000000000E+00  0.61028909688E+02  0.61028909688E+02  0.00000000000E+00 0. -1.
          1   -1    0    0  502    0  0.00000000000E+00 -0.00000000000E+00 -0.60299618554E+03  0.60299618554E+03  0.00000000000E+00 0.  1.
          6    2    1    2  502    0  0.28510302129E+02  0.81501863939E+02 -0.20509429815E+03  0.27630727949E+03  0.16378843188E+03 0.  0.
         24    2    3    3    0    0  0.41893735124E+02  0.46902254583E+02 -0.21471824515E+03  0.23769433345E+03  0.80248145319E+02 0.  0.
         -6    2    1    2    0  501 -0.28510302129E+02 -0.81501863939E+02 -0.33687297770E+03  0.38771781573E+03  0.17142435759E+03 0.  0.
        -24    2    5    5    0    0  0.43115905503E+02 -0.54529891183E+02 -0.24909034907E+03  0.27116018696E+03  0.81543575191E+02 0.  0.
          5    1    3    3  502    0 -0.13383432995E+02  0.34599609356E+02  0.96239470017E+01  0.38612946044E+02  0.47000000000E+01 0. -1.
        -11    1    4    4    0    0  0.97209596000E+01  0.64537158717E+02 -0.13765758976E+03  0.15234550840E+03  0.00000000000E+00 0.  1.
         12    1    4    4    0    0  0.32172775524E+02 -0.17634904134E+02 -0.77060655386E+02  0.85348825049E+02  0.00000000000E+00 0. -1.
         -5    1    5    5    0  501 -0.71626207632E+02 -0.26971972756E+02 -0.87782628634E+02  0.11655762877E+03  0.47000000000E+01 0.  1.
         13    1    6    6    0    0 -0.17701994654E+02 -0.24952203491E+02 -0.34237191827E+02  0.45914685864E+02  0.00000000000E+00 0. -1.
        -14    1    6    6    0    0  0.60817900157E+02 -0.29577687692E+02 -0.21485315724E+03  0.22524550110E+03  0.00000000000E+00 0.  1.
<mgrwt>
<rscale>  2 0.18851746E+03</rscale>
<asrwt>0</asrwt>
<pdfrwt beam="2">  1        1 0.92768641E-01 0.18851746E+03</pdfrwt>
<pdfrwt beam="1">  1       -1 0.93890633E-02 0.18851746E+03</pdfrwt>
<totfact> 0.23252446E+03</totfact>
</mgrwt>
</event>
<event>
12    1  0.4154313E-002  0.1896689E+03  0.7546771E-02  0.1158760E+00
         -3   -1    0    0    0  501 -0.00000000000E+00  0.00000000000E+00  0.72269404850E+03  0.72269404850E+03  0.00000000000E+00 0. -1.
          3   -1    0    0  502    0  0.00000000000E+00 -0.00000000000E+00 -0.57643794880E+02  0.57643794880E+02  0.00000000000E+00 0.  1.
          6    2    1    2  502    0 -0.57036393593E+00  0.71796548784E+02  0.19113431459E+03  0.27053133718E+03  0.17748185386E+03 0.  0.
         24    2    3    3    0    0  0.34686861433E+02  0.91969393857E+02  0.73128997971E+02  0.14564194463E+03  0.78753907396E+02 0.  0.
         -6    2    1    2    0  501  0.57036393593E+00 -0.71796548784E+02  0.47391593903E+03  0.50980650620E+03  0.17364125883E+03 0.  0.
        -24    2    5    5    0    0 -0.27703190742E+02  0.23502158839E+02  0.21768978474E+03  0.23493349969E+03  0.80530048110E+02 0.  0.
          5    1    3    3  502    0 -0.35257225368E+02 -0.20172845073E+02  0.11800531662E+03  0.12488939254E+03  0.47000000000E+01 0. -1.
        -13    1    4    4    0    0 -0.13651516387E+02  0.19811080262E+02 -0.94015107025E+01  0.25830818886E+02  0.00000000000E+00 0.  1.
         14    1    4    4    0    0  0.48338377820E+02  0.72158313595E+02  0.82530508674E+02  0.11981112575E+03  0.00000000000E+00 0. -1.
         -5    1    5    5    0  501  0.28273554678E+02 -0.95298707623E+02  0.25622615429E+03  0.27487300651E+03  0.47000000000E+01 0.  1.
         11    1    6    6    0    0 -0.41324434471E+00  0.16724539323E+02  0.13610366810E+01  0.16784916064E+02  0.00000000000E+00 0. -1.
        -12    1    6    6    0    0 -0.27289946398E+02  0.67776195162E+01  0.21632874806E+03  0.21814858363E+03  0.00000000000E+00 0.  1.
<mgrwt>
<rscale>  2 0.18966892E+03</rscale>
<asrwt>0</asrwt>
<pdfrwt beam="2">  1        3 0.88682766E-02 0.18966892E+03</pdfrwt>
<pdfrwt beam="1">  1       -3 0.11118369E+00 0.18966892E+03</pdfrwt>
<totfact> 0.15484957E+02</totfact>
</mgrwt>
</event>
<event>
12    1  0.4154313E-002  0.2940031E+03  0.7546771E-02  0.1088277E+00
         -2   -1    0    0    0  501 -0.00000000000E+00  0.00000000000E+00  0.60587511066E+02  0.60587511066E+02  0.00000000000E+00 0.  1.
          2   -1    0    0  502    0  0.00000000000E+00 -0.00000000000E+00 -0.17344849950E+04  0.17344849950E+04  0.00000000000E+00 0. -1.
          6    2    1    2  502    0 -0.15875479201E+03  0.17632066225E+03 -0.12151387275E+04  0.12502079990E+04  0.17368319952E+03 0.  0.
         24    2    3    3    0    0 -0.11926683375E+03  0.51837622841E+02 -0.44814630531E+03  0.47216250442E+03  0.72045838510E+02 0.  0.
         -6    2    1    2    0  501  0.15875479201E+03 -0.17632066225E+03 -0.45875875646E+03  0.54486450709E+03  0.17356749272E+03 0.  0.
        -24    2    5    5    0    0  0.95575994814E+02 -0.15177670128E+03 -0.21074745759E+03  0.28771540480E+03  0.78706578147E+02 0.  0.
          5    1    3    3  502    0 -0.39487958259E+02  0.12448303941E+03 -0.76699242215E+03  0.77804549454E+03  0.47000000000E+01 0. -1.
        -13    1    4    4    0    0 -0.80851038724E+02  0.46306113389E+02 -0.39794783328E+03  0.40870970702E+03  0.00000000000E+00 0.  1.
         14    1    4    4    0    0 -0.38415795028E+02  0.55315094520E+01 -0.50198472033E+02  0.63452797408E+02  0.00000000000E+00 0. -1.
         -5    1    5    5    0  501  0.63178797196E+02 -0.24543960963E+02 -0.24801129888E+03  0.25714910228E+03  0.47000000000E+01 0.  1.
         11    1    6    6    0    0  0.10414062528E+03 -0.15275442291E+03 -0.20878729730E+03  0.27887509582E+03  0.00000000000E+00 0. -1.
        -12    1    6    6    0    0 -0.85646304673E+01  0.97772162947E+00 -0.19601602915E+01  0.88403089875E+01  0.00000000000E+00 0.  1.
<mgrwt>
<rscale>  2 0.29400310E+03</rscale>
<asrwt>0</asrwt>
<pdfrwt beam="2">  1        2 0.26684385E+00 0.29400310E+03</pdfrwt>
<pdfrwt beam="1">  1       -2 0.93211554E-02 0.29400310E+03</pdfrwt>
<totfact> 0.75981779E+02</totfact>
</mgrwt>
</event>
<event>
11    1  0.4154313E-002  0.1831385E+03  0.7546771E-02  0.1164800E+00
          2   -1    0    0  502    0  0.00000000000E+00  0.00000000000E+00  0.39797554347E+03  0.39797554347E+03  0.00000000000E+00 0. -1.
         -2   -1    0    0    0  501 -0.00000000000E+00 -0.00000000000E+00 -0.10014562571E+03  0.10014562571E+03  0.00000000000E+00 0.  1.
          6    2    1    2  502    0  0.51763898508E+02 -0.87666102243E+01  0.24654975853E+03  0.30585832610E+03  0.17322291295E+03 0.  0.
         -6    2    1    2    0  501 -0.51763898508E+02  0.87666102243E+01  0.51280159227E+02  0.19226284307E+03  0.17770478737E+03 0.  0.
        -24    2    4    4    0    0  0.25522838730E+02  0.20566358801E+02  0.71743015837E+02  0.11131043533E+03  0.78540195314E+02 0.  0.
          5    1    3    3  502    0  0.10942400755E+03 -0.12425379355E+02  0.18185571472E+03  0.21265369608E+03  0.47000000000E+01 0. -1.
        -11    1    3    3    0    0 -0.56809760235E+01 -0.11535968012E+02  0.10648245339E+02  0.16695423785E+02  0.00000000000E+00 0.  1.
         12    1    3    3    0    0 -0.51979133019E+02  0.15194737143E+02  0.54045798473E+02  0.76509206236E+02  0.00000000000E+00 0. -1.
         -5    1    4    4    0  501 -0.77286737239E+02 -0.11799748576E+02 -0.20462856610E+02  0.80952407747E+02  0.47000000000E+01 0.  1.
         13    1    5    5    0    0  0.33564799900E+02  0.32099965606E+02  0.93790862490E+01  0.47381123278E+02  0.00000000000E+00 0. -1.
        -14    1    5    5    0    0 -0.80419611693E+01 -0.11533606805E+02  0.62363929588E+02  0.63929312049E+02  0.00000000000E+00 0.  1.
<mgrwt>
<rscale>  2 0.18313853E+03</rscale>
<asrwt>0</asrwt>
<pdfrwt beam="1">  1        2 0.61227006E-01 0.18313853E+03</pdfrwt>
<pdfrwt beam="2">  1       -2 0.15407020E-01 0.18313853E+03</pdfrwt>
<totfact> 0.25882825E+03</totfact>
</mgrwt>
</event>
<event>
12    1  0.4154313E-002  0.1908088E+03  0.7546771E-02  0.1157734E+00
          2   -1    0    0  502    0  0.00000000000E+00  0.00000000000E+00  0.82730949810E+03  0.82730949810E+03  0.00000000000E+00 0.  1.
         -2   -1    0    0    0  501 -0.00000000000E+00 -0.00000000000E+00 -0.48046802088E+02  0.48046802088E+02  0.00000000000E+00 0. -1.
          6    2    1    2  502    0 -0.65829123808E+02 -0.22908697144E+02  0.26965931463E+03  0.33243031565E+03  0.18148136777E+03 0.  0.
         24    2    3    3    0    0 -0.28096204671E+02 -0.83308098509E+02  0.13078945980E+03  0.17629323660E+03  0.79017634000E+02 0.  0.
         -6    2    1    2    0  501  0.65829123808E+02  0.22908697144E+02  0.50960338138E+03  0.54292598454E+03  0.17382386610E+03 0.  0.
        -24    2    5    5    0    0  0.56089122431E+02  0.34174069684E+02  0.15128204020E+03  0.18426451492E+03  0.82178458716E+02 0.  0.
          5    1    3    3  502    0 -0.37732919137E+02  0.60399401365E+02  0.13886985483E+03  0.15613707905E+03  0.47000000000E+01 0. -1.
        -13    1    4    4    0    0 -0.34323922103E+02 -0.94227998163E+02  0.12930302733E+03  0.16363471558E+03  0.00000000000E+00 0.  1.
         14    1    4    4    0    0  0.62277174316E+01  0.10919899655E+02  0.14864324635E+01  0.12658521017E+02  0.00000000000E+00 0. -1.
         -5    1    5    5    0  501  0.97400013776E+01 -0.11265372540E+02  0.35832134118E+03  0.35866146962E+03  0.47000000000E+01 0.  1.
         11    1    6    6    0    0  0.58383775370E+02  0.98630054632E+01  0.14827576958E+03  0.15966104080E+03  0.00000000000E+00 0. -1.
        -12    1    6    6    0    0 -0.22946529393E+01  0.24311064221E+02  0.30062706150E+01  0.24603474118E+02  0.00000000000E+00 0.  1.
<mgrwt>
<rscale>  2 0.19080877E+03</rscale>
<asrwt>0</asrwt>
<pdfrwt beam="1">  1        2 0.12727837E+00 0.19080877E+03</pdfrwt>
<pdfrwt beam="2">  1       -2 0.73918163E-02 0.19080877E+03</pdfrwt>
<totfact> 0.35944825E+03</totfact>
</mgrwt>
</event>
<event>
12    1  0.4154313E-002  0.2198297E+03  0.7546771E-02  0.1134010E+00
         -2   -1    0    0    0  501 -0.00000000000E+00  0.00000000000E+00  0.34376296408E+02  0.34376296408E+02  0.00000000000E+00 0. -1.
          2   -1    0    0  502    0  0.00000000000E+00 -0.00000000000E+00 -0.23030587576E+04  0.23030587576E+04  0.00000000000E+00 0.  1.
          6    2    1    2  502    0 -0.12063606560E+03  0.63191525496E+02 -0.18619613894E+04  0.18748239259E+04  0.17180893014E+03 0.  0.
         24    2    3    3    0    0 -0.49030320045E+02  0.30279774752E+02 -0.46387622681E+03  0.47451154009E+03  0.81603987877E+02 0.  0.
         -6    2    1    2    0  501  0.12063606560E+03 -0.63191525496E+02 -0.40672107183E+03  0.46261112810E+03  0.17332280967E+03 0.  0.
        -24    2    5    5    0    0  0.11268543466E+03 -0.52698458252E+02 -0.41850962052E+03  0.44432515334E+03  0.82458503123E+02 0.  0.
          5    1    3    3  502    0 -0.71605745554E+02  0.32911750744E+02 -0.13980851625E+04  0.14003123858E+04  0.47000000000E+01 0. -1.
        -11    1    4    4    0    0  0.19115906337E+01  0.42093879960E+02 -0.28667149745E+03  0.28975178405E+03  0.00000000000E+00 0.  1.
         12    1    4    4    0    0 -0.50941910679E+02 -0.11814105209E+02 -0.17720472936E+03  0.18475975604E+03  0.00000000000E+00 0. -1.
         -5    1    5    5    0  501  0.79506309385E+01 -0.10493067244E+02  0.11788548691E+02  0.18285974755E+02  0.47000000000E+01 0.  1.
         13    1    6    6    0    0  0.73412719154E+02 -0.74278155538E+02 -0.29231505415E+03  0.31041063546E+03  0.00000000000E+00 0. -1.
        -14    1    6    6    0    0  0.39272715506E+02  0.21579697286E+02 -0.12619456638E+03  0.13391451789E+03  0.00000000000E+00 0.  1.
<mgrwt>
<rscale>  2 0.21982965E+03</rscale>
<asrwt>0</asrwt>
<pdfrwt beam="2">  1        2 0.35431678E+00 0.21982965E+03</pdfrwt>
<pdfrwt beam="1">  1       -2 0.52886603E-02 0.21982965E+03</pdfrwt>
<totfact> 0.92931722E+02</totfact>
</mgrwt>
</event>
<event>
12    1  0.4154313E-002  0.2052927E+03  0.7546771E-02  0.1145349E+00
          2   -1    0    0  502    0  0.00000000000E+00  0.00000000000E+00  0.12966662188E+04  0.12966662188E+04  0.00000000000E+00 0. -1.
         -2   -1    0    0    0  501 -0.00000000000E+00 -0.00000000000E+00 -0.37838819141E+02  0.37838819141E+02  0.00000000000E+00 0.  1.
          6    2    1    2  502    0  0.96294832208E+02 -0.55026340971E+02  0.87897235836E+03  0.90254080977E+03  0.17229890780E+03 0.  0.
         24    2    3    3    0    0 -0.45922917976E+00 -0.65976221539E+02  0.42619470778E+03  0.43938755312E+03  0.84062002111E+02 0.  0.
         -6    2    1    2    0  501 -0.96294832208E+02  0.55026340971E+02  0.37985504135E+03  0.43196422822E+03  0.17321272792E+03 0.  0.
        -24    2    5    5    0    0 -0.52620981343E+02 -0.34985022993E+02  0.22695325883E+03  0.24917884590E+03  0.81175094948E+02 0.  0.
          5    1    3    3  502    0  0.96754061388E+02  0.10949880568E+02  0.45277765057E+03  0.46315325664E+03  0.47000000000E+01 0. -1.
        -11    1    4    4    0    0  0.11312678086E+00 -0.32522475104E+01 -0.37075923845E+01  0.49331686396E+01  0.00000000000E+00 0.  1.
         12    1    4    4    0    0 -0.57235596062E+00 -0.62723974029E+02  0.42990230017E+03  0.43445438449E+03  0.00000000000E+00 0. -1.
         -5    1    5    5    0  501 -0.43673850865E+02  0.90011363964E+02  0.15290178252E+03  0.18278538232E+03  0.47000000000E+01 0.  1.
         11    1    6    6    0    0 -0.55919050893E+02 -0.13794497225E+02  0.21877067466E+03  0.22622518979E+03  0.00000000000E+00 0. -1.
        -12    1    6    6    0    0  0.32980695494E+01 -0.21190525768E+02  0.81825841736E+01  0.22953656110E+02  0.00000000000E+00 0.  1.
<mgrwt>
<rscale>  2 0.20529267E+03</rscale>
<asrwt>0</asrwt>
<pdfrwt beam="1">  1        2 0.19948708E+00 0.20529267E+03</pdfrwt>
<pdfrwt beam="2">  1       -2 0.58213578E-02 0.20529267E+03</pdfrwt>
<totfact> 0.27261521E+03</totfact>
</mgrwt>
</event>
<event>
12    1  0.4154313E-002  0.1851117E+03  0.7546771E-02  0.1162946E+00
          3   -1    0    0  502    0  0.00000000000E+00  0.00000000000E+00  0.54521952038E+02  0.54521952038E+02  0.00000000000E+00 0.  1.
         -3   -1    0    0    0  501 -0.00000000000E+00 -0.00000000000E+00 -0.75185303734E+03  0.75185303734E+03  0.00000000000E+00 0. -1.
          6    2    1    2  502    0  0.47118464574E+02  0.52133566992E+02 -0.18156555281E+03  0.25755676611E+03  0.16861607068E+03 0.  0.
         24    2    3    3    0    0  0.64396287019E+02  0.38677173492E+02 -0.20043162537E+03  0.22827167829E+03  0.79324127028E+02 0.  0.
         -6    2    1    2    0  501 -0.47118464574E+02 -0.52133566992E+02 -0.51576553250E+03  0.54881822327E+03  0.17392325656E+03 0.  0.
        -24    2    5    5    0    0  0.95560938519E+01 -0.48218807066E+02 -0.45869709111E+03  0.46815703112E+03  0.79697001848E+02 0.  0.
          5    1    3    3  502    0 -0.17277822444E+02  0.13456393500E+02  0.18866072565E+02  0.29285087817E+02  0.47000000000E+01 0. -1.
        -13    1    4    4    0    0  0.20471707650E+01  0.18066437798E+02 -0.89150923511E+00  0.18203897154E+02  0.00000000000E+00 0.  1.
         14    1    4    4    0    0  0.62349116254E+02  0.20610735693E+02 -0.19954011614E+03  0.21006778114E+03  0.00000000000E+00 0. -1.
         -5    1    5    5    0  501 -0.56674558426E+02 -0.39147599258E+01 -0.57068441382E+02  0.80661192155E+02  0.47000000000E+01 0.  1.
         11    1    6    6    0    0  0.29903955505E+02 -0.55878638236E+02 -0.23467422434E+03  0.24308159193E+03  0.00000000000E+00 0. -1.
        -12    1    6    6    0    0 -0.20347861653E+02  0.76598311705E+01 -0.22402286677E+03  0.22507543919E+03  0.00000000000E+00 0.  1.
<mgrwt>
<rscale>  2 0.18511171E+03</rscale>
<asrwt>0</asrwt>
<pdfrwt beam="1">  1        3 0.83879929E-02 0.18511171E+03</pdfrwt>
<pdfrwt beam="2">  1       -3 0.11566969E+00 0.18511171E+03</pdfrwt>
<totfact> 0.15431002E+02</totfact>
</mgrwt>
</event>
<event>
12    1  0.4154313E-002  0.2065632E+03  0.7546771E-02  0.1144317E+00
         -2   -1    0    0    0  501 -0.00000000000E+00  0.00000000000E+00  0.17026285681E+02  0.17026285681E+02  0.00000000000E+00 0.  1.
          2   -1    0    0  502    0  0.00000000000E+00 -0.00000000000E+00 -0.27616497643E+04  0.27616497643E+04  0.00000000000E+00 0. -1.
          6    2    1    2  502    0 -0.26468410581E+02  0.11051160998E+03 -0.17935124732E+04  0.18053402872E+04  0.17220095324E+03 0.  0.
         24    2    3    3    0    0 -0.59770341858E+02  0.26451681238E+02 -0.66759611480E+03  0.67578956838E+03  0.82065723785E+02 0.  0.
         -6    2    1    2    0  501  0.26468410581E+02 -0.11051160998E+03 -0.95111100544E+03  0.97333576282E+03  0.17279169488E+03 0.  0.
        -24    2    5    5    0    0 -0.28677892461E+02 -0.43790678476E+02 -0.26754714634E+03  0.28429698532E+03  0.80642763515E+02 0.  0.
          5    1    3    3  502    0  0.33301931278E+02  0.84059928740E+02 -0.11259163584E+04  0.11295507188E+04  0.47000000000E+01 0. -1.
        -11    1    4    4    0    0  0.16409948840E+02 -0.10160731940E+02 -0.90369902600E+02  0.92408041806E+02  0.00000000000E+00 0.  1.
         12    1    4    4    0    0 -0.76180290698E+02  0.36612413178E+02 -0.57722621220E+03  0.58338152657E+03  0.00000000000E+00 0. -1.
         -5    1    5    5    0  501  0.55146303042E+02 -0.66720931501E+02 -0.68356385909E+03  0.68903877750E+03  0.47000000000E+01 0.  1.
         11    1    6    6    0    0 -0.28575122218E+02 -0.19338545258E+02 -0.25401947835E+03  0.25635212565E+03  0.00000000000E+00 0. -1.
        -12    1    6    6    0    0 -0.10277024346E+00 -0.24452133219E+02 -0.13527667991E+02  0.27944859669E+02  0.00000000000E+00 0.  1.
<mgrwt>
<rscale>  2 0.20656316E+03</rscale>
<asrwt>0</asrwt>
<pdfrwt beam="2">  1        2 0.42486937E+00 0.20656316E+03</pdfrwt>
<pdfrwt beam="1">  1       -2 0.26194275E-02 0.20656316E+03</pdfrwt>
<totfact> 0.14996611E+03</totfact>
</mgrwt>
</event>
<event>
12    1  0.4154313E-002  0.2874318E+03  0.7546771E-02  0.1091698E+00
         -1   -1    0    0    0  501 -0.00000000000E+00  0.00000000000E+00  0.40360954008E+02  0.40360954008E+02  0.00000000000E+00 0. -1.
          1   -1    0    0  502    0  0.00000000000E+00 -0.00000000000E+00 -0.21621723799E+04  0.21621723799E+04  0.00000000000E+00 0.  1.
          6    2    1    2  502    0 -0.10776995232E+03 -0.20255176383E+03 -0.80641650117E+03  0.85608411056E+03  0.17300535062E+03 0.  0.
         24    2    3    3    0    0 -0.79004421916E+02 -0.19753925886E+03 -0.79077695107E+03  0.82262867046E+03  0.78270592438E+02 0.  0.
         -6    2    1    2    0  501  0.10776995232E+03  0.20255176383E+03 -0.13153949247E+04  0.13464492233E+04  0.17326316232E+03 0.  0.
        -24    2    5    5    0    0  0.19484200749E+02  0.17648909410E+03 -0.92662437414E+03  0.94690164460E+03  0.80386313396E+02 0.  0.
          5    1    3    3  502    0 -0.28765530401E+02 -0.50125049685E+01 -0.15639550104E+02  0.33455440107E+02  0.47000000000E+01 0. -1.
        -13    1    4    4    0    0 -0.49183412432E+02 -0.63225545449E+02 -0.18808407986E+03  0.20443115896E+03  0.00000000000E+00 0.  1.
         14    1    4    4    0    0 -0.29821009483E+02 -0.13431371341E+03 -0.60269287121E+03  0.61819751150E+03  0.00000000000E+00 0. -1.
         -5    1    5    5    0  501  0.88285751567E+02  0.26062669732E+02 -0.38877055055E+03  0.39954757872E+03  0.47000000000E+01 0.  1.
         11    1    6    6    0    0 -0.14205582933E+02  0.99438097314E+02 -0.34829437906E+03  0.36248959746E+03  0.00000000000E+00 0. -1.
        -12    1    6    6    0    0  0.33689783682E+02  0.77050996784E+02 -0.57832999508E+03  0.58441204713E+03  0.00000000000E+00 0.  1.
<mgrwt>
<rscale>  2 0.28743183E+03</rscale>
<asrwt>0</asrwt>
<pdfrwt beam="2">  1        1 0.33264189E+00 0.28743183E+03</pdfrwt>
<pdfrwt beam="1">  1       -1 0.62093778E-02 0.28743183E+03</pdfrwt>
<totfact> 0.33459325E+02</totfact>
</mgrwt>
</event>
<event>
12    1  0.4154313E-002  0.1982870E+03  0.7546771E-02  0.1151192E+00
          1   -1    0    0  502    0  0.00000000000E+00  0.00000000000E+00  0.38368954275E+03  0.38368954275E+03  0.00000000000E+00 0. -1.
         -1   -1    0    0    0  501 -0.00000000000E+00 -0.00000000000E+00 -0.10322749668E+03  0.10322749668E+03  0.00000000000E+00 0.  1.
          6    2    1    2  502    0 -0.62357423632E+02  0.73705243099E+02  0.16126360161E+03  0.25582762859E+03  0.17355378188E+03 0.  0.
         24    2    3    3    0    0 -0.18872672424E+02  0.12179257990E+02  0.62158877017E+01  0.83379798742E+02  0.80056489360E+02 0.  0.
         -6    2    1    2    0  501  0.62357423632E+02 -0.73705243099E+02  0.11919844445E+03  0.23108941084E+03  0.17283846649E+03 0.  0.
        -24    2    5    5    0    0  0.40266642155E+01 -0.17194595258E+02  0.12454175942E+03  0.14956290086E+03  0.80910712176E+02 0.  0.
          5    1    3    3  502    0 -0.43484751208E+02  0.61525985109E+02  0.15504771391E+03  0.17244782985E+03  0.47000000000E+01 0. -1.
        -11    1    4    4    0    0 -0.45002113281E+02  0.55444503666E+01  0.23784397006E+02  0.51201842453E+02  0.00000000000E+00 0.  1.
         12    1    4    4    0    0  0.26129440858E+02  0.66348076235E+01 -0.17568509305E+02  0.32177956289E+02  0.00000000000E+00 0. -1.
         -5    1    5    5    0  501  0.58330759416E+02 -0.56510647841E+02 -0.53433149651E+01  0.81526509973E+02  0.47000000000E+01 0.  1.
         11    1    6    6    0    0  0.28457842123E+02 -0.46437905339E+01  0.11780488119E+03  0.12128233012E+03  0.00000000000E+00 0. -1.
        -12    1    6    6    0    0 -0.24431177908E+02 -0.12550804724E+02  0.67368782348E+01  0.28280570743E+02  0.00000000000E+00 0.  1.
<mgrwt>
<rscale>  2 0.19828702E+03</rscale>
<asrwt>0</asrwt>
<pdfrwt beam="1">  1        1 0.59029160E-01 0.19828702E+03</pdfrwt>
<pdfrwt beam="2">  1       -1 0.15881154E-01 0.19828702E+03</pdfrwt>
<totfact> 0.18593606E+03</totfact>
</mgrwt>
</event>
<event>
12    1  0.4154313E-002  0.1805880E+03  0.7546771E-02  0.1167235E+00
         -2   -1    0    0    0  501 -0.00000000000E+00  0.00000000000E+00  0.38399624605E+02  0.38399624605E+02  0.00000000000E+00 0. -1.
          2   -1    0    0  502    0  0.00000000000E+00 -0.00000000000E+00 -0.93834727803E+03  0.93834727803E+03  0.00000000000E+00 0.  1.
          6    2    1    2  502    0  0.57999300642E+02  0.11379299451E+02 -0.60558966508E+03  0.63262019796E+03  0.17313597283E+03 0.  0.
         24    2    3    3    0    0  0.35515694781E+02 -0.21529305259E+02 -0.57463431325E+03  0.58193674303E+03  0.81981115945E+02 0.  0.
         -6    2    1    2    0  501 -0.57999300642E+02 -0.11379299451E+02 -0.29435798835E+03  0.34412670467E+03  0.16817596807E+03 0.  0.
        -24    2    5    5    0    0 -0.20648976336E+02  0.52599555500E+00 -0.29344425797E+03  0.30463357010E+03  0.79154422531E+02 0.  0.
          5    1    3    3  502    0  0.22483605862E+02  0.32908604710E+02 -0.30955351833E+02  0.50683454930E+02  0.47000000000E+01 0. -1.
        -13    1    4    4    0    0 -0.11663828385E+01  0.25608423467E+02 -0.28839497272E+03  0.28953205710E+03  0.00000000000E+00 0.  1.
         14    1    4    4    0    0  0.36682077619E+02 -0.47137728726E+02 -0.28623934053E+03  0.29240468593E+03  0.00000000000E+00 0. -1.
         -5    1    5    5    0  501 -0.37350324306E+02 -0.11905295006E+02 -0.91373038215E+00  0.39493134570E+02  0.47000000000E+01 0.  1.
         13    1    6    6    0    0  0.27686199053E+02  0.10031462744E+01 -0.57979310735E+02  0.64258325482E+02  0.00000000000E+00 0. -1.
        -14    1    6    6    0    0 -0.48335175389E+02 -0.47715071943E+00 -0.23546494723E+03  0.24037524462E+03  0.00000000000E+00 0.  1.
<mgrwt>
<rscale>  2 0.18058803E+03</rscale>
<asrwt>0</asrwt>
<pdfrwt beam="2">  1        2 0.14436112E+00 0.18058803E+03</pdfrwt>
<pdfrwt beam="1">  1       -2 0.59076347E-02 0.18058803E+03</pdfrwt>
<totfact> 0.42928416E+03</totfact>
</mgrwt>
</event>
<event>
12    1  0.4154313E-002  0.2815231E+03  0.7546771E-02  0.1094860E+00
         -2   -1    0    0    0  501 -0.00000000000E+00  0.00000000000E+00  0.14992156953E+03  0.14992156953E+03  0.00000000000E+00 0. -1.
          2   -1    0    0  502    0  0.00000000000E+00 -0.00000000000E+00 -0.80365514012E+03  0.80365514012E+03  0.00000000000E+00 0.  1.
          6    2    1    2  502    0 -0.21450266532E+03 -0.58189209738E+02 -0.60601353004E+03  0.66834276405E+03  0.17329822304E+03 0.  0.
         24    2    3    3    0    0 -0.16723419880E+03 -0.80949774873E+02 -0.32712431601E+03  0.38452304142E+03  0.79545634438E+02 0.  0.
         -6    2    1    2    0  501  0.21450266532E+03  0.58189209738E+02 -0.47720040547E+02  0.28523394560E+03  0.17228994136E+03 0.  0.
        -24    2    5    5    0    0  0.42499649758E+02  0.59936953053E+02 -0.63024703047E+02  0.11247858486E+03  0.57277048522E+02 0.  0.
          5    1    3    3  502    0 -0.47268466517E+02  0.22760565135E+02 -0.27888921403E+03  0.28381972263E+03  0.47000000000E+01 0. -1.
        -11    1    4    4    0    0 -0.74663999679E+02 -0.59374506138E+02 -0.99457735587E+02  0.13781105179E+03  0.00000000000E+00 0.  1.
         12    1    4    4    0    0 -0.92570199122E+02 -0.21575268736E+02 -0.22766658043E+03  0.24671198963E+03  0.00000000000E+00 0. -1.
         -5    1    5    5    0  501  0.17200301556E+03 -0.17477433154E+01  0.15304662500E+02  0.17275536074E+03  0.47000000000E+01 0.  1.
         11    1    6    6    0    0  0.17255026340E+02  0.59932690683E+01  0.78675267963E+01  0.19888518949E+02  0.00000000000E+00 0. -1.
        -12    1    6    6    0    0  0.25244623418E+02  0.53943683985E+02 -0.70892229844E+02  0.92590065912E+02  0.00000000000E+00 0.  1.
<mgrwt>
<rscale>  2 0.28152306E+03</rscale>
<asrwt>0</asrwt>
<pdfrwt beam="2">  1        2 0.12363925E+00 0.28152306E+03</pdfrwt>
<pdfrwt beam="1">  1       -2 0.23064856E-01 0.28152306E+03</pdfrwt>
<totfact> 0.58058904E+02</totfact>
</mgrwt>
</event>
<event>
12    1  0.4154313E-002  0.2190658E+03  0.7546771E-02  0.1134581E+00
          2   -1    0    0  502    0  0.00000000000E+00  0.00000000000E+00  0.11986765137E+04  0.11986765137E+04  0.00000000000E+00 0. -1.
         -2   -1    0    0    0  501 -0.00000000000E+00 -0.00000000000E+00 -0.46499956109E+02  0.46499956109E+02  0.00000000000E+00 0.  1.
          6    2    1    2  502    0  0.73375682497E+02 -0.11121467605E+03  0.80779471150E+03  0.83692296668E+03  0.17365212716E+03 0.  0.
         24    2    3    3    0    0 -0.31187447021E+02 -0.50458935853E+02  0.46868632618E+03  0.47686561705E+03  0.64924443168E+02 0.  0.
         -6    2    1    2    0  501 -0.73375682497E+02  0.11121467605E+03  0.34438184614E+03  0.40825350318E+03  0.17412458746E+03 0.  0.
        -24    2    5    5    0    0 -0.11207835840E+03  0.11504804948E+03  0.27785622717E+03  0.33105026586E+03  0.81194725438E+02 0.  0.
          5    1    3    3  502    0  0.10456312952E+03 -0.60755740197E+02  0.33910838533E+03  0.36005734963E+03  0.47000000000E+01 0. -1.
        -13    1    4    4    0    0 -0.48587921842E+02 -0.21085995583E+02  0.31608255903E+03  0.32048960901E+03  0.00000000000E+00 0.  1.
         14    1    4    4    0    0  0.17400474821E+02 -0.29372940271E+02  0.15260376714E+03  0.15637600804E+03  0.00000000000E+00 0. -1.
         -5    1    5    5    0  501  0.38702675902E+02 -0.38333734281E+01  0.66525618971E+02  0.77203237324E+02  0.47000000000E+01 0.  1.
         11    1    6    6    0    0 -0.75519207119E+02  0.27966200339E+02  0.16710351708E+03  0.18549621135E+03  0.00000000000E+00 0. -1.
        -12    1    6    6    0    0 -0.36559151280E+02  0.87081849139E+02  0.11075271009E+03  0.14555405451E+03  0.00000000000E+00 0.  1.
<mgrwt>
<rscale>  2 0.21906584E+03</rscale>
<asrwt>0</asrwt>
<pdfrwt beam="1">  1        2 0.18441175E+00 0.21906584E+03</pdfrwt>
<pdfrwt beam="2">  1       -2 0.71538403E-02 0.21906584E+03</pdfrwt>
<totfact> 0.22518127E+03</totfact>
</mgrwt>
</event>
<event>
12    1  0.4154313E-002  0.1743732E+03  0.7546771E-02  0.1173363E+00
         -2   -1    0    0    0  501 -0.00000000000E+00  0.00000000000E+00  0.25357753684E+02  0.25357753684E+02  0.00000000000E+00 0. -1.
          2   -1    0    0  502    0  0.00000000000E+00 -0.00000000000E+00 -0.23569627479E+04  0.23569627479E+04  0.00000000000E+00 0.  1.
          6    2    1    2  502    0  0.21454181388E+02  0.89417214896E+01 -0.19987265562E+04  0.20062687486E+04  0.17223881341E+03 0.  0.
         24    2    3    3    0    0  0.83569940265E+01  0.60105793315E+02 -0.16996238624E+04  0.17025027037E+04  0.78176958861E+02 0.  0.
         -6    2    1    2    0  501 -0.21454181388E+02 -0.89417214896E+01 -0.33287843797E+03  0.37605175295E+03  0.17339731874E+03 0.  0.
        -24    2    5    5    0    0  0.42100121415E+02  0.16628652516E+02 -0.11422738493E+03  0.14687198415E+03  0.80464600609E+02 0.  0.
          5    1    3    3  502    0  0.13097187361E+02 -0.51164071825E+02 -0.29910269386E+03  0.30376604490E+03  0.47000000000E+01 0. -1.
        -11    1    4    4    0    0 -0.12435668326E+02  0.72105282899E+00 -0.99428691757E+03  0.99436494317E+03  0.00000000000E+00 0.  1.
         12    1    4    4    0    0  0.20792662352E+02  0.59384740486E+02 -0.70533694481E+03  0.70813776056E+03  0.00000000000E+00 0. -1.
         -5    1    5    5    0  501 -0.63554302803E+02 -0.25570374005E+02 -0.21865105304E+03  0.22917976880E+03  0.47000000000E+01 0.  1.
         13    1    6    6    0    0 -0.19113622319E+02 -0.52177752642E+00 -0.38614407459E+01  0.19506756126E+02  0.00000000000E+00 0. -1.
        -14    1    6    6    0    0  0.61213743734E+02  0.17150430042E+02 -0.11036594419E+03  0.12736522802E+03  0.00000000000E+00 0.  1.
<mgrwt>
<rscale>  2 0.17437315E+03</rscale>
<asrwt>0</asrwt>
<pdfrwt beam="2">  1        2 0.36260973E+00 0.17437315E+03</pdfrwt>
<pdfrwt beam="1">  1       -2 0.39011921E-02 0.17437315E+03</pdfrwt>
<totfact> 0.13873951E+03</totfact>
</mgrwt>
</event>
<event>
12    1  0.4154313E-002  0.2403092E+03  0.7546771E-02  0.1119587E+00
         -1   -1    0    0    0  501 -0.00000000000E+00  0.00000000000E+00  0.34840926689E+02  0.34840926689E+02  0.00000000000E+00 0.  1.
          1   -1    0    0  502    0  0.00000000000E+00 -0.00000000000E+00 -0.18335697915E+04  0.18335697915E+04  0.00000000000E+00 0. -1.
          6    2    1    2  502    0 -0.84940088409E+02 -0.14308224250E+03 -0.11902239120E+04  0.12143210324E+04  0.17394039873E+03 0.  0.
         24    2    3    3    0    0 -0.51581684973E+02 -0.11628109513E+03 -0.11300802849E+04  0.11403586740E+04  0.84584228690E+02 0.  0.
         -6    2    1    2    0  501  0.84940088409E+02  0.14308224250E+03 -0.60850495277E+03  0.65408968575E+03  0.17282272048E+03 0.  0.
        -24    2    5    5    0    0  0.60444748724E+02  0.17152295659E+03 -0.54552010992E+03  0.58061808366E+03  0.80321083494E+02 0.  0.
          5    1    3    3  502    0 -0.33358403436E+02 -0.26801147361E+02 -0.60143627098E+02  0.73962358400E+02  0.47000000000E+01 0. -1.
        -13    1    4    4    0    0 -0.22758607443E+02 -0.10806734869E+03 -0.64766320578E+03  0.65701151755E+03  0.00000000000E+00 0.  1.
         14    1    4    4    0    0 -0.28823077530E+02 -0.82137464450E+01 -0.48241707914E+03  0.48334715648E+03  0.00000000000E+00 0. -1.
         -5    1    5    5    0  501  0.24495339684E+02 -0.28440714097E+02 -0.62984842853E+02  0.73471602091E+02  0.47000000000E+01 0.  1.
         13    1    6    6    0    0  0.76140331175E+01 -0.70652912192E+01 -0.54164043572E+02  0.55151024073E+02  0.00000000000E+00 0. -1.
        -14    1    6    6    0    0  0.52830715607E+02  0.17858824781E+03 -0.49135606635E+03  0.52546705958E+03  0.00000000000E+00 0.  1.
<mgrwt>
<rscale>  2 0.24030917E+03</rscale>
<asrwt>0</asrwt>
<pdfrwt beam="2">  1        1 0.28208768E+00 0.24030917E+03</pdfrwt>
<pdfrwt beam="1">  1       -1 0.53601422E-02 0.24030917E+03</pdfrwt>
<totfact> 0.68827095E+02</totfact>
</mgrwt>
</event>
<event>
12    1  0.4154313E-002  0.2035240E+03  0.7546771E-02  0.1146799E+00
          2   -1    0    0  502    0  0.00000000000E+00  0.00000000000E+00  0.53049980460E+03  0.53049980460E+03  0.00000000000E+00 0. -1.
         -2   -1    0    0    0  501 -0.00000000000E+00 -0.00000000000E+00 -0.81517677354E+02  0.81517677354E+02  0.00000000000E+00 0.  1.
          6    2    1    2  502    0  0.10191509779E+03  0.35007690068E+02  0.28677625423E+03  0.35136141332E+03  0.17205230965E+03 0.  0.
         24    2    3    3    0    0  0.65099434431E+02  0.63432595419E+02  0.94680555675E+02  0.15365907212E+03  0.79906647381E+02 0.  0.
         -6    2    1    2    0  501 -0.10191509779E+03 -0.35007690068E+02  0.16220587301E+03  0.26065606864E+03  0.17325881032E+03 0.  0.
        -24    2    5    5    0    0 -0.11678075828E+03  0.18128515293E+02  0.89316166320E+02  0.16911676820E+03  0.81588694989E+02 0.  0.
          5    1    3    3  502    0  0.36815663362E+02 -0.28424905350E+02  0.19209569855E+03  0.19770234120E+03  0.47000000000E+01 0. -1.
        -13    1    4    4    0    0  0.57657216918E+02  0.66526321238E+02  0.10723366165E+03  0.13874135746E+03  0.00000000000E+00 0.  1.
         14    1    4    4    0    0  0.74422175133E+01 -0.30937258197E+01 -0.12553105971E+02  0.14917714654E+02  0.00000000000E+00 0. -1.
         -5    1    5    5    0  501  0.14865660487E+02 -0.53136205361E+02  0.72889706695E+02  0.91539300434E+02  0.47000000000E+01 0.  1.
         11    1    6    6    0    0  0.10305483337E+01 -0.18507407134E+02  0.21293136719E+02  0.28230901863E+02  0.00000000000E+00 0. -1.
        -12    1    6    6    0    0 -0.11781130661E+03  0.36635922426E+02  0.68023029601E+02  0.14088586634E+03  0.00000000000E+00 0.  1.
<mgrwt>
<rscale>  2 0.20352397E+03</rscale>
<asrwt>0</asrwt>
<pdfrwt beam="1">  1        2 0.81615352E-01 0.20352397E+03</pdfrwt>
<pdfrwt beam="2">  1       -2 0.12541181E-01 0.20352397E+03</pdfrwt>
<totfact> 0.26495727E+03</totfact>
</mgrwt>
</event>
<event>
12    1  0.4154313E-002  0.2288854E+03  0.7546771E-02  0.1127427E+00
          1   -1    0    0  502    0  0.00000000000E+00  0.00000000000E+00  0.12165686269E+04  0.12165686269E+04  0.00000000000E+00 0. -1.
         -1   -1    0    0    0  501 -0.00000000000E+00 -0.00000000000E+00 -0.50305988200E+02  0.50305988200E+02  0.00000000000E+00 0.  1.
          6    2    1    2  502    0 -0.76472525604E+02 -0.12916220490E+03  0.82220365026E+03  0.85331024898E+03  0.17201341854E+03 0.  0.
         24    2    3    3    0    0 -0.76326025601E+02 -0.58155395564E+02  0.28209173199E+03  0.30853051120E+03  0.80047603749E+02 0.  0.
         -6    2    1    2    0  501  0.76472525604E+02  0.12916220490E+03  0.34405898845E+03  0.41356436613E+03  0.17357411977E+03 0.  0.
        -24    2    5    5    0    0  0.59491242533E+02  0.21058605222E+02  0.24651531441E+03  0.26689599672E+03  0.80504658490E+02 0.  0.
          5    1    3    3  502    0 -0.14650000277E+00 -0.71006809340E+02  0.54011191827E+03  0.54477973778E+03  0.47000000000E+01 0. -1.
        -13    1    4    4    0    0 -0.75715935573E+02 -0.74408672362E+02  0.26193779532E+03  0.28263220276E+03  0.00000000000E+00 0.  1.
         14    1    4    4    0    0 -0.61009002856E+00  0.16253276797E+02  0.20153936675E+02  0.25898308439E+02  0.00000000000E+00 0. -1.
         -5    1    5    5    0  501  0.16981283071E+02  0.10810359968E+03  0.97543674039E+02  0.14666836941E+03  0.47000000000E+01 0.  1.
         13    1    6    6    0    0 -0.16688480548E+02  0.65468973558E+01  0.17282249898E+02  0.24900670865E+02  0.00000000000E+00 0. -1.
        -14    1    6    6    0    0  0.76179723081E+02  0.14511707866E+02  0.22923306451E+03  0.24199532586E+03  0.00000000000E+00 0.  1.
<mgrwt>
<rscale>  2 0.22888539E+03</rscale>
<asrwt>0</asrwt>
<pdfrwt beam="1">  1        1 0.18716438E+00 0.22888539E+03</pdfrwt>
<pdfrwt beam="2">  1       -1 0.77393837E-02 0.22888539E+03</pdfrwt>
<totfact> 0.10131972E+03</totfact>
</mgrwt>
</event>
<event>
12    1  0.4154313E-002  0.2122620E+03  0.7546771E-02  0.1139787E+00
         -2   -1    0    0    0  501 -0.00000000000E+00  0.00000000000E+00  0.30685267023E+02  0.30685267023E+02  0.00000000000E+00 0.  1.
          2   -1    0    0  502    0  0.00000000000E+00 -0.00000000000E+00 -0.15379222745E+04  0.15379222745E+04  0.00000000000E+00 0. -1.
          6    2    1    2  502    0 -0.11484946484E+03  0.43145730652E+02 -0.92241820256E+03  0.94665402625E+03  0.17391535689E+03 0.  0.
         24    2    3    3    0    0 -0.72082732755E+02 -0.32033099476E+02 -0.35277759890E+03  0.37046537901E+03  0.81058762249E+02 0.  0.
         -6    2    1    2    0  501  0.11484946484E+03 -0.43145730652E+02 -0.58481880489E+03  0.62195351524E+03  0.17251430932E+03 0.  0.
        -24    2    5    5    0    0  0.36195298742E+02 -0.54920567733E+02 -0.16693834333E+03  0.19654630469E+03  0.80222633985E+02 0.  0.
          5    1    3    3  502    0 -0.42766732080E+02  0.75178830129E+02 -0.56964060366E+03  0.57618864724E+03  0.47000000000E+01 0. -1.
        -11    1    4    4    0    0  0.26287585407E+01  0.21157705693E+02 -0.61510747466E+02  0.65100928837E+02  0.00000000000E+00 0.  1.
         12    1    4    4    0    0 -0.74711491296E+02 -0.53190805169E+02 -0.29126685143E+03  0.30536445017E+03  0.00000000000E+00 0. -1.
         -5    1    5    5    0  501  0.78654166093E+02  0.11774837081E+02 -0.41788046156E+03  0.42540721055E+03  0.47000000000E+01 0.  1.
         11    1    6    6    0    0 -0.22136864604E+02 -0.46229424162E+01 -0.64723406176E+02  0.68560423555E+02  0.00000000000E+00 0. -1.
        -12    1    6    6    0    0  0.58332163346E+02 -0.50297625317E+02 -0.10221493715E+03  0.12798588113E+03  0.00000000000E+00 0.  1.
<mgrwt>
<rscale>  2 0.21226203E+03</rscale>
<asrwt>0</asrwt>
<pdfrwt beam="2">  1        2 0.23660332E+00 0.21226203E+03</pdfrwt>
<pdfrwt beam="1">  1       -2 0.47208125E-02 0.21226203E+03</pdfrwt>
<totfact> 0.27818228E+03</totfact>
</mgrwt>
</event>
<event>
12    1  0.4154313E-002  0.1818819E+03  0.7546771E-02  0.1165994E+00
          1   -1    0    0  502    0  0.00000000000E+00  0.00000000000E+00  0.46311685936E+03  0.46311685936E+03  0.00000000000E+00 0. -1.
         -1   -1    0    0    0  501 -0.00000000000E+00 -0.00000000000E+00 -0.10262194795E+03  0.10262194795E+03  0.00000000000E+00 0.  1.
          6    2    1    2  502    0 -0.41407770452E+02 -0.43003690649E+02  0.24152389019E+02  0.18326600356E+03  0.17157846398E+03 0.  0.
         24    2    3    3    0    0 -0.29521362817E+02  0.42076386617E+02  0.51446861222E+01  0.95156475110E+02  0.79914665655E+02 0.  0.
         -6    2    1    2    0  501  0.41407770452E+02  0.43003690649E+02  0.33634252239E+03  0.38247280375E+03  0.17203264916E+03 0.  0.
        -24    2    5    5    0    0 -0.36141722994E+01 -0.37414221815E+02  0.14010263431E+03  0.16561755330E+03  0.79922084460E+02 0.  0.
          5    1    3    3  502    0 -0.11886407635E+02 -0.85080077266E+02  0.19007702897E+02  0.88109528449E+02  0.47000000000E+01 0. -1.
        -13    1    4    4    0    0 -0.47040808742E+02  0.10778762871E+02 -0.19058418585E+02  0.51886826219E+02  0.00000000000E+00 0.  1.
         14    1    4    4    0    0  0.17519445925E+02  0.31297623746E+02  0.24203104707E+02  0.43269648891E+02  0.00000000000E+00 0. -1.
         -5    1    5    5    0  501  0.45021942752E+02  0.80417912464E+02  0.19623988808E+03  0.21685525045E+03  0.47000000000E+01 0.  1.
         11    1    6    6    0    0 -0.28503573874E+02  0.10367048622E+02  0.76323299305E+02  0.82129017025E+02  0.00000000000E+00 0. -1.
        -12    1    6    6    0    0  0.24889401575E+02 -0.47781270437E+02  0.63779335007E+02  0.83488536275E+02  0.00000000000E+00 0.  1.
<mgrwt>
<rscale>  2 0.18188191E+03</rscale>
<asrwt>0</asrwt>
<pdfrwt beam="1">  1        1 0.71248746E-01 0.18188191E+03</pdfrwt>
<pdfrwt beam="2">  1       -1 0.15787992E-01 0.18188191E+03</pdfrwt>
<totfact> 0.14714532E+03</totfact>
</mgrwt>
</event>
<event>
12    1  0.4154313E-002  0.1764810E+03  0.7546771E-02  0.1171253E+00
         -2   -1    0    0    0  501 -0.00000000000E+00  0.00000000000E+00  0.50289623885E+02  0.50289623885E+02  0.00000000000E+00 0.  1.
          2   -1    0    0  502    0  0.00000000000E+00 -0.00000000000E+00 -0.67758339187E+03  0.67758339187E+03  0.00000000000E+00 0. -1.
          6    2    1    2  502    0  0.10650719798E+02 -0.30104721405E+02 -0.20670008484E+03  0.27169885443E+03  0.17342321165E+03 0.  0.
         24    2    3    3    0    0  0.53530128952E+02  0.14450055802E+02 -0.64660221642E+02  0.11671116253E+03  0.79788923903E+02 0.  0.
         -6    2    1    2    0  501 -0.10650719798E+02  0.30104721405E+02 -0.42059368314E+03  0.45617416132E+03  0.17371265665E+03 0.  0.
        -24    2    5    5    0    0  0.12719500850E+02 -0.28995794937E+02 -0.11692609593E+03  0.14589181931E+03  0.81302947096E+02 0.  0.
          5    1    3    3  502    0 -0.42879409154E+02 -0.44554777207E+02 -0.14203986320E+03  0.15498769190E+03  0.47000000000E+01 0. -1.
        -13    1    4    4    0    0  0.69570669869E+02 -0.57750131706E+01 -0.55960811064E+02  0.89470896151E+02  0.00000000000E+00 0.  1.
         14    1    4    4    0    0 -0.16040540918E+02  0.20225068972E+02 -0.86994105779E+01  0.27240266377E+02  0.00000000000E+00 0. -1.
         -5    1    5    5    0  501 -0.23370220648E+02  0.59100516342E+02 -0.30366758721E+03  0.31028234201E+03  0.47000000000E+01 0.  1.
         11    1    6    6    0    0  0.31958864742E+02 -0.46746903601E+02 -0.56282681959E+02  0.79839728960E+02  0.00000000000E+00 0. -1.
        -12    1    6    6    0    0 -0.19239363892E+02  0.17751108664E+02 -0.60643413970E+02  0.66052090350E+02  0.00000000000E+00 0.  1.
<mgrwt>
<rscale>  2 0.17648099E+03</rscale>
<asrwt>0</asrwt>
<pdfrwt beam="2">  1        2 0.10424359E+00 0.17648099E+03</pdfrwt>
<pdfrwt beam="1">  1       -2 0.77368656E-02 0.17648099E+03</pdfrwt>
<totfact> 0.42705922E+03</totfact>
</mgrwt>
</event>
<event>
12    1  0.4154313E-002  0.1951937E+03  0.7546771E-02  0.1153859E+00
          4   -1    0    0  502    0  0.00000000000E+00  0.00000000000E+00  0.33644615502E+03  0.33644615502E+03  0.00000000000E+00 0.  1.
         -4   -1    0    0    0  501 -0.00000000000E+00 -0.00000000000E+00 -0.11418285928E+03  0.11418285928E+03  0.00000000000E+00 0. -1.
          6    2    1    2  502    0 -0.61823285149E+02 -0.45079400275E+02  0.12659330561E+03  0.22741886802E+03  0.17274028364E+03 0.  0.
         24    2    3    3    0    0 -0.25137363547E+02 -0.35991402854E+02 -0.31179686454E+01  0.92231763571E+02  0.81053737468E+02 0.  0.
         -6    2    1    2    0  501  0.61823285149E+02  0.45079400275E+02  0.95669990135E+02  0.22321014627E+03  0.18658979466E+03 0.  0.
        -24    2    5    5    0    0  0.10199918006E+03  0.44936953329E+02  0.22357088042E+02  0.13947846507E+03  0.80816089522E+02 0.  0.
          5    1    3    3  502    0 -0.36685921602E+02 -0.90879974210E+01  0.12971127426E+03  0.13518710445E+03  0.47000000000E+01 0. -1.
        -13    1    4    4    0    0 -0.37973174226E+01 -0.58394388080E+02  0.86013957999E+01  0.59146497687E+02  0.00000000000E+00 0.  1.
         14    1    4    4    0    0 -0.21340046124E+02  0.22402985227E+02 -0.11719364445E+02  0.33085265885E+02  0.00000000000E+00 0. -1.
         -5    1    5    5    0  501 -0.40175894915E+02  0.14244694553E+00  0.73312902092E+02  0.83731681200E+02  0.47000000000E+01 0.  1.
         11    1    6    6    0    0  0.41228191444E+02  0.61761288336E+02  0.17111039780E+02  0.76203728183E+02  0.00000000000E+00 0. -1.
        -12    1    6    6    0    0  0.60770988620E+02 -0.16824335007E+02  0.52460482622E+01  0.63274736891E+02  0.00000000000E+00 0.  1.
<mgrwt>
<rscale>  2 0.19519371E+03</rscale>
<asrwt>0</asrwt>
<pdfrwt beam="1">  1        4 0.51760946E-01 0.19519371E+03</pdfrwt>
<pdfrwt beam="2">  1       -4 0.17566594E-01 0.19519371E+03</pdfrwt>
<totfact> 0.18233045E+02</totfact>
</mgrwt>
</event>
<event>
12    1  0.4154313E-002  0.3486155E+03  0.7546771E-02  0.1063185E+00
         -3   -1    0    0    0  501 -0.00000000000E+00  0.00000000000E+00  0.31714702254E+03  0.31714702254E+03  0.00000000000E+00 0.  1.
          3   -1    0    0  502    0  0.00000000000E+00 -0.00000000000E+00 -0.38376943877E+03  0.38376943877E+03  0.00000000000E+00 0. -1.
          6    2    1    2  502    0  0.10675019642E+03  0.28139274084E+03 -0.46787576805E+02  0.35256063174E+03  0.17757376687E+03 0.  0.
         24    2    3    3    0    0  0.89203029536E+02  0.27673060022E+03  0.34600782350E+00  0.30183289356E+03  0.81030675275E+02 0.  0.
         -6    2    1    2    0  501 -0.10675019642E+03 -0.28139274084E+03 -0.19834839420E+02  0.34835582957E+03  0.17430113054E+03 0.  0.
        -24    2    5    5    0    0 -0.70883195149E+02 -0.24547744905E+03 -0.69996198860E+02  0.27683938429E+03  0.80355282909E+02 0.  0.
          5    1    3    3  502    0  0.17547166887E+02  0.46621406121E+01 -0.47133584629E+02  0.50727738179E+02  0.47000000000E+01 0. -1.
        -13    1    4    4    0    0  0.22039277219E+02  0.58123799834E+02  0.33720043710E+02  0.70718789549E+02  0.00000000000E+00 0.  1.
         14    1    4    4    0    0  0.67163752316E+02  0.21860680039E+03 -0.33374035887E+02  0.23111410401E+03  0.00000000000E+00 0. -1.
         -5    1    5    5    0  501 -0.35867001274E+02 -0.35915291782E+02  0.50161359440E+02  0.71516445277E+02  0.47000000000E+01 0.  1.
         13    1    6    6    0    0 -0.82016542795E+02 -0.23277084282E+03 -0.77030294100E+02  0.25853944529E+03  0.00000000000E+00 0. -1.
        -14    1    6    6    0    0  0.11133347646E+02 -0.12706606234E+02  0.70340952398E+01  0.18299939006E+02  0.00000000000E+00 0.  1.
<mgrwt>
<rscale>  2 0.34861552E+03</rscale>
<asrwt>0</asrwt>
<pdfrwt beam="2">  1        3 0.59041452E-01 0.34861552E+03</pdfrwt>
<pdfrwt beam="1">  1       -3 0.48791850E-01 0.34861552E+03</pdfrwt>
<totfact> 0.30097022E+01</totfact>
</mgrwt>
</event>
<event>
12    1  0.4154313E-002  0.1791379E+03  0.7546771E-02  0.1168640E+00
         -1   -1    0    0    0  501 -0.00000000000E+00  0.00000000000E+00  0.46709036407E+03  0.46709036407E+03  0.00000000000E+00 0. -1.
          1   -1    0    0  502    0  0.00000000000E+00 -0.00000000000E+00 -0.80298961179E+02  0.80298961179E+02  0.00000000000E+00 0.  1.
          6    2    1    2  502    0  0.22956416784E+02  0.43838152181E+02  0.89241450734E+02  0.19999470135E+03  0.17200309120E+03 0.  0.
         24    2    3    3    0    0  0.34753463675E+02 -0.20319690820E+02 -0.27980720177E+01  0.87084281630E+02  0.77169617257E+02 0.  0.
         -6    2    1    2    0  501 -0.22956416784E+02 -0.43838152181E+02  0.29754995216E+03  0.34739462389E+03  0.17233186015E+03 0.  0.
        -24    2    5    5    0    0 -0.81348736233E+02 -0.31262917478E+02  0.20688211375E+03  0.23871828599E+03  0.81186354652E+02 0.  0.
          5    1    3    3  502    0 -0.11797046891E+02  0.64157843001E+02  0.92039522751E+02  0.11291041972E+03  0.47000000000E+01 0. -1.
        -13    1    4    4    0    0  0.47830695644E+02  0.85113468331E+01  0.14899125614E+02  0.50815375772E+02  0.00000000000E+00 0.  1.
         14    1    4    4    0    0 -0.13077231969E+02 -0.28831037654E+02 -0.17697197632E+02  0.36268905859E+02  0.00000000000E+00 0. -1.
         -5    1    5    5    0  501  0.58392319449E+02 -0.12575234703E+02  0.90667838409E+02  0.10867633790E+03  0.47000000000E+01 0.  1.
         11    1    6    6    0    0 -0.87772286973E+02 -0.45935973283E+02  0.15108438219E+03  0.18066703779E+03  0.00000000000E+00 0. -1.
        -12    1    6    6    0    0  0.64235507394E+01  0.14673055805E+02  0.55797731556E+02  0.58051248200E+02  0.00000000000E+00 0.  1.
<mgrwt>
<rscale>  2 0.17913793E+03</rscale>
<asrwt>0</asrwt>
<pdfrwt beam="2">  1        1 0.12353687E-01 0.17913793E+03</pdfrwt>
<pdfrwt beam="1">  1       -1 0.71860054E-01 0.17913793E+03</pdfrwt>
<totfact> 0.97433335E+02</totfact>
</mgrwt>
</event>
<event>
12    1  0.4154313E-002  0.1845333E+03  0.7546771E-02  0.1163486E+00
          1   -1    0    0  502    0  0.00000000000E+00  0.00000000000E+00  0.25171329869E+03  0.25171329869E+03  0.00000000000E+00 0. -1.
         -1   -1    0    0    0  501 -0.00000000000E+00 -0.00000000000E+00 -0.16415550170E+03  0.16415550170E+03  0.00000000000E+00 0.  1.
          6    2    1    2  502    0 -0.56861301907E+02 -0.31481022025E+02  0.13087619173E+03  0.22579274925E+03  0.17213229113E+03 0.  0.
         24    2    3    3    0    0 -0.18905231858E+02 -0.27721680165E+02  0.12970814068E+02  0.10178241103E+03  0.95213012947E+02 0.  0.
         -6    2    1    2    0  501  0.56861301907E+02  0.31481022025E+02 -0.43318394747E+02  0.19007605114E+03  0.17328635113E+03 0.  0.
        -24    2    5    5    0    0 -0.24927800672E+02  0.32378403237E+02 -0.71461459377E+01  0.10051722032E+03  0.91558112344E+02 0.  0.
          5    1    3    3  502    0 -0.37956070049E+02 -0.37593418600E+01  0.11790537766E+03  0.12401033822E+03  0.47000000000E+01 0. -1.
        -11    1    4    4    0    0  0.48653854734E+01 -0.58059383377E+02 -0.64605210193E+01  0.58619982137E+02  0.00000000000E+00 0.  1.
         12    1    4    4    0    0 -0.23770617332E+02  0.30337703212E+02  0.19431335088E+02  0.43162428891E+02  0.00000000000E+00 0. -1.
         -5    1    5    5    0  501  0.81789102579E+02 -0.89738121214E+00 -0.36172248809E+02  0.89558830819E+02  0.47000000000E+01 0.  1.
         11    1    6    6    0    0 -0.34048362331E+02 -0.17111915863E+02  0.20320268906E+02  0.43185900133E+02  0.00000000000E+00 0. -1.
        -12    1    6    6    0    0  0.91205616589E+01  0.49490319100E+02 -0.27466414844E+02  0.57331320183E+02  0.00000000000E+00 0.  1.
<mgrwt>
<rscale>  2 0.18453325E+03</rscale>
<asrwt>0</asrwt>
<pdfrwt beam="1">  1        1 0.38725123E-01 0.18453325E+03</pdfrwt>
<pdfrwt beam="2">  1       -1 0.25254693E-01 0.18453325E+03</pdfrwt>
<totfact> 0.14856807E+03</totfact>
</mgrwt>
</event>
<event>
12    1  0.4154313E-002  0.2231920E+03  0.7546771E-02  0.1131525E+00
         -2   -1    0    0    0  501 -0.00000000000E+00  0.00000000000E+00  0.54614560343E+03  0.54614560343E+03  0.00000000000E+00 0. -1.
          2   -1    0    0  502    0  0.00000000000E+00 -0.00000000000E+00 -0.99452784712E+02  0.99452784712E+02  0.00000000000E+00 0.  1.
          6    2    1    2  502    0 -0.13948892299E+03 -0.30168985666E+01  0.31663340551E+03  0.38762006442E+03  0.17471788558E+03 0.  0.
         24    2    3    3    0    0 -0.78873067717E+02  0.63918306322E+02  0.22165463811E+03  0.25648021609E+03  0.79654327910E+02 0.  0.
         -6    2    1    2    0  501  0.13948892299E+03  0.30168985666E+01  0.13005941321E+03  0.25797832372E+03  0.17369831097E+03 0.  0.
        -24    2    5    5    0    0  0.12653992579E+03  0.57942277470E+02  0.11883274414E+03  0.20024963177E+03  0.81295963034E+02 0.  0.
          5    1    3    3  502    0 -0.60615855273E+02 -0.66935204889E+02  0.94978767401E+02  0.13113984833E+03  0.47000000000E+01 0. -1.
        -11    1    4    4    0    0 -0.16271191081E+02 -0.17421608920E+02  0.24359716069E+02  0.34083131950E+02  0.00000000000E+00 0.  1.
         12    1    4    4    0    0 -0.62601876635E+02  0.81339915242E+02  0.19729492204E+03  0.22239708414E+03  0.00000000000E+00 0. -1.
         -5    1    5    5    0  501  0.12948997195E+02 -0.54925378904E+02  0.11226669068E+02  0.57728691951E+02  0.47000000000E+01 0.  1.
         13    1    6    6    0    0  0.13477549228E+02  0.38400552429E+02  0.95650962556E+01  0.41805954438E+02  0.00000000000E+00 0. -1.
        -14    1    6    6    0    0  0.11306237657E+03  0.19541725041E+02  0.10926764788E+03  0.15844367733E+03  0.00000000000E+00 0.  1.
<mgrwt>
<rscale>  2 0.22319199E+03</rscale>
<asrwt>0</asrwt>
<pdfrwt beam="2">  1        2 0.15300429E-01 0.22319199E+03</pdfrwt>
<pdfrwt beam="1">  1       -2 0.84022399E-01 0.22319199E+03</pdfrwt>
<totfact> 0.48548059E+02</totfact>
</mgrwt>
</event>
<event>
12    1  0.4154313E-002  0.2303918E+03  0.7546771E-02  0.1126364E+00
         -1   -1    0    0    0  501 -0.00000000000E+00  0.00000000000E+00  0.16203641678E+04  0.16203641678E+04  0.00000000000E+00 0. -1.
          1   -1    0    0  502    0  0.00000000000E+00 -0.00000000000E+00 -0.65757679309E+02  0.65757679309E+02  0.00000000000E+00 0.  1.
          6    2    1    2  502    0  0.14997411788E+03  0.23496751474E+02  0.18003692944E+03  0.29237404546E+03  0.17327709927E+03 0.  0.
         24    2    3    3    0    0  0.10552134098E+03 -0.18598307731E+02  0.18716761163E+03  0.23055996930E+03  0.81520145638E+02 0.  0.
         -6    2    1    2    0  501 -0.14997411788E+03 -0.23496751474E+02  0.13745695591E+04  0.13937478017E+04  0.17334107581E+03 0.  0.
        -24    2    5    5    0    0 -0.14375392952E+03  0.26498744249E+02  0.12175081585E+04  0.12287368508E+04  0.78107342540E+02 0.  0.
          5    1    3    3  502    0  0.44452776900E+02  0.42095059205E+02 -0.71306821927E+01  0.61814076165E+02  0.47000000000E+01 0. -1.
        -11    1    4    4    0    0  0.60319179813E+02 -0.26993233862E+02  0.42035734675E+02  0.78320119493E+02  0.00000000000E+00 0.  1.
         12    1    4    4    0    0  0.45202161169E+02  0.83949261317E+01  0.14513187696E+03  0.15223984980E+03  0.00000000000E+00 0. -1.
         -5    1    5    5    0  501 -0.62201883673E+01 -0.49995495723E+02  0.15706140058E+03  0.16501095081E+03  0.47000000000E+01 0.  1.
         13    1    6    6    0    0 -0.11557387835E+03  0.39047232633E+02  0.11159250708E+04  0.11225732811E+04  0.00000000000E+00 0. -1.
        -14    1    6    6    0    0 -0.28180051169E+02 -0.12548488384E+02  0.10158308769E+03  0.10616356978E+03  0.00000000000E+00 0.  1.
<mgrwt>
<rscale>  2 0.23039178E+03</rscale>
<asrwt>0</asrwt>
<pdfrwt beam="2">  1        1 0.10116567E-01 0.23039178E+03</pdfrwt>
<pdfrwt beam="1">  1       -1 0.24928677E+00 0.23039178E+03</pdfrwt>
<totfact> 0.51154220E+01</totfact>
</mgrwt>
</event>
<event>
12    1  0.4154313E-002  0.1975343E+03  0.7546771E-02  0.1151836E+00
         -1   -1    0    0    0  501 -0.00000000000E+00  0.00000000000E+00  0.67628319160E+02  0.67628319160E+02  0.00000000000E+00 0.  1.
          1   -1    0    0  502    0  0.00000000000E+00 -0.00000000000E+00 -0.58286630062E+03  0.58286630062E+03  0.00000000000E+00 0. -1.
          6    2    1    2  502    0  0.84647668111E+02 -0.44805532430E+02 -0.22523897799E+03  0.29974960165E+03  0.17304468506E+03 0.  0.
         24    2    3    3    0    0  0.94562089625E-01  0.20042266525E+02 -0.55959495611E+02  0.99669372933E+02  0.80005108352E+02 0.  0.
         -6    2    1    2    0  501 -0.84647668111E+02  0.44805532430E+02 -0.28999900346E+03  0.35074501813E+03  0.17248154185E+03 0.  0.
        -24    2    5    5    0    0 -0.10021225202E+03  0.69428758482E+02 -0.28566839221E+03  0.32092214557E+03  0.80757323207E+02 0.  0.
          5    1    3    3  502    0  0.84553106021E+02 -0.64847798955E+02 -0.16927948238E+03  0.20008022872E+03  0.47000000000E+01 0. -1.
        -11    1    4    4    0    0  0.35235705262E+01 -0.16396528411E+02  0.13253201726E+02  0.21375430971E+02  0.00000000000E+00 0.  1.
         12    1    4    4    0    0 -0.34290084366E+01  0.36438794937E+02 -0.69212697337E+02  0.78293941963E+02  0.00000000000E+00 0. -1.
         -5    1    5    5    0  501  0.15564583909E+02 -0.24623226052E+02 -0.43306112497E+01  0.29822872553E+02  0.47000000000E+01 0.  1.
         11    1    6    6    0    0 -0.41695969820E+02  0.26182283161E+01 -0.17017856360E+03  0.17523171097E+03  0.00000000000E+00 0. -1.
        -12    1    6    6    0    0 -0.58516282199E+02  0.66810530166E+02 -0.11548982861E+03  0.14569043460E+03  0.00000000000E+00 0.  1.
<mgrwt>
<rscale>  2 0.19753434E+03</rscale>
<asrwt>0</asrwt>
<pdfrwt beam="2">  1        1 0.89671742E-01 0.19753434E+03</pdfrwt>
<pdfrwt beam="1">  1       -1 0.10404356E-01 0.19753434E+03</pdfrwt>
<totfact> 0.20824660E+03</totfact>
</mgrwt>
</event>
<event>
12    1  0.4154313E-002  0.1832508E+03  0.7546771E-02  0.1164694E+00
          2   -1    0    0  502    0  0.00000000000E+00  0.00000000000E+00  0.53847020122E+03  0.53847020122E+03  0.00000000000E+00 0.  1.
         -2   -1    0    0    0  501 -0.00000000000E+00 -0.00000000000E+00 -0.63792154086E+02  0.63792154086E+02  0.00000000000E+00 0. -1.
          6    2    1    2  502    0  0.58170230136E+02 -0.22612676383E+01  0.28268498451E+03  0.33700633282E+03  0.17399304263E+03 0.  0.
         24    2    3    3    0    0  0.66346810187E+01  0.45884742709E+02  0.23237309275E+03  0.25024615999E+03  0.80476442222E+02 0.  0.
         -6    2    1    2    0  501 -0.58170230136E+02  0.22612676383E+01  0.19199306262E+03  0.26525602249E+03  0.17352386685E+03 0.  0.
        -24    2    5    5    0    0 -0.98705425841E+02 -0.12376881725E+02  0.17963581801E+03  0.22017643729E+03  0.79452426843E+02 0.  0.
          5    1    3    3  502    0  0.51535549117E+02 -0.48146010347E+02  0.50311891765E+02  0.86760172822E+02  0.47000000000E+01 0. -1.
        -11    1    4    4    0    0  0.38476523669E+02  0.44479199810E+02  0.17494746433E+03  0.18456830000E+03  0.00000000000E+00 0.  1.
         12    1    4    4    0    0 -0.31841842651E+02  0.14055428995E+01  0.57425628423E+02  0.65677859999E+02  0.00000000000E+00 0. -1.
         -5    1    5    5    0  501  0.40535195705E+02  0.14638149363E+02  0.12357244607E+02  0.45079585201E+02  0.47000000000E+01 0.  1.
         13    1    6    6    0    0 -0.64652574192E+02  0.23968641124E+02  0.14164124799E+03  0.15753315283E+03  0.00000000000E+00 0. -1.
        -14    1    6    6    0    0 -0.34052851649E+02 -0.36345522849E+02  0.37994570017E+02  0.62643284456E+02  0.00000000000E+00 0.  1.
<mgrwt>
<rscale>  2 0.18325077E+03</rscale>
<asrwt>0</asrwt>
<pdfrwt beam="1">  1        2 0.82841567E-01 0.18325077E+03</pdfrwt>
<pdfrwt beam="2">  1       -2 0.98141779E-02 0.18325077E+03</pdfrwt>
<totfact> 0.38425343E+03</totfact>
</mgrwt>
</event>
<event>
12    1  0.4154313E-002  0.2161433E+03  0.7546771E-02  0.1136791E+00
          2   -1    0    0  502    0  0.00000000000E+00  0.00000000000E+00  0.16906138405E+04  0.16906138405E+04  0.00000000000E+00 0. -1.
         -2   -1    0    0    0  501 -0.00000000000E+00 -0.00000000000E+00 -0.45663934494E+02  0.45663934494E+02  0.00000000000E+00 0.  1.
          6    2    1    2  502    0  0.12862603220E+03 -0.15397200038E+02  0.13683674180E+04  0.13853588500E+04  0.17322823832E+03 0.  0.
         24    2    3    3    0    0  0.27086754976E+02 -0.46203277445E+01  0.98496319853E+03  0.98856261596E+03  0.79677496810E+02 0.  0.
         -6    2    1    2    0  501 -0.12862603220E+03  0.15397200038E+02  0.27658248797E+03  0.35091892501E+03  0.17281345246E+03 0.  0.
        -24    2    5    5    0    0 -0.16834783616E+02 -0.29422750991E+02  0.16503586694E+03  0.18669088254E+03  0.80421017348E+02 0.  0.
          5    1    3    3  502    0  0.10153927723E+03 -0.10776872294E+02  0.38340421950E+03  0.39679623401E+03  0.47000000000E+01 0. -1.
        -11    1    4    4    0    0 -0.63623155139E+01 -0.30600309476E+02  0.19717790410E+03  0.19963963500E+03  0.00000000000E+00 0.  1.
         12    1    4    4    0    0  0.33449070490E+02  0.25979981732E+02  0.78778529443E+03  0.78892298096E+03  0.00000000000E+00 0. -1.
         -5    1    5    5    0  501 -0.11179124859E+03  0.44819951029E+02  0.11154662102E+03  0.16422804247E+03  0.47000000000E+01 0.  1.
         13    1    6    6    0    0 -0.17388672907E+02 -0.23066088920E+02  0.17361354509E+03  0.17600020864E+03  0.00000000000E+00 0. -1.
        -14    1    6    6    0    0  0.55388929089E+00 -0.63566620715E+01 -0.85776781466E+01  0.10690673899E+02  0.00000000000E+00 0.  1.
<mgrwt>
<rscale>  2 0.21614331E+03</rscale>
<asrwt>0</asrwt>
<pdfrwt beam="1">  1        2 0.26009439E+00 0.21614331E+03</pdfrwt>
<pdfrwt beam="2">  1       -2 0.70252220E-02 0.21614331E+03</pdfrwt>
<totfact> 0.12586886E+03</totfact>
</mgrwt>
</event>
<event>
12    1  0.4154313E-002  0.1924913E+03  0.7546771E-02  0.1156233E+00
          1   -1    0    0  502    0  0.00000000000E+00  0.00000000000E+00  0.31599527785E+03  0.31599527785E+03  0.00000000000E+00 0.  1.
         -1   -1    0    0    0  501 -0.00000000000E+00 -0.00000000000E+00 -0.17201764416E+03  0.17201764416E+03  0.00000000000E+00 0. -1.
          6    2    1    2  502    0  0.61252212722E+01 -0.85285286324E+02 -0.65684898267E+02  0.20338396712E+03  0.17245125057E+03 0.  0.
         24    2    3    3    0    0  0.24195042021E+02 -0.91965264781E+02  0.96628965759E+01  0.12547042066E+03  0.81280040023E+02 0.  0.
         -6    2    1    2    0  501 -0.61252212722E+01  0.85285286324E+02  0.20966253196E+03  0.28462895489E+03  0.17246497110E+03 0.  0.
        -24    2    5    5    0    0  0.22581473913E+02  0.11277100320E+03  0.11283137096E+03  0.17985346768E+03  0.79932030095E+02 0.  0.
          5    1    3    3  502    0 -0.18069820749E+02  0.66799784572E+01 -0.75347794843E+02  0.77913546459E+02  0.47000000000E+01 0. -1.
        -11    1    4    4    0    0 -0.20462371274E+02 -0.49336629503E+02  0.28998647024E+02  0.60776090514E+02  0.00000000000E+00 0.  1.
         12    1    4    4    0    0  0.44657413295E+02 -0.42628635278E+02 -0.19335750448E+02  0.64694330148E+02  0.00000000000E+00 0. -1.
         -5    1    5    5    0  501 -0.28706695186E+02 -0.27485716880E+02  0.96831160996E+02  0.10477548721E+03  0.47000000000E+01 0.  1.
         11    1    6    6    0    0  0.23831621093E+02 -0.23922288022E+01  0.27798611790E+02  0.36693756145E+02  0.00000000000E+00 0. -1.
        -12    1    6    6    0    0 -0.12501471796E+01  0.11516323201E+03  0.85032759173E+02  0.14315971153E+03  0.00000000000E+00 0.  1.
<mgrwt>
<rscale>  2 0.19249129E+03</rscale>
<asrwt>0</asrwt>
<pdfrwt beam="1">  1        1 0.48614658E-01 0.19249129E+03</pdfrwt>
<pdfrwt beam="2">  1       -1 0.26464253E-01 0.19249129E+03</pdfrwt>
<totfact> 0.10353329E+03</totfact>
</mgrwt>
</event>
<event>
12    1  0.4154313E-002  0.1737727E+03  0.7546771E-02  0.1173970E+00
          2   -1    0    0  502    0  0.00000000000E+00  0.00000000000E+00  0.13338055131E+04  0.13338055131E+04  0.00000000000E+00 0.  1.
         -2   -1    0    0    0  501 -0.00000000000E+00 -0.00000000000E+00 -0.55848001974E+02  0.55848001974E+02  0.00000000000E+00 0. -1.
          6    2    1    2  502    0  0.81276815416E+00 -0.16576189785E+01  0.10314655055E+03  0.20205628458E+03  0.17373578491E+03 0.  0.
         24    2    3    3    0    0 -0.41690235140E+01  0.23394603513E+02 -0.11435159469E+02  0.84568028276E+02  0.80351106425E+02 0.  0.
         -6    2    1    2    0  501 -0.81276815416E+00  0.16576189785E+01  0.11748109606E+04  0.11875972305E+04  0.17379004712E+03 0.  0.
        -24    2    5    5    0    0 -0.44941020915E+01  0.57889549791E+02  0.46920108759E+03  0.47972509153E+03  0.81333301392E+02 0.  0.
          5    1    3    3  502    0  0.49817916681E+01 -0.25052222491E+02  0.11458171001E+03  0.11748825631E+03  0.47000000000E+01 0. -1.
        -11    1    4    4    0    0 -0.10994201793E+02  0.47823996350E+02  0.11467244720E+02  0.50393499595E+02  0.00000000000E+00 0.  1.
         12    1    4    4    0    0  0.68251782791E+01 -0.24429392837E+02 -0.22902404189E+02  0.34174528681E+02  0.00000000000E+00 0. -1.
         -5    1    5    5    0  501  0.36813339374E+01 -0.56231930813E+02  0.70560987297E+03  0.70787213895E+03  0.47000000000E+01 0.  1.
         13    1    6    6    0    0 -0.30806802515E+02 -0.19432609655E+01  0.95918152175E+02  0.10076272754E+03  0.00000000000E+00 0. -1.
        -14    1    6    6    0    0  0.26312700424E+02  0.59832810757E+02  0.37328293542E+03  0.37896236399E+03  0.00000000000E+00 0.  1.
<mgrwt>
<rscale>  2 0.17377272E+03</rscale>
<asrwt>0</asrwt>
<pdfrwt beam="1">  1        2 0.20520082E+00 0.17377272E+03</pdfrwt>
<pdfrwt beam="2">  1       -2 0.85920013E-02 0.17377272E+03</pdfrwt>
<totfact> 0.14259487E+03</totfact>
</mgrwt>
</event>
<event>
12    1  0.4154313E-002  0.2000140E+03  0.7546771E-02  0.1149727E+00
         -1   -1    0    0    0  501 -0.00000000000E+00  0.00000000000E+00  0.38666142660E+02  0.38666142660E+02  0.00000000000E+00 0.  1.
          1   -1    0    0  502    0  0.00000000000E+00 -0.00000000000E+00 -0.16257581647E+04  0.16257581647E+04  0.00000000000E+00 0. -1.
          6    2    1    2  502    0 -0.21376784965E+02  0.99897799428E+02 -0.28968819162E+03  0.35156902214E+03  0.17101167124E+03 0.  0.
         24    2    3    3    0    0  0.24972082426E+02  0.85375265677E+02 -0.10588810978E+03  0.16140151288E+03  0.83220284045E+02 0.  0.
         -6    2    1    2    0  501  0.21376784965E+02 -0.99897799428E+02 -0.12974038304E+04  0.13128552852E+04  0.17290391397E+03 0.  0.
        -24    2    5    5    0    0  0.67921740350E+02 -0.72483009759E+02 -0.57032324660E+03  0.58375565627E+03  0.75066044905E+02 0.  0.
          5    1    3    3  502    0 -0.46348867391E+02  0.14522533751E+02 -0.18380008184E+03  0.19016750927E+03  0.47000000000E+01 0. -1.
        -13    1    4    4    0    0  0.62741186108E+01 -0.13365686479E+02 -0.36234153312E+02  0.39126972866E+02  0.00000000000E+00 0.  1.
         14    1    4    4    0    0  0.18697963815E+02  0.98740952156E+02 -0.69653956464E+02  0.12227454001E+03  0.00000000000E+00 0. -1.
         -5    1    5    5    0  501 -0.46544955385E+02 -0.27414789669E+02 -0.72708058382E+03  0.72909962895E+03  0.47000000000E+01 0.  1.
         11    1    6    6    0    0 -0.13305328453E+01 -0.41729393034E+01 -0.22367692006E+03  0.22371979865E+03  0.00000000000E+00 0. -1.
        -12    1    6    6    0    0  0.69252273195E+02 -0.68310070456E+02 -0.34664632654E+03  0.36003585762E+03  0.00000000000E+00 0.  1.
<mgrwt>
<rscale>  2 0.20001398E+03</rscale>
<asrwt>0</asrwt>
<pdfrwt beam="2">  1        1 0.25011667E+00 0.20001398E+03</pdfrwt>
<pdfrwt beam="1">  1       -1 0.59486366E-02 0.20001398E+03</pdfrwt>
<totfact> 0.80646651E+02</totfact>
</mgrwt>
</event>
<event>
12    1  0.4154313E-002  0.2583829E+03  0.7546771E-02  0.1108119E+00
         -2   -1    0    0    0  501 -0.00000000000E+00  0.00000000000E+00  0.91560406903E+02  0.91560406903E+02  0.00000000000E+00 0.  1.
          2   -1    0    0  502    0  0.00000000000E+00 -0.00000000000E+00 -0.87175110979E+03  0.87175110979E+03  0.00000000000E+00 0. -1.
          6    2    1    2  502    0 -0.17300517649E+03 -0.85943748647E+02 -0.58405030887E+03  0.63838236614E+03  0.17058769908E+03 0.  0.
         24    2    3    3    0    0 -0.76464740318E+02 -0.17643244625E+02 -0.14816464281E+03  0.18671499013E+03  0.82168032528E+02 0.  0.
         -6    2    1    2    0  501  0.17300517649E+03  0.85943748647E+02 -0.19614039402E+03  0.32492915056E+03  0.17260005705E+03 0.  0.
        -24    2    5    5    0    0  0.11091056198E+03 -0.67777159583E+01 -0.15264577209E+03  0.20506721629E+03  0.80029627440E+02 0.  0.
          5    1    3    3  502    0 -0.96540436168E+02 -0.68300504022E+02 -0.43588566607E+03  0.45166737601E+03  0.47000000000E+01 0. -1.
        -11    1    4    4    0    0 -0.55392405308E+02  0.20923968035E+02 -0.44347174263E+02  0.73978394611E+02  0.00000000000E+00 0.  1.
         12    1    4    4    0    0 -0.21072335011E+02 -0.38567212659E+02 -0.10381746854E+03  0.11273659552E+03  0.00000000000E+00 0. -1.
         -5    1    5    5    0  501  0.62094614509E+02  0.92721464605E+02 -0.43494621923E+02  0.11986193426E+03  0.47000000000E+01 0.  1.
         13    1    6    6    0    0  0.54304212539E+02 -0.15329573077E+02 -0.13311179250E+03  0.14457763524E+03  0.00000000000E+00 0. -1.
        -14    1    6    6    0    0  0.56606349437E+02  0.85518571189E+01 -0.19533979596E+02  0.60489581051E+02  0.00000000000E+00 0.  1.
<mgrwt>
<rscale>  2 0.25838285E+03</rscale>
<asrwt>0</asrwt>
<pdfrwt beam="2">  1        2 0.13411556E+00 0.25838285E+03</pdfrwt>
<pdfrwt beam="1">  1       -2 0.14086216E-01 0.25838285E+03</pdfrwt>
<totfact> 0.12062242E+03</totfact>
</mgrwt>
</event>
<event>
12    1  0.4154313E-002  0.1964895E+03  0.7546771E-02  0.1152735E+00
          2   -1    0    0  502    0  0.00000000000E+00  0.00000000000E+00  0.65832697356E+03  0.65832697356E+03  0.00000000000E+00 0. -1.
         -2   -1    0    0    0  501 -0.00000000000E+00 -0.00000000000E+00 -0.67203121105E+02  0.67203121105E+02  0.00000000000E+00 0.  1.
          6    2    1    2  502    0  0.84483154801E+02  0.38641641586E+02  0.16570473092E+03  0.25679536752E+03  0.17278664017E+03 0.  0.
         24    2    3    3    0    0  0.70879061263E+02  0.59233810153E+02  0.40345948936E+02  0.12894380129E+03  0.80412826746E+02 0.  0.
         -6    2    1    2    0  501 -0.84483154801E+02 -0.38641641586E+02  0.42541912153E+03  0.46873472714E+03  0.17349419458E+03 0.  0.
        -24    2    5    5    0    0 -0.33359364107E+01 -0.58298764995E+02  0.84409425583E+02  0.11762081929E+03  0.57444160120E+02 0.  0.
          5    1    3    3  502    0  0.13604093538E+02 -0.20592168567E+02  0.12535878198E+03  0.12785156623E+03  0.47000000000E+01 0. -1.
        -13    1    4    4    0    0  0.72523136798E+02  0.34755385562E+02  0.57625741620E+02  0.98935677558E+02  0.00000000000E+00 0.  1.
         14    1    4    4    0    0 -0.16440755352E+01  0.24478424591E+02 -0.17279792684E+02  0.30008123734E+02  0.00000000000E+00 0. -1.
         -5    1    5    5    0  501 -0.81147218390E+02  0.19657123408E+02  0.34100969595E+03  0.35111390785E+03  0.47000000000E+01 0.  1.
         11    1    6    6    0    0 -0.26319748675E+02 -0.19841556078E+02  0.18124998361E+02  0.37615582987E+02  0.00000000000E+00 0. -1.
        -12    1    6    6    0    0  0.22983812264E+02 -0.38457208917E+02  0.66284427222E+02  0.80005236304E+02  0.00000000000E+00 0.  1.
<mgrwt>
<rscale>  2 0.19648948E+03</rscale>
<asrwt>0</asrwt>
<pdfrwt beam="1">  1        2 0.10128107E+00 0.19648948E+03</pdfrwt>
<pdfrwt beam="2">  1       -2 0.10338942E-01 0.19648948E+03</pdfrwt>
<totfact> 0.28134410E+03</totfact>
</mgrwt>
</event>
<event>
12    1  0.4154313E-002  0.2292330E+03  0.7546771E-02  0.1127181E+00
          2   -1    0    0  502    0  0.00000000000E+00  0.00000000000E+00  0.60192373561E+03  0.60192373561E+03  0.00000000000E+00 0. -1.
         -2   -1    0    0    0  501 -0.00000000000E+00 -0.00000000000E+00 -0.12999198143E+03  0.12999198143E+03  0.00000000000E+00 0.  1.
          6    2    1    2  502    0  0.13267527324E+03 -0.81567600382E+02  0.44334557424E+03  0.49760385499E+03  0.16370185319E+03 0.  0.
         24    2    3    3    0    0  0.34047452562E+02  0.33576142944E+01  0.26385516990E+03  0.27584129198E+03  0.72789869345E+02 0.  0.
         -6    2    1    2    0  501 -0.13267527324E+03  0.81567600382E+02  0.28586179941E+02  0.23431186206E+03  0.17271038607E+03 0.  0.
        -24    2    5    5    0    0 -0.11552067128E+03  0.15217587195E+02  0.64101212898E+02  0.15698132356E+03  0.83412049481E+02 0.  0.
          5    1    3    3  502    0  0.98627820682E+02 -0.84925214677E+02  0.17949040434E+03  0.22176256301E+03  0.47000000000E+01 0. -1.
        -13    1    4    4    0    0 -0.13577679086E+02 -0.21420161542E+02  0.11010391299E+03  0.11298693883E+03  0.00000000000E+00 0.  1.
         14    1    4    4    0    0  0.47625131648E+02  0.24777775836E+02  0.15375125690E+03  0.16285435315E+03  0.00000000000E+00 0. -1.
         -5    1    5    5    0  501 -0.17154601964E+02  0.66350013187E+02 -0.35515032958E+02  0.77330538499E+02  0.47000000000E+01 0.  1.
         13    1    6    6    0    0 -0.40884188063E+02  0.40751714800E+02  0.50979825685E+02  0.77014035861E+02  0.00000000000E+00 0. -1.
        -14    1    6    6    0    0 -0.74636483217E+02 -0.25534127605E+02  0.13121387213E+02  0.79967287699E+02  0.00000000000E+00 0.  1.
<mgrwt>
<rscale>  2 0.22923295E+03</rscale>
<asrwt>0</asrwt>
<pdfrwt beam="1">  1        2 0.92603650E-01 0.22923295E+03</pdfrwt>
<pdfrwt beam="2">  1       -2 0.19998767E-01 0.22923295E+03</pdfrwt>
<totfact> 0.10578143E+03</totfact>
</mgrwt>
</event>
<event>
12    1  0.4154313E-002  0.1956759E+03  0.7546771E-02  0.1153439E+00
          2   -1    0    0  502    0  0.00000000000E+00  0.00000000000E+00  0.28923431609E+04  0.28923431609E+04  0.00000000000E+00 0.  1.
         -2   -1    0    0    0  501 -0.00000000000E+00 -0.00000000000E+00 -0.13530956874E+02  0.13530956874E+02  0.00000000000E+00 0. -1.
          6    2    1    2  502    0  0.21673195325E+02 -0.80548652172E+02  0.12472424503E+04  0.12629474682E+04  0.18017981224E+03 0.  0.
         24    2    3    3    0    0 -0.32751470890E+01 -0.11618989010E+03  0.85600829603E+03  0.86927378210E+03  0.96829170289E+02 0.  0.
         -6    2    1    2    0  501 -0.21673195325E+02  0.80548652172E+02  0.16315697537E+04  0.16429266496E+04  0.17386863426E+03 0.  0.
        -24    2    5    5    0    0  0.80647845302E+01  0.11252913110E+03  0.14273400025E+04  0.14340272007E+04  0.80041760751E+02 0.  0.
          5    1    3    3  502    0  0.24948342414E+02  0.35641237929E+02  0.39123415431E+03  0.39367368611E+03  0.47000000000E+01 0. -1.
        -11    1    4    4    0    0  0.43026420015E+02 -0.79948018169E+02  0.58089289976E+03  0.58794516701E+03  0.00000000000E+00 0.  1.
         12    1    4    4    0    0 -0.46301567104E+02 -0.36241871932E+02  0.27511539628E+03  0.28132861509E+03  0.00000000000E+00 0. -1.
         -5    1    5    5    0  501 -0.29737979856E+02 -0.31980478928E+02  0.20422975116E+03  0.20889944887E+03  0.47000000000E+01 0.  1.
         11    1    6    6    0    0 -0.16849895538E+02 -0.13012056476E+01  0.86637419185E+02  0.88270349036E+02  0.00000000000E+00 0. -1.
        -12    1    6    6    0    0  0.24914680068E+02  0.11383033675E+03  0.13407025833E+04  0.13457568517E+04  0.00000000000E+00 0.  1.
<mgrwt>
<rscale>  2 0.19567588E+03</rscale>
<asrwt>0</asrwt>
<pdfrwt beam="1">  1        2 0.44497538E+00 0.19567588E+03</pdfrwt>
<pdfrwt beam="2">  1       -2 0.20816880E-02 0.19567588E+03</pdfrwt>
<totfact> 0.17755812E+03</totfact>
</mgrwt>
</event>
<event>
12    1  0.4154313E-002  0.2460493E+03  0.7546771E-02  0.1115827E+00
         -1   -1    0    0    0  501 -0.00000000000E+00  0.00000000000E+00  0.76408689694E+03  0.76408689694E+03  0.00000000000E+00 0. -1.
          1   -1    0    0  502    0  0.00000000000E+00 -0.00000000000E+00 -0.82615627438E+02  0.82615627438E+02  0.00000000000E+00 0.  1.
          6    2    1    2  502    0  0.17460834888E+03 -0.12472135174E+02  0.42629386655E+03  0.49216238620E+03  0.17278230254E+03 0.  0.
         24    2    3    3    0    0  0.12726690216E+03  0.33957677040E+01  0.15395297136E+03  0.21524244088E+03  0.80121129184E+02 0.  0.
         -6    2    1    2    0  501 -0.17460834888E+03  0.12472135174E+02  0.25517740295E+03  0.35454013818E+03  0.17303055496E+03 0.  0.
        -24    2    5    5    0    0 -0.12656391489E+03  0.44009213996E+01  0.26531324967E+03  0.30455776611E+03  0.79539422836E+02 0.  0.
          5    1    3    3  502    0  0.47341446721E+02 -0.15867902878E+02  0.27234089519E+03  0.27691994531E+03  0.47000000000E+01 0. -1.
        -13    1    4    4    0    0  0.35382321903E+02 -0.23615098439E+02  0.91503632877E+02  0.10090835648E+03  0.00000000000E+00 0.  1.
         14    1    4    4    0    0  0.91884580260E+02  0.27010866143E+02  0.62449338485E+02  0.11433408440E+03  0.00000000000E+00 0. -1.
         -5    1    5    5    0  501 -0.48044433992E+02  0.80712137748E+01 -0.10135846719E+02  0.49982372074E+02  0.47000000000E+01 0.  1.
         13    1    6    6    0    0 -0.10980249251E+02 -0.16441133530E+02  0.99001281748E+02  0.10095608220E+03  0.00000000000E+00 0. -1.
        -14    1    6    6    0    0 -0.11558366564E+03  0.20842054929E+02  0.16631196792E+03  0.20360168391E+03  0.00000000000E+00 0.  1.
<mgrwt>
<rscale>  2 0.24604931E+03</rscale>
<asrwt>0</asrwt>
<pdfrwt beam="2">  1        1 0.12710097E-01 0.24604931E+03</pdfrwt>
<pdfrwt beam="1">  1       -1 0.11755183E+00 0.24604931E+03</pdfrwt>
<totfact> 0.32365780E+02</totfact>
</mgrwt>
</event>
<event>
12    1  0.4154313E-002  0.2857557E+03  0.7546771E-02  0.1092586E+00
         -2   -1    0    0    0  501 -0.00000000000E+00  0.00000000000E+00  0.49724670679E+02  0.49724670679E+02  0.00000000000E+00 0. -1.
          2   -1    0    0  502    0  0.00000000000E+00 -0.00000000000E+00 -0.25507772561E+04  0.25507772561E+04  0.00000000000E+00 0.  1.
          6    2    1    2  502    0 -0.15921798080E+03  0.16111405176E+03 -0.20260618109E+04  0.20460895089E+04  0.17391869835E+03 0.  0.
         24    2    3    3    0    0 -0.10806259301E+03  0.14569794398E+03 -0.18797436602E+04  0.18902510627E+04  0.81898944486E+02 0.  0.
         -6    2    1    2    0  501  0.15921798080E+03 -0.16111405176E+03 -0.47499077448E+03  0.55441241787E+03  0.17449581704E+03 0.  0.
        -24    2    5    5    0    0  0.26257753956E+02 -0.45412409008E+02 -0.25473993629E+03  0.27228157273E+03  0.80579545618E+02 0.  0.
          5    1    3    3  502    0 -0.51155387783E+02  0.15416107772E+02 -0.14631815068E+03  0.15583844614E+03  0.47000000000E+01 0. -1.
        -13    1    4    4    0    0 -0.10886778218E+03  0.94436023470E+02 -0.15295139619E+04  0.15362888128E+04  0.00000000000E+00 0.  1.
         14    1    4    4    0    0  0.80518916492E+00  0.51261920514E+02 -0.35022969831E+03  0.35396224997E+03  0.00000000000E+00 0. -1.
         -5    1    5    5    0  501  0.13296022684E+03 -0.11570164275E+03 -0.22025083819E+03  0.28213084514E+03  0.47000000000E+01 0.  1.
         13    1    6    6    0    0 -0.18056168494E+02 -0.48091394204E+02 -0.12442002210E+03  0.13460738953E+03  0.00000000000E+00 0. -1.
        -14    1    6    6    0    0  0.44313922450E+02  0.26789851959E+01 -0.13031991419E+03  0.13767418320E+03  0.00000000000E+00 0.  1.
<mgrwt>
<rscale>  2 0.28575565E+03</rscale>
<asrwt>0</asrwt>
<pdfrwt beam="2">  1        2 0.39242745E+00 0.28575565E+03</pdfrwt>
<pdfrwt beam="1">  1       -2 0.76499458E-02 0.28575565E+03</pdfrwt>
<totfact> 0.38057178E+02</totfact>
</mgrwt>
</event>
<event>
12    1  0.4154313E-002  0.2845586E+03  0.7546771E-02  0.1093225E+00
          1   -1    0    0  502    0  0.00000000000E+00  0.00000000000E+00  0.27874552269E+03  0.27874552269E+03  0.00000000000E+00 0. -1.
         -1   -1    0    0    0  501 -0.00000000000E+00 -0.00000000000E+00 -0.29448112941E+03  0.29448112941E+03  0.00000000000E+00 0.  1.
          6    2    1    2  502    0 -0.90437402881E+02  0.20959336390E+03  0.25459197617E+02  0.28641429258E+03  0.17110427879E+03 0.  0.
         24    2    3    3    0    0 -0.14775838595E+02  0.12966538619E+03  0.69248604876E+02  0.16786997126E+03  0.79708971825E+02 0.  0.
         -6    2    1    2    0  501  0.90437402881E+02 -0.20959336390E+03 -0.41194804336E+02  0.28681235952E+03  0.16868910942E+03 0.  0.
        -24    2    5    5    0    0  0.29168914636E+02 -0.86097568605E+02 -0.76604836415E+02  0.14440098540E+03  0.81973939275E+02 0.  0.
          5    1    3    3  502    0 -0.75661564286E+02  0.79927977707E+02 -0.43789407259E+02  0.11854432133E+03  0.47000000000E+01 0. -1.
        -13    1    4    4    0    0 -0.30241983001E+02  0.20471178009E+02 -0.19982815187E+01  0.36573758269E+02  0.00000000000E+00 0.  1.
         14    1    4    4    0    0  0.15466144406E+02  0.10919420819E+03  0.71246886394E+02  0.13129621299E+03  0.00000000000E+00 0. -1.
         -5    1    5    5    0  501  0.61268488245E+02 -0.12349579530E+03  0.35410032080E+02  0.14241137412E+03  0.47000000000E+01 0.  1.
         11    1    6    6    0    0 -0.25368534559E+02 -0.40698154960E+02 -0.14500616746E+02  0.50101599264E+02  0.00000000000E+00 0. -1.
        -12    1    6    6    0    0  0.54537449196E+02 -0.45399413645E+02 -0.62104219669E+02  0.94299386132E+02  0.00000000000E+00 0.  1.
<mgrwt>
<rscale>  2 0.28455862E+03</rscale>
<asrwt>0</asrwt>
<pdfrwt beam="1">  1        1 0.42883927E-01 0.28455862E+03</pdfrwt>
<pdfrwt beam="2">  1       -1 0.45304789E-01 0.28455862E+03</pdfrwt>
<totfact> 0.47614528E+02</totfact>
</mgrwt>
</event>
<event>
12    1  0.4154313E-002  0.1976371E+03  0.7546771E-02  0.1151748E+00
         -1   -1    0    0    0  501 -0.00000000000E+00  0.00000000000E+00  0.45480570629E+02  0.45480570629E+02  0.00000000000E+00 0. -1.
          1   -1    0    0  502    0  0.00000000000E+00 -0.00000000000E+00 -0.87278748662E+03  0.87278748662E+03  0.00000000000E+00 0.  1.
          6    2    1    2  502    0  0.88155480257E+02 -0.32510340389E+02 -0.47304510933E+03  0.51292791208E+03  0.17462833849E+03 0.  0.
         24    2    3    3    0    0 -0.30511930457E+01  0.53858465749E+01 -0.32415979677E+03  0.33419989375E+03  0.81065886909E+02 0.  0.
         -6    2    1    2    0  501 -0.88155480257E+02  0.32510340389E+02 -0.35426180666E+03  0.40534014516E+03  0.17312104057E+03 0.  0.
        -24    2    5    5    0    0 -0.67450435967E+02  0.27344943602E+02 -0.10156917000E+03  0.15170450333E+03  0.86027046817E+02 0.  0.
          5    1    3    3  502    0  0.91206673302E+02 -0.37896186964E+02 -0.14888531256E+03  0.17872801833E+03  0.47000000000E+01 0. -1.
        -13    1    4    4    0    0 -0.24478139681E+02  0.52301589304E+01 -0.29188308924E+02  0.38451154242E+02  0.00000000000E+00 0.  1.
         14    1    4    4    0    0  0.21426946635E+02  0.15568764456E+00 -0.29497148784E+03  0.29574873951E+03  0.00000000000E+00 0. -1.
         -5    1    5    5    0  501 -0.20705044289E+02  0.51653967871E+01 -0.25269263666E+03  0.25363564183E+03  0.47000000000E+01 0.  1.
         11    1    6    6    0    0  0.70034970775E+01 -0.89070025551E+01  0.83553741229E+01  0.14078208074E+02  0.00000000000E+00 0. -1.
        -12    1    6    6    0    0 -0.74453933045E+02  0.36251946157E+02 -0.10992454412E+03  0.13762629526E+03  0.00000000000E+00 0.  1.
<mgrwt>
<rscale>  2 0.19763706E+03</rscale>
<asrwt>0</asrwt>
<pdfrwt beam="2">  1        1 0.13427500E+00 0.19763706E+03</pdfrwt>
<pdfrwt beam="1">  1       -1 0.69970108E-02 0.19763706E+03</pdfrwt>
<totfact> 0.21124903E+03</totfact>
</mgrwt>
</event>
<event>
12    1  0.4154313E-002  0.2554245E+03  0.7546771E-02  0.1109924E+00
         -2   -1    0    0    0  501 -0.00000000000E+00  0.00000000000E+00  0.65519747154E+02  0.65519747154E+02  0.00000000000E+00 0. -1.
          2   -1    0    0  502    0  0.00000000000E+00 -0.00000000000E+00 -0.15790960616E+04  0.15790960616E+04  0.00000000000E+00 0.  1.
          6    2    1    2  502    0 -0.18715426512E+03 -0.19671312614E+02 -0.25711289532E+03  0.36246545452E+03  0.17280186714E+03 0.  0.
         24    2    3    3    0    0 -0.20907290486E+03  0.29168359843E+01 -0.22098949844E+03  0.31432357019E+03  0.79012409633E+02 0.  0.
         -6    2    1    2    0  501  0.18715426512E+03  0.19671312614E+02 -0.12564634192E+04  0.12821503543E+04  0.17261381104E+03 0.  0.
        -24    2    5    5    0    0  0.12570415276E+03  0.81459958571E+01 -0.47630788066E+03  0.49947947612E+03  0.82113693267E+02 0.  0.
          5    1    3    3  502    0  0.21918639736E+02 -0.22588148598E+02 -0.36123396876E+02  0.48141884330E+02  0.47000000000E+01 0. -1.
        -13    1    4    4    0    0 -0.64336844885E+01  0.18926489031E+02 -0.15636035682E+02  0.25378926199E+02  0.00000000000E+00 0.  1.
         14    1    4    4    0    0 -0.20263922037E+03 -0.16009653047E+02 -0.20535346276E+03  0.28894464399E+03  0.00000000000E+00 0. -1.
         -5    1    5    5    0  501  0.61450112361E+02  0.11525316757E+02 -0.78015553850E+03  0.78267087814E+03  0.47000000000E+01 0.  1.
         13    1    6    6    0    0  0.30445334023E+02  0.37058974218E+02 -0.20350845932E+03  0.20908366495E+03  0.00000000000E+00 0. -1.
        -14    1    6    6    0    0  0.95258818740E+02 -0.28912978360E+02 -0.27279942133E+03  0.29039581117E+03  0.00000000000E+00 0.  1.
<mgrwt>
<rscale>  2 0.25542451E+03</rscale>
<asrwt>0</asrwt>
<pdfrwt beam="2">  1        2 0.24293783E+00 0.25542451E+03</pdfrwt>
<pdfrwt beam="1">  1       -2 0.10079962E-01 0.25542451E+03</pdfrwt>
<totfact> 0.81406972E+02</totfact>
</mgrwt>
</event>
<event>
12    1  0.4154313E-002  0.5686022E+03  0.7546771E-02  0.9972777E-01
         -2   -1    0    0    0  501 -0.00000000000E+00  0.00000000000E+00  0.12194647725E+04  0.12194647725E+04  0.00000000000E+00 0. -1.
          2   -1    0    0  502    0  0.00000000000E+00 -0.00000000000E+00 -0.27201483890E+03  0.27201483890E+03  0.00000000000E+00 0.  1.
          6    2    1    2  502    0  0.11146632285E+02  0.54138593407E+03  0.59274776078E+03  0.82165223609E+03  0.17475557831E+03 0.  0.
         24    2    3    3    0    0 -0.61730325846E+01  0.53921315287E+03  0.54592783440E+03  0.77146371873E+03  0.79562166791E+02 0.  0.
         -6    2    1    2    0  501 -0.11146632285E+02 -0.54138593407E+03  0.35470217282E+03  0.66982737530E+03  0.17213978122E+03 0.  0.
        -24    2    5    5    0    0  0.73962408799E+01 -0.41088002880E+03  0.19270358111E+03  0.46092246112E+03  0.80235544137E+02 0.  0.
          5    1    3    3  502    0  0.17319664870E+02  0.21727812018E+01  0.46819926379E+02  0.50188517367E+02  0.47000000000E+01 0. -1.
        -13    1    4    4    0    0 -0.32114802457E+02  0.11327195133E+03  0.13354736845E+03  0.17803593771E+03  0.00000000000E+00 0.  1.
         14    1    4    4    0    0  0.25941769872E+02  0.42594120154E+03  0.41238046594E+03  0.59342778102E+03  0.00000000000E+00 0. -1.
         -5    1    5    5    0  501 -0.18542873165E+02 -0.13050590527E+03  0.16199859170E+03  0.20890491418E+03  0.47000000000E+01 0.  1.
         13    1    6    6    0    0 -0.15936144847E+02 -0.55564451216E+02  0.52975587962E+02  0.78407792160E+02  0.00000000000E+00 0. -1.
        -14    1    6    6    0    0  0.23332385727E+02 -0.35531557758E+03  0.13972799315E+03  0.38251466896E+03  0.00000000000E+00 0.  1.
<mgrwt>
<rscale>  2 0.56860220E+03</rscale>
<asrwt>0</asrwt>
<pdfrwt beam="2">  1        2 0.41848437E-01 0.56860220E+03</pdfrwt>
<pdfrwt beam="1">  1       -2 0.18760996E+00 0.56860220E+03</pdfrwt>
<totfact> 0.20340034E+01</totfact>
</mgrwt>
</event>
<event>
12    1  0.4154313E-002  0.1856932E+03  0.7546771E-02  0.1162404E+00
         -1   -1    0    0    0  501 -0.00000000000E+00  0.00000000000E+00  0.24124182944E+02  0.24124182944E+02  0.00000000000E+00 0. -1.
          1   -1    0    0  502    0  0.00000000000E+00 -0.00000000000E+00 -0.15280315528E+04  0.15280315528E+04  0.00000000000E+00 0.  1.
          6    2    1    2  502    0  0.55149952630E+02  0.42565510059E+02 -0.55306884173E+03  0.58326961331E+03  0.17165359944E+03 0.  0.
         24    2    3    3    0    0  0.31731501875E+02  0.87647500278E+02 -0.47042309415E+03  0.48614485195E+03  0.79686617740E+02 0.  0.
         -6    2    1    2    0  501 -0.55149952630E+02 -0.42565510059E+02 -0.95083852814E+03  0.96888612244E+03  0.17260669671E+03 0.  0.
        -24    2    5    5    0    0 -0.12836051942E+02 -0.44981518212E+02 -0.25081409543E+03  0.26756408538E+03  0.80589875955E+02 0.  0.
          5    1    3    3  502    0  0.23418450755E+02 -0.45081990218E+02 -0.82645747577E+02  0.97124761366E+02  0.47000000000E+01 0. -1.
        -13    1    4    4    0    0 -0.31224466932E+00  0.70165158998E+02 -0.40669196980E+03  0.41270038203E+03  0.00000000000E+00 0.  1.
         14    1    4    4    0    0  0.32043746544E+02  0.17482341280E+02 -0.63731124356E+02  0.73444469914E+02  0.00000000000E+00 0. -1.
         -5    1    5    5    0  501 -0.42313900688E+02  0.24160081526E+01 -0.70002443271E+03  0.70132203706E+03  0.47000000000E+01 0.  1.
         11    1    6    6    0    0 -0.39496672687E+02 -0.47324527342E+02 -0.20915283139E+03  0.21804702456E+03  0.00000000000E+00 0. -1.
        -12    1    6    6    0    0  0.26660620746E+02  0.23430091296E+01 -0.41661264042E+02  0.49517060817E+02  0.00000000000E+00 0.  1.
<mgrwt>
<rscale>  2 0.18569320E+03</rscale>
<asrwt>0</asrwt>
<pdfrwt beam="2">  1        1 0.23508184E+00 0.18569320E+03</pdfrwt>
<pdfrwt beam="1">  1       -1 0.37114117E-02 0.18569320E+03</pdfrwt>
<totfact> 0.18869665E+03</totfact>
</mgrwt>
</event>
<event>
12    1  0.4154313E-002  0.2855431E+03  0.7546771E-02  0.1092699E+00
          1   -1    0    0  502    0  0.00000000000E+00  0.00000000000E+00  0.31284699541E+03  0.31284699541E+03  0.00000000000E+00 0.  1.
         -1   -1    0    0    0  501 -0.00000000000E+00 -0.00000000000E+00 -0.31403230290E+03  0.31403230290E+03  0.00000000000E+00 0. -1.
          6    2    1    2  502    0 -0.20783636427E+03 -0.91602790763E+02 -0.12985608150E+03  0.31342173494E+03  0.17257913095E+03 0.  0.
         24    2    3    3    0    0 -0.67885278906E+02  0.12154337637E+02 -0.41508251599E+02  0.11802655322E+03  0.86320294831E+02 0.  0.
         -6    2    1    2    0  501  0.20783636427E+03  0.91602790763E+02  0.12867077401E+03  0.31345756337E+03  0.17352939336E+03 0.  0.
        -24    2    5    5    0    0  0.12882056526E+03  0.22003724667E+02  0.88417703347E+01  0.15386869591E+03  0.80737207944E+02 0.  0.
          5    1    3    3  502    0 -0.13995108537E+03 -0.10375712840E+03 -0.88347829904E+02  0.19539518172E+03  0.47000000000E+01 0. -1.
        -11    1    4    4    0    0  0.19711184788E+02 -0.57339685575E+01 -0.32651623732E+01  0.20786305263E+02  0.00000000000E+00 0.  1.
         12    1    4    4    0    0 -0.87596463693E+02  0.17888306194E+02 -0.38243089226E+02  0.97240247962E+02  0.00000000000E+00 0. -1.
         -5    1    5    5    0  501  0.79015799013E+02  0.69599066096E+02  0.11982900368E+03  0.15958886746E+03  0.47000000000E+01 0.  1.
         11    1    6    6    0    0  0.77190380489E+02 -0.16034177297E+02  0.32828908288E+02  0.85400157500E+02  0.00000000000E+00 0. -1.
        -12    1    6    6    0    0  0.51630184769E+02  0.38037901964E+02 -0.23987137954E+02  0.68468538413E+02  0.00000000000E+00 0.  1.
<mgrwt>
<rscale>  2 0.28554310E+03</rscale>
<asrwt>0</asrwt>
<pdfrwt beam="1">  1        1 0.48130307E-01 0.28554310E+03</pdfrwt>
<pdfrwt beam="2">  1       -1 0.48312662E-01 0.28554310E+03</pdfrwt>
<totfact> 0.36567697E+02</totfact>
</mgrwt>
</event>
<event>
12    1  0.4154313E-002  0.1832612E+03  0.7546771E-02  0.1164684E+00
          1   -1    0    0  502    0  0.00000000000E+00  0.00000000000E+00  0.53166635013E+03  0.53166635013E+03  0.00000000000E+00 0. -1.
         -1   -1    0    0    0  501 -0.00000000000E+00 -0.00000000000E+00 -0.71542333000E+02  0.71542333000E+02  0.00000000000E+00 0.  1.
          6    2    1    2  502    0  0.22010438538E+01  0.62503852955E+02  0.12647665099E+03  0.22236910786E+03  0.17187233825E+03 0.  0.
         24    2    3    3    0    0  0.47571734364E+02  0.59141077286E+02  0.13550280505E+03  0.17574969908E+03  0.82256973059E+02 0.  0.
         -6    2    1    2    0  501 -0.22010438538E+01 -0.62503852955E+02  0.33364736614E+03  0.38083957527E+03  0.17264599889E+03 0.  0.
        -24    2    5    5    0    0 -0.99342354978E+01 -0.11639404564E+02  0.31616879093E+03  0.32629981955E+03  0.79213023582E+02 0.  0.
          5    1    3    3  502    0 -0.45370690510E+02  0.33627756690E+01 -0.90261540639E+01  0.46619408777E+02  0.47000000000E+01 0. -1.
        -11    1    4    4    0    0  0.10740138522E+02  0.31683657576E+01 -0.10346344604E+02  0.15245850704E+02  0.00000000000E+00 0.  1.
         12    1    4    4    0    0  0.36831595842E+02  0.55972711528E+02  0.14584914965E+03  0.16050384837E+03  0.00000000000E+00 0. -1.
         -5    1    5    5    0  501  0.77331916440E+01 -0.50864448391E+02  0.17478575212E+02  0.54539755725E+02  0.47000000000E+01 0.  1.
         11    1    6    6    0    0  0.10607900734E+02  0.25252579388E+02  0.21404984923E+03  0.21579517668E+03  0.00000000000E+00 0. -1.
        -12    1    6    6    0    0 -0.20542136232E+02 -0.36891983952E+02  0.10211894170E+03  0.11050464286E+03  0.00000000000E+00 0.  1.
<mgrwt>
<rscale>  2 0.18326124E+03</rscale>
<asrwt>0</asrwt>
<pdfrwt beam="1">  1        1 0.81794821E-01 0.18326124E+03</pdfrwt>
<pdfrwt beam="2">  1       -1 0.11006513E-01 0.18326124E+03</pdfrwt>
<totfact> 0.21579405E+03</totfact>
</mgrwt>
</event>
<event>
12    1  0.4154313E-002  0.1794925E+03  0.7546771E-02  0.1168295E+00
          1   -1    0    0  502    0  0.00000000000E+00  0.00000000000E+00  0.33212571865E+02  0.33212571865E+02  0.00000000000E+00 0. -1.
         -1   -1    0    0    0  501 -0.00000000000E+00 -0.00000000000E+00 -0.97495413421E+03  0.97495413421E+03  0.00000000000E+00 0.  1.
          6    2    1    2  502    0  0.32039714906E+02  0.30302163118E+02 -0.43269289437E+03  0.46808056204E+03  0.17300724638E+03 0.  0.
         24    2    3    3    0    0  0.70589234906E+02 -0.19185908469E+02 -0.33074458861E+03  0.34828623092E+03  0.80996151652E+02 0.  0.
         -6    2    1    2    0  501 -0.32039714906E+02 -0.30302163118E+02 -0.50904866797E+03  0.54008614403E+03  0.17497923360E+03 0.  0.
        -24    2    5    5    0    0 -0.73468848764E+02 -0.17324578737E+02 -0.20898185929E+03  0.23685855541E+03  0.82041117694E+02 0.  0.
          5    1    3    3  502    0 -0.38549520000E+02  0.49488071587E+02 -0.10194830576E+03  0.11979433112E+03  0.47000000000E+01 0. -1.
        -13    1    4    4    0    0  0.52780060039E+02 -0.50523583220E+02 -0.22530373569E+03  0.23685468228E+03  0.00000000000E+00 0.  1.
         14    1    4    4    0    0  0.17809174867E+02  0.31337674752E+02 -0.10544085292E+03  0.11143154864E+03  0.00000000000E+00 0. -1.
         -5    1    5    5    0  501  0.41429133859E+02 -0.12977584381E+02 -0.30006680868E+03  0.30322758862E+03  0.47000000000E+01 0.  1.
         11    1    6    6    0    0 -0.15878518255E+02  0.31266983081E+02 -0.51870828653E+02  0.62612574121E+02  0.00000000000E+00 0. -1.
        -12    1    6    6    0    0 -0.57590330509E+02 -0.48591561818E+02 -0.15711103064E+03  0.17424598129E+03  0.00000000000E+00 0.  1.
<mgrwt>
<rscale>  2 0.17949250E+03</rscale>
<asrwt>0</asrwt>
<pdfrwt beam="1">  1        1 0.51096264E-02 0.17949250E+03</pdfrwt>
<pdfrwt beam="2">  1       -1 0.14999294E+00 0.17949250E+03</pdfrwt>
<totfact> 0.60802728E+02</totfact>
</mgrwt>
</event>
<event>
12    1  0.4154313E-002  0.1782956E+03  0.7546771E-02  0.1169463E+00
          1   -1    0    0  502    0  0.00000000000E+00  0.00000000000E+00  0.37650782527E+03  0.37650782527E+03  0.00000000000E+00 0. -1.
         -1   -1    0    0    0  501 -0.00000000000E+00 -0.00000000000E+00 -0.89714573560E+02  0.89714573560E+02  0.00000000000E+00 0.  1.
          6    2    1    2  502    0 -0.26890916837E+02  0.33245356153E+02  0.20004395813E+03  0.26804028773E+03  0.17320402867E+03 0.  0.
         24    2    3    3    0    0  0.26643891555E+02  0.38409750809E+02  0.44456632144E+02  0.10335224114E+03  0.80747059965E+02 0.  0.
         -6    2    1    2    0  501  0.26890916837E+02 -0.33245356153E+02  0.86749293585E+02  0.19818211110E+03  0.17298073335E+03 0.  0.
        -24    2    5    5    0    0  0.31360101996E+02 -0.37111716291E+02  0.12621401358E+03  0.15800156256E+03  0.81693213081E+02 0.  0.
          5    1    3    3  502    0 -0.53534808392E+02 -0.51643946558E+01  0.15558732598E+03  0.16468804659E+03  0.47000000000E+01 0. -1.
        -11    1    4    4    0    0 -0.23390369262E+02  0.18081103493E+02  0.39188710365E+02  0.49089619043E+02  0.00000000000E+00 0.  1.
         12    1    4    4    0    0  0.50034260817E+02  0.20328647316E+02  0.52679217794E+01  0.54262622099E+02  0.00000000000E+00 0. -1.
         -5    1    5    5    0  501 -0.44691851594E+01  0.38663601378E+01 -0.39464719999E+02  0.40180548544E+02  0.47000000000E+01 0.  1.
         11    1    6    6    0    0  0.54788525902E+01 -0.48229891943E+02  0.28455959766E+02  0.56266170553E+02  0.00000000000E+00 0. -1.
        -12    1    6    6    0    0  0.25881249406E+02  0.11118175652E+02  0.97758053818E+02  0.10173539201E+03  0.00000000000E+00 0.  1.
<mgrwt>
<rscale>  2 0.17829564E+03</rscale>
<asrwt>0</asrwt>
<pdfrwt beam="1">  1        1 0.57924280E-01 0.17829564E+03</pdfrwt>
<pdfrwt beam="2">  1       -1 0.13802242E-01 0.17829564E+03</pdfrwt>
<totfact> 0.23695102E+03</totfact>
</mgrwt>
</event>
<event>
12    1  0.4154313E-002  0.1849646E+03  0.7546771E-02  0.1163083E+00
          2   -1    0    0  502    0  0.00000000000E+00  0.00000000000E+00  0.13431215800E+04  0.13431215800E+04  0.00000000000E+00 0. -1.
         -2   -1    0    0    0  501 -0.00000000000E+00 -0.00000000000E+00 -0.25671709813E+02  0.25671709813E+02  0.00000000000E+00 0.  1.
          6    2    1    2  502    0  0.29573979338E+02  0.58122363827E+02  0.59937644440E+03  0.62735198134E+03  0.17339422412E+03 0.  0.
         24    2    3    3    0    0 -0.32776975996E+02  0.48387555292E+01  0.44091378019E+03  0.44886027147E+03  0.77284138277E+02 0.  0.
         -6    2    1    2    0  501 -0.29573979338E+02 -0.58122363827E+02  0.71807342575E+03  0.74144130844E+03  0.17278003258E+03 0.  0.
        -24    2    5    5    0    0  0.34875767794E+02  0.10522121044E+02  0.40022053328E+03  0.40990188927E+03  0.80722050020E+02 0.  0.
          5    1    3    3  502    0  0.62350955334E+02  0.53283608298E+02  0.15846266421E+03  0.17849170987E+03  0.47000000000E+01 0. -1.
        -11    1    4    4    0    0 -0.31025796099E+02 -0.28393733538E+02  0.14193053804E+03  0.14803067843E+03  0.00000000000E+00 0.  1.
         12    1    4    4    0    0 -0.17511798972E+01  0.33232489067E+02  0.29898324216E+03  0.30082959304E+03  0.00000000000E+00 0. -1.
         -5    1    5    5    0  501 -0.64449747132E+02 -0.68644484871E+02  0.31785289248E+03  0.33153941917E+03  0.47000000000E+01 0.  1.
         11    1    6    6    0    0  0.10492663368E+02  0.21894944251E+02  0.29500645573E+02  0.38206971321E+02  0.00000000000E+00 0. -1.
        -12    1    6    6    0    0  0.24383104426E+02 -0.11372823207E+02  0.37071988770E+03  0.37169491795E+03  0.00000000000E+00 0.  1.
<mgrwt>
<rscale>  2 0.18496463E+03</rscale>
<asrwt>0</asrwt>
<pdfrwt beam="1">  1        2 0.20663403E+00 0.18496463E+03</pdfrwt>
<pdfrwt beam="2">  1       -2 0.39494949E-02 0.18496463E+03</pdfrwt>
<totfact> 0.46162925E+03</totfact>
</mgrwt>
</event>
<event>
12    1  0.4154313E-002  0.2624281E+03  0.7546771E-02  0.1105693E+00
          1   -1    0    0  502    0  0.00000000000E+00  0.00000000000E+00  0.20143949139E+03  0.20143949139E+03  0.00000000000E+00 0.  1.
         -1   -1    0    0    0  501 -0.00000000000E+00 -0.00000000000E+00 -0.34608784437E+03  0.34608784437E+03  0.00000000000E+00 0. -1.
          6    2    1    2  502    0  0.17770052569E+03 -0.86000352731E+02 -0.42228891098E+02  0.26610448031E+03  0.17336313822E+03 0.  0.
         24    2    3    3    0    0  0.25813199076E+02 -0.16382171258E+02  0.19437963034E+02  0.87943479870E+02  0.80134414973E+02 0.  0.
         -6    2    1    2    0  501 -0.17770052569E+03  0.86000352731E+02 -0.10241946188E+03  0.28142285546E+03  0.17243996028E+03 0.  0.
        -24    2    5    5    0    0 -0.20860925109E+02  0.59752655373E+02 -0.30412882936E+02  0.10679571170E+03  0.80466282178E+02 0.  0.
          5    1    3    3  502    0  0.15188732661E+03 -0.69618181473E+02 -0.61666854132E+02  0.17816100044E+03  0.47000000000E+01 0. -1.
        -11    1    4    4    0    0  0.30358643205E+02 -0.44189568775E+02 -0.17434539715E+00  0.53613390138E+02  0.00000000000E+00 0.  1.
         12    1    4    4    0    0 -0.45454441298E+01  0.27807397517E+02  0.19612308431E+02  0.34330089732E+02  0.00000000000E+00 0. -1.
         -5    1    5    5    0  501 -0.15683960058E+03  0.26247697358E+02 -0.72006578947E+02  0.17462714376E+03  0.47000000000E+01 0.  1.
         11    1    6    6    0    0 -0.80196372826E+01 -0.22497640754E+01 -0.41661596763E+02  0.42486052598E+02  0.00000000000E+00 0. -1.
        -12    1    6    6    0    0 -0.12841287826E+02  0.62002419448E+02  0.11248713827E+02  0.64309659098E+02  0.00000000000E+00 0.  1.
<mgrwt>
<rscale>  2 0.26242811E+03</rscale>
<asrwt>0</asrwt>
<pdfrwt beam="1">  1        1 0.30990691E-01 0.26242811E+03</pdfrwt>
<pdfrwt beam="2">  1       -1 0.53244283E-01 0.26242811E+03</pdfrwt>
<totfact> 0.53265933E+02</totfact>
</mgrwt>
</event>
<event>
12    1  0.4154313E-002  0.2397791E+03  0.7546771E-02  0.1119940E+00
         -1   -1    0    0    0  501 -0.00000000000E+00  0.00000000000E+00  0.13776084011E+03  0.13776084011E+03  0.00000000000E+00 0.  1.
          1   -1    0    0  502    0  0.00000000000E+00 -0.00000000000E+00 -0.48452427829E+03  0.48452427829E+03  0.00000000000E+00 0. -1.
          6    2    1    2  502    0 -0.16244287200E+03  0.21057694398E+02 -0.56516062739E+02  0.24474542960E+03  0.17284428485E+03 0.  0.
         24    2    3    3    0    0 -0.19944866976E+02 -0.49634611021E+01  0.14399875585E+02  0.83395058429E+02  0.79529527150E+02 0.  0.
         -6    2    1    2    0  501  0.16244287200E+03 -0.21057694398E+02 -0.29024737544E+03  0.37753968880E+03  0.17737408072E+03 0.  0.
        -24    2    5    5    0    0  0.18086286965E+03  0.17104330849E+02 -0.24657451000E+03  0.31650653666E+03  0.79833971551E+02 0.  0.
          5    1    3    3  502    0 -0.14249800503E+03  0.26021155500E+02 -0.70915938325E+02  0.16135037117E+03  0.47000000000E+01 0. -1.
        -11    1    4    4    0    0 -0.42675671802E+02  0.16498060077E+02  0.22664370943E+02  0.51059501176E+02  0.00000000000E+00 0.  1.
         12    1    4    4    0    0  0.22730804827E+02 -0.21461521179E+02 -0.82644953575E+01  0.32335557253E+02  0.00000000000E+00 0. -1.
         -5    1    5    5    0  501 -0.18419997651E+02 -0.38162025247E+02 -0.43672865438E+02  0.61033152139E+02  0.47000000000E+01 0.  1.
         13    1    6    6    0    0  0.61098901562E+02 -0.26740396081E+02 -0.55439089346E+02  0.86727257434E+02  0.00000000000E+00 0. -1.
        -14    1    6    6    0    0  0.11976396809E+03  0.43844726930E+02 -0.19113542066E+03  0.22977927923E+03  0.00000000000E+00 0.  1.
<mgrwt>
<rscale>  2 0.23977906E+03</rscale>
<asrwt>0</asrwt>
<pdfrwt beam="2">  1        1 0.74542197E-01 0.23977906E+03</pdfrwt>
<pdfrwt beam="1">  1       -1 0.21193975E-01 0.23977906E+03</pdfrwt>
<totfact> 0.86540114E+02</totfact>
</mgrwt>
</event>
<event>
12    1  0.4154313E-002  0.1790421E+03  0.7546771E-02  0.1168733E+00
         -2   -1    0    0    0  501 -0.00000000000E+00  0.00000000000E+00  0.37916687433E+02  0.37916687433E+02  0.00000000000E+00 0. -1.
          2   -1    0    0  502    0  0.00000000000E+00 -0.00000000000E+00 -0.98711452248E+03  0.98711452248E+03  0.00000000000E+00 0.  1.
          6    2    1    2  502    0 -0.23970557764E+02  0.36397511116E+02 -0.28266206317E+03  0.33511882272E+03  0.17466372529E+03 0.  0.
         24    2    3    3    0    0  0.35144010917E+02  0.68183496214E+02 -0.15063841466E+03  0.18693915190E+03  0.79813682296E+02 0.  0.
         -6    2    1    2    0  501  0.23970557764E+02 -0.36397511116E+02 -0.66653577187E+03  0.68991238719E+03  0.17265514865E+03 0.  0.
        -24    2    5    5    0    0  0.37714665950E+02 -0.86853565310E+02 -0.49704279048E+03  0.51247317321E+03  0.81309777158E+02 0.  0.
          5    1    3    3  502    0 -0.59114568681E+02 -0.31785985098E+02 -0.13202364851E+03  0.14817967082E+03  0.47000000000E+01 0. -1.
        -11    1    4    4    0    0 -0.11769034812E+02  0.34567590590E+01 -0.77898283418E+02  0.78858112602E+02  0.00000000000E+00 0.  1.
         12    1    4    4    0    0  0.46913045729E+02  0.64726737155E+02 -0.72740131245E+02  0.10808103930E+03  0.00000000000E+00 0. -1.
         -5    1    5    5    0  501 -0.13744108186E+02  0.50456054194E+02 -0.16949298139E+03  0.17743921398E+03  0.47000000000E+01 0.  1.
         13    1    6    6    0    0  0.10543826169E+02 -0.93071711550E+02 -0.42560423591E+03  0.43578949206E+03  0.00000000000E+00 0. -1.
        -14    1    6    6    0    0  0.27170839781E+02  0.62181462402E+01 -0.71438554566E+02  0.76683681155E+02  0.00000000000E+00 0.  1.
<mgrwt>
<rscale>  2 0.17904211E+03</rscale>
<asrwt>0</asrwt>
<pdfrwt beam="2">  1        2 0.15186377E+00 0.17904211E+03</pdfrwt>
<pdfrwt beam="1">  1       -2 0.58333366E-02 0.17904211E+03</pdfrwt>
<totfact> 0.40829054E+03</totfact>
</mgrwt>
</event>
<event>
12    1  0.4154313E-002  0.2257308E+03  0.7546771E-02  0.1129681E+00
          2   -1    0    0  502    0  0.00000000000E+00  0.00000000000E+00  0.11243533972E+04  0.11243533972E+04  0.00000000000E+00 0.  1.
         -2   -1    0    0    0  501 -0.00000000000E+00 -0.00000000000E+00 -0.46124037470E+02  0.46124037470E+02  0.00000000000E+00 0. -1.
          6    2    1    2  502    0 -0.12934905235E+03 -0.65721167996E+02  0.46207320129E+03  0.51431549612E+03  0.17308476806E+03 0.  0.
         24    2    3    3    0    0 -0.12735455137E+03 -0.22702049073E+02  0.44004919732E+03  0.46571745729E+03  0.80714863435E+02 0.  0.
         -6    2    1    2    0  501  0.12934905235E+03  0.65721167996E+02  0.61615615848E+03  0.65616193859E+03  0.17277045105E+03 0.  0.
        -24    2    5    5    0    0  0.11648373983E+03  0.84802732435E+02  0.33582459264E+03  0.37484805842E+03  0.83504160424E+02 0.  0.
          5    1    3    3  502    0 -0.19945009752E+01 -0.43019118923E+02  0.22024003971E+02  0.48598038828E+02  0.47000000000E+01 0. -1.
        -11    1    4    4    0    0 -0.54277941537E+02 -0.49333604828E+02  0.18276283262E+03  0.19693184732E+03  0.00000000000E+00 0.  1.
         12    1    4    4    0    0 -0.73076609833E+02  0.26631555755E+02  0.25728636470E+03  0.26878560997E+03  0.00000000000E+00 0. -1.
         -5    1    5    5    0  501  0.12865312513E+02 -0.19081564440E+02  0.28033156584E+03  0.28131388017E+03  0.47000000000E+01 0.  1.
         13    1    6    6    0    0  0.32703380955E+02  0.75400638723E+02  0.16979766106E+03  0.18864255392E+03  0.00000000000E+00 0. -1.
        -14    1    6    6    0    0  0.83780358877E+02  0.94020937126E+01  0.16602693157E+03  0.18620550450E+03  0.00000000000E+00 0.  1.
<mgrwt>
<rscale>  2 0.22573082E+03</rscale>
<asrwt>0</asrwt>
<pdfrwt beam="1">  1        2 0.17297742E+00 0.22573082E+03</pdfrwt>
<pdfrwt beam="2">  1       -2 0.70960066E-02 0.22573082E+03</pdfrwt>
<totfact> 0.25155545E+03</totfact>
</mgrwt>
</event>
<event>
12    1  0.4154313E-002  0.3293742E+03  0.7546771E-02  0.1071414E+00
          2   -1    0    0  502    0  0.00000000000E+00  0.00000000000E+00  0.46851291984E+03  0.46851291984E+03  0.00000000000E+00 0.  1.
         -2   -1    0    0    0  501 -0.00000000000E+00 -0.00000000000E+00 -0.25989074389E+03  0.25989074389E+03  0.00000000000E+00 0. -1.
          6    2    1    2  502    0 -0.42560006854E+02  0.27783490772E+03 -0.15822565883E+02  0.33017751784E+03  0.17252028739E+03 0.  0.
         24    2    3    3    0    0 -0.69703527248E+02  0.13288293102E+03 -0.52389592191E+02  0.17816737455E+03  0.80513905110E+02 0.  0.
         -6    2    1    2    0  501  0.42560006854E+02 -0.27783490772E+03  0.22444474184E+03  0.39822614590E+03  0.17089479514E+03 0.  0.
        -24    2    5    5    0    0 -0.36750604528E+02 -0.10721764002E+03  0.64999232342E+02  0.15155757146E+03  0.76802135373E+02 0.  0.
          5    1    3    3  502    0  0.27143520395E+02  0.14495197670E+03  0.36567026308E+02  0.15201014329E+03  0.47000000000E+01 0. -1.
        -11    1    4    4    0    0 -0.26186852275E+01  0.51639226100E+02  0.14084060346E+02  0.53589438702E+02  0.00000000000E+00 0.  1.
         12    1    4    4    0    0 -0.67084842021E+02  0.81243704921E+02 -0.66473652537E+02  0.12457793585E+03  0.00000000000E+00 0. -1.
         -5    1    5    5    0  501  0.79310611381E+02 -0.17061726771E+03  0.15944550950E+03  0.24666857444E+03  0.47000000000E+01 0.  1.
         11    1    6    6    0    0 -0.34374065040E+02 -0.89129978716E+01  0.32093700380E+02  0.47864637077E+02  0.00000000000E+00 0. -1.
        -12    1    6    6    0    0 -0.23765394878E+01 -0.98304642145E+02  0.32905531961E+02  0.10369293438E+03  0.00000000000E+00 0.  1.
<mgrwt>
<rscale>  2 0.32937421E+03</rscale>
<asrwt>0</asrwt>
<pdfrwt beam="1">  1        2 0.72078911E-01 0.32937421E+03</pdfrwt>
<pdfrwt beam="2">  1       -2 0.39983191E-01 0.32937421E+03</pdfrwt>
<totfact> 0.40092280E+02</totfact>
</mgrwt>
</event>
<event>
12    1  0.4154313E-002  0.1842371E+03  0.7546771E-02  0.1163764E+00
          2   -1    0    0  502    0  0.00000000000E+00  0.00000000000E+00  0.22566912487E+04  0.22566912487E+04  0.00000000000E+00 0. -1.
         -2   -1    0    0    0  501 -0.00000000000E+00 -0.00000000000E+00 -0.20326100480E+02  0.20326100480E+02  0.00000000000E+00 0.  1.
          6    2    1    2  502    0  0.57356666595E+02  0.16849458838E+02  0.53343982893E+03  0.56405290295E+03  0.17327416074E+03 0.  0.
         24    2    3    3    0    0 -0.25618338801E+02  0.28051033894E+01  0.14728306957E+03  0.16880459083E+03  0.78348703981E+02 0.  0.
         -6    2    1    2    0  501 -0.57356666595E+02 -0.16849458838E+02  0.17029253193E+04  0.17129644463E+04  0.17526796478E+03 0.  0.
        -24    2    5    5    0    0 -0.57672830647E+02 -0.61634152107E+02  0.15256767031E+04  0.15300848939E+04  0.79658371225E+02 0.  0.
          5    1    3    3  502    0  0.82975005396E+02  0.14044355448E+02  0.38615675935E+03  0.39524831212E+03  0.47000000000E+01 0. -1.
        -11    1    4    4    0    0  0.14931988265E+02 -0.13266717234E+02  0.58726413832E+01  0.20819653612E+02  0.00000000000E+00 0.  1.
         12    1    4    4    0    0 -0.40550327066E+02  0.16071820624E+02  0.14141042819E+03  0.14798493722E+03  0.00000000000E+00 0. -1.
         -5    1    5    5    0  501  0.31616405225E+00  0.44784693269E+02  0.17724861621E+03  0.18287955232E+03  0.47000000000E+01 0.  1.
         11    1    6    6    0    0  0.19640172288E+02 -0.14477481684E+02  0.41856689180E+03  0.41927744604E+03  0.00000000000E+00 0. -1.
        -12    1    6    6    0    0 -0.77313002935E+02 -0.47156670423E+02  0.11071098113E+04  0.11108074479E+04  0.00000000000E+00 0.  1.
<mgrwt>
<rscale>  2 0.18423710E+03</rscale>
<asrwt>0</asrwt>
<pdfrwt beam="1">  1        2 0.34718307E+00 0.18423710E+03</pdfrwt>
<pdfrwt beam="2">  1       -2 0.31270942E-02 0.18423710E+03</pdfrwt>
<totfact> 0.21757634E+03</totfact>
</mgrwt>
</event>
<event>
12    1  0.4154313E-002  0.1813686E+03  0.7546771E-02  0.1166485E+00
          1   -1    0    0  502    0  0.00000000000E+00  0.00000000000E+00  0.22267872959E+04  0.22267872959E+04  0.00000000000E+00 0. -1.
         -1   -1    0    0    0  501 -0.00000000000E+00 -0.00000000000E+00 -0.17562510151E+02  0.17562510151E+02  0.00000000000E+00 0.  1.
          6    2    1    2  502    0  0.47539589183E+02  0.95426534670E+01  0.66387126660E+03  0.68853617267E+03  0.17608500127E+03 0.  0.
         24    2    3    3    0    0  0.51461493019E+02  0.17086725494E+02  0.17840527531E+03  0.20297298104E+03  0.80183210986E+02 0.  0.
         -6    2    1    2    0  501 -0.47539589183E+02 -0.95426534670E+01  0.15453535192E+04  0.15558136334E+04  0.17345745277E+03 0.  0.
        -24    2    5    5    0    0 -0.17482651803E+02  0.60876326454E+02  0.78199790459E+03  0.78861344016E+03  0.79867796871E+02 0.  0.
          5    1    3    3  502    0 -0.39219038360E+01 -0.75440720271E+01  0.48546599130E+03  0.48556319162E+03  0.47000000000E+01 0. -1.
        -13    1    4    4    0    0 -0.10766175034E+01  0.39360879362E+02  0.81513612615E+02  0.90525725465E+02  0.00000000000E+00 0.  1.
         14    1    4    4    0    0  0.52538110523E+02 -0.22274153867E+02  0.96891662691E+02  0.11244725558E+03  0.00000000000E+00 0. -1.
         -5    1    5    5    0  501 -0.30056937380E+02 -0.70418979921E+02  0.76335561458E+03  0.76720019325E+03  0.47000000000E+01 0.  1.
         13    1    6    6    0    0  0.16220127062E+02  0.41302434378E+02  0.18125183275E+03  0.18660442246E+03  0.00000000000E+00 0. -1.
        -14    1    6    6    0    0 -0.33702778865E+02  0.19573892077E+02  0.60074607185E+03  0.60200901770E+03  0.00000000000E+00 0.  1.
<mgrwt>
<rscale>  2 0.18136862E+03</rscale>
<asrwt>0</asrwt>
<pdfrwt beam="1">  1        1 0.34258244E+00 0.18136862E+03</pdfrwt>
<pdfrwt beam="2">  1       -1 0.27019264E-02 0.18136862E+03</pdfrwt>
<totfact> 0.10669334E+03</totfact>
</mgrwt>
</event>
<event>
12    1  0.4154313E-002  0.2603980E+03  0.7546771E-02  0.1106904E+00
          2   -1    0    0  502    0  0.00000000000E+00  0.00000000000E+00  0.92781733486E+03  0.92781733486E+03  0.00000000000E+00 0. -1.
         -2   -1    0    0    0  501 -0.00000000000E+00 -0.00000000000E+00 -0.73597807588E+02  0.73597807588E+02  0.00000000000E+00 0.  1.
          6    2    1    2  502    0  0.16930796919E+03  0.95396758961E+02  0.46905136521E+03  0.53649721408E+03  0.17336189737E+03 0.  0.
         24    2    3    3    0    0  0.13327172349E+03  0.50084698800E+02  0.18450777808E+03  0.24608554631E+03  0.79026239922E+02 0.  0.
         -6    2    1    2    0  501 -0.16930796919E+03 -0.95396758961E+02  0.38516816206E+03  0.46491792836E+03  0.17328715185E+03 0.  0.
        -24    2    5    5    0    0 -0.64405619887E+02 -0.99099000919E+02  0.14557753722E+03  0.20329994925E+03  0.78545236423E+02 0.  0.
          5    1    3    3  502    0  0.36036245704E+02  0.45312060161E+02  0.28454358713E+03  0.29041166777E+03  0.47000000000E+01 0. -1.
        -13    1    4    4    0    0  0.61938962772E+02  0.28683573834E+02  0.14834594409E+03  0.16329636140E+03  0.00000000000E+00 0.  1.
         14    1    4    4    0    0  0.71332760715E+02  0.21401124966E+02  0.36161833984E+02  0.82789184911E+02  0.00000000000E+00 0. -1.
         -5    1    5    5    0  501 -0.10490234930E+03  0.37022419578E+01  0.23959062484E+03  0.26161797912E+03  0.47000000000E+01 0.  1.
         13    1    6    6    0    0  0.55875207282E+01 -0.34265749664E+02  0.75849911206E+01  0.35537221026E+02  0.00000000000E+00 0. -1.
        -14    1    6    6    0    0 -0.69993140615E+02 -0.64833251255E+02  0.13799254610E+03  0.16776272822E+03  0.00000000000E+00 0.  1.
<mgrwt>
<rscale>  2 0.26039801E+03</rscale>
<asrwt>0</asrwt>
<pdfrwt beam="1">  1        2 0.14274112E+00 0.26039801E+03</pdfrwt>
<pdfrwt beam="2">  1       -2 0.11322740E-01 0.26039801E+03</pdfrwt>
<totfact> 0.15833264E+03</totfact>
</mgrwt>
</event>
<event>
12    1  0.4154313E-002  0.2728605E+03  0.7546771E-02  0.1099654E+00
          2   -1    0    0  502    0  0.00000000000E+00  0.00000000000E+00  0.17835176616E+04  0.17835176616E+04  0.00000000000E+00 0. -1.
         -2   -1    0    0    0  501 -0.00000000000E+00 -0.00000000000E+00 -0.69605589950E+02  0.69605589950E+02  0.00000000000E+00 0.  1.
          6    2    1    2  502    0  0.20547399346E+03 -0.50673080612E+02  0.27143617053E+03  0.38513403398E+03  0.17281002971E+03 0.  0.
         24    2    3    3    0    0  0.13949018014E+03 -0.93022387434E+02  0.22891363515E+03  0.29581671525E+03  0.83638518328E+02 0.  0.
         -6    2    1    2    0  501 -0.20547399346E+03  0.50673080612E+02  0.14424759012E+04  0.14679892176E+04  0.17166331732E+03 0.  0.
        -24    2    5    5    0    0 -0.21075987813E+03  0.57011239460E+02  0.10510160613E+04  0.10764141813E+04  0.79766665705E+02 0.  0.
          5    1    3    3  502    0  0.65983813318E+02  0.42349306822E+02  0.42522535387E+02  0.89317318724E+02  0.47000000000E+01 0. -1.
        -13    1    4    4    0    0  0.33027390605E+02 -0.43435542578E+02  0.23952569729E+02  0.59591782033E+02  0.00000000000E+00 0.  1.
         14    1    4    4    0    0  0.10646278954E+03 -0.49586844856E+02  0.20496106542E+03  0.23622493322E+03  0.00000000000E+00 0. -1.
         -5    1    5    5    0  501  0.52858846666E+01 -0.63381588478E+01  0.39145983986E+03  0.39157503631E+03  0.47000000000E+01 0.  1.
         13    1    6    6    0    0 -0.12388178013E+03  0.27097109432E+01  0.69457697121E+03  0.70554319989E+03  0.00000000000E+00 0. -1.
        -14    1    6    6    0    0 -0.86878097994E+02  0.54301528516E+02  0.35643909008E+03  0.37087098140E+03  0.00000000000E+00 0.  1.
<mgrwt>
<rscale>  2 0.27286052E+03</rscale>
<asrwt>0</asrwt>
<pdfrwt beam="1">  1        2 0.27438730E+00 0.27286052E+03</pdfrwt>
<pdfrwt beam="2">  1       -2 0.10708554E-01 0.27286052E+03</pdfrwt>
<totfact> 0.57513522E+02</totfact>
</mgrwt>
</event>
<event>
12    1  0.4154313E-002  0.2366880E+03  0.7546771E-02  0.1122019E+00
          1   -1    0    0  502    0  0.00000000000E+00  0.00000000000E+00  0.88656025706E+03  0.88656025706E+03  0.00000000000E+00 0.  1.
         -1   -1    0    0    0  501 -0.00000000000E+00 -0.00000000000E+00 -0.11476918742E+03  0.11476918742E+03  0.00000000000E+00 0. -1.
          6    2    1    2  502    0  0.13252003270E+03 -0.92592147478E+02  0.72172355299E+03  0.75960863896E+03  0.17316331196E+03 0.  0.
         24    2    3    3    0    0  0.12147469844E+03 -0.66655883870E+02  0.71110639095E+03  0.72912088226E+03  0.82133138806E+02 0.  0.
         -6    2    1    2    0  501 -0.13252003270E+03  0.92592147478E+02  0.50067516661E+02  0.24172080552E+03  0.17259005404E+03 0.  0.
        -24    2    5    5    0    0 -0.14147624296E+03  0.24850717455E+02  0.54211239595E+02  0.17310320221E+03  0.79954828721E+02 0.  0.
          5    1    3    3  502    0  0.11045334256E+02 -0.25936263608E+02  0.10617162041E+02  0.30487756700E+02  0.47000000000E+01 0. -1.
        -13    1    4    4    0    0  0.93768120032E+02 -0.78722553107E+02  0.64384603106E+03  0.65538340871E+03  0.00000000000E+00 0.  1.
         14    1    4    4    0    0  0.27706578409E+02  0.12066669237E+02  0.67260359883E+02  0.73737473548E+02  0.00000000000E+00 0. -1.
         -5    1    5    5    0  501  0.89562102671E+01  0.67741430023E+02 -0.41437229336E+01  0.68617603308E+02  0.47000000000E+01 0.  1.
         11    1    6    6    0    0 -0.67465785500E+02  0.52052063724E+02  0.33652385156E+02  0.91616224424E+02  0.00000000000E+00 0. -1.
        -12    1    6    6    0    0 -0.74010457464E+02 -0.27201346269E+02  0.20558854438E+02  0.81486977786E+02  0.00000000000E+00 0.  1.
<mgrwt>
<rscale>  2 0.23668799E+03</rscale>
<asrwt>0</asrwt>
<pdfrwt beam="1">  1        1 0.13639388E+00 0.23668799E+03</pdfrwt>
<pdfrwt beam="2">  1       -1 0.17656799E-01 0.23668799E+03</pdfrwt>
<totfact> 0.48768501E+02</totfact>
</mgrwt>
</event>
<event>
12    1  0.4154313E-002  0.2133355E+03  0.7546771E-02  0.1138952E+00
          1   -1    0    0  502    0  0.00000000000E+00  0.00000000000E+00  0.13841172279E+03  0.13841172279E+03  0.00000000000E+00 0.  1.
         -1   -1    0    0    0  501 -0.00000000000E+00 -0.00000000000E+00 -0.34274448203E+03  0.34274448203E+03  0.00000000000E+00 0. -1.
          6    2    1    2  502    0  0.83061096574E+02  0.94186221126E+02 -0.15126909746E+03  0.26264651482E+03  0.17415700356E+03 0.  0.
         24    2    3    3    0    0  0.17587172311E+01  0.62334018974E+02 -0.19135490808E+02  0.10419772286E+03  0.81255002511E+02 0.  0.
         -6    2    1    2    0  501 -0.83061096574E+02 -0.94186221126E+02 -0.53063661788E+02  0.21850968999E+03  0.17076458182E+03 0.  0.
        -24    2    5    5    0    0 -0.65006089662E+02 -0.76208116564E+01 -0.48311952161E+02  0.12982924043E+03  0.10118161139E+03 0.  0.
          5    1    3    3  502    0  0.81302379343E+02  0.31852202153E+02 -0.13213360665E+03  0.15844879196E+03  0.47000000000E+01 0. -1.
        -11    1    4    4    0    0 -0.22900934574E+02  0.69128744209E+02 -0.26636603748E+02  0.77541890224E+02  0.00000000000E+00 0.  1.
         12    1    4    4    0    0  0.24659651805E+02 -0.67947252349E+01  0.75011129404E+01  0.26655832636E+02  0.00000000000E+00 0. -1.
         -5    1    5    5    0  501 -0.18055006912E+02 -0.86565409470E+02 -0.47517096278E+01  0.88680449569E+02  0.47000000000E+01 0.  1.
         11    1    6    6    0    0 -0.18015138180E+02 -0.52294957100E+02 -0.27228174230E+02  0.61649665154E+02  0.00000000000E+00 0. -1.
        -12    1    6    6    0    0 -0.46990951483E+02  0.44674145443E+02 -0.21083777930E+02  0.68179575271E+02  0.00000000000E+00 0.  1.
<mgrwt>
<rscale>  2 0.21333549E+03</rscale>
<asrwt>0</asrwt>
<pdfrwt beam="1">  1        1 0.21294111E-01 0.21333549E+03</pdfrwt>
<pdfrwt beam="2">  1       -1 0.52729920E-01 0.21333549E+03</pdfrwt>
<totfact> 0.87402508E+02</totfact>
</mgrwt>
</event>
<event>
12    1  0.4154313E-002  0.1780961E+03  0.7546771E-02  0.1169658E+00
         -1   -1    0    0    0  501 -0.00000000000E+00  0.00000000000E+00  0.55470160048E+02  0.55470160048E+02  0.00000000000E+00 0.  1.
          1   -1    0    0  502    0  0.00000000000E+00 -0.00000000000E+00 -0.88375951211E+03  0.88375951211E+03  0.00000000000E+00 0. -1.
          6    2    1    2  502    0 -0.21919646173E+02 -0.26693204701E+02 -0.13004359689E+03  0.21775486110E+03  0.17120994240E+03 0.  0.
         24    2    3    3    0    0  0.30602653364E+02 -0.31658393883E+02 -0.17819056720E+02  0.93659404019E+02  0.80720436586E+02 0.  0.
         -6    2    1    2    0  501  0.21919646173E+02  0.26693204701E+02 -0.69824575517E+03  0.72147481105E+03  0.17828564246E+03 0.  0.
        -24    2    5    5    0    0  0.25424421336E+02  0.30475442812E+02 -0.70556509438E+03  0.71136286265E+03  0.81485373776E+02 0.  0.
          5    1    3    3  502    0 -0.52522299537E+02  0.49651891817E+01 -0.11222454017E+03  0.12409545708E+03  0.47000000000E+01 0. -1.
        -13    1    4    4    0    0  0.35632806717E+02 -0.21384614317E+02  0.25566036124E+02  0.48791606319E+02  0.00000000000E+00 0.  1.
         14    1    4    4    0    0 -0.50301533536E+01 -0.10273779565E+02 -0.43385092845E+02  0.44867797700E+02  0.00000000000E+00 0. -1.
         -5    1    5    5    0  501 -0.35047751631E+01 -0.37822381107E+01  0.73193392085E+01  0.10111948404E+02  0.47000000000E+01 0.  1.
         13    1    6    6    0    0  0.17301679836E+02  0.53151513016E+02 -0.30537794487E+03  0.31045147878E+03  0.00000000000E+00 0. -1.
        -14    1    6    6    0    0  0.81227415003E+01 -0.22676070205E+02 -0.40018714950E+03  0.40091138387E+03  0.00000000000E+00 0.  1.
<mgrwt>
<rscale>  2 0.17809608E+03</rscale>
<asrwt>0</asrwt>
<pdfrwt beam="2">  1        1 0.13596300E+00 0.17809608E+03</pdfrwt>
<pdfrwt beam="1">  1       -1 0.85338710E-02 0.17809608E+03</pdfrwt>
<totfact> 0.15300639E+03</totfact>
</mgrwt>
</event>
<event>
12    1  0.4154313E-002  0.1972673E+03  0.7546771E-02  0.1152065E+00
          2   -1    0    0  502    0  0.00000000000E+00  0.00000000000E+00  0.13400067557E+04  0.13400067557E+04  0.00000000000E+00 0.  1.
         -2   -1    0    0    0  501 -0.00000000000E+00 -0.00000000000E+00 -0.29911046851E+02  0.29911046851E+02  0.00000000000E+00 0. -1.
          6    2    1    2  502    0 -0.21827478766E+02  0.92137374182E+02  0.53981713173E+03  0.57490434577E+03  0.17362815591E+03 0.  0.
         24    2    3    3    0    0 -0.77433079488E+02  0.35581687300E+02  0.35295451547E+03  0.37185199808E+03  0.80218951684E+02 0.  0.
         -6    2    1    2    0  501  0.21827478766E+02 -0.92137374182E+02  0.77027857713E+03  0.79501345680E+03  0.17248645032E+03 0.  0.
        -24    2    5    5    0    0 -0.35290913420E+01 -0.12590383584E+03  0.51539954730E+03  0.53661736660E+03  0.80357167778E+02 0.  0.
          5    1    3    3  502    0  0.55605600722E+02  0.56555686882E+02  0.18686261626E+03  0.20305234770E+03  0.47000000000E+01 0. -1.
        -13    1    4    4    0    0 -0.79785167001E+02  0.17084067403E+00  0.21253439983E+03  0.22701668038E+03  0.00000000000E+00 0.  1.
         14    1    4    4    0    0  0.23520875129E+01  0.35410846626E+02  0.14042011564E+03  0.14483531769E+03  0.00000000000E+00 0. -1.
         -5    1    5    5    0  501  0.25356570108E+02  0.33766461655E+02  0.25487902984E+03  0.25839609020E+03  0.47000000000E+01 0.  1.
         11    1    6    6    0    0 -0.37645210092E+02 -0.31728205660E+02  0.17223372484E+03  0.17913206538E+03  0.00000000000E+00 0. -1.
        -12    1    6    6    0    0  0.34116118750E+02 -0.94175630178E+02  0.34316582246E+03  0.35748530121E+03  0.00000000000E+00 0.  1.
<mgrwt>
<rscale>  2 0.19726730E+03</rscale>
<asrwt>0</asrwt>
<pdfrwt beam="1">  1        2 0.20615484E+00 0.19726730E+03</pdfrwt>
<pdfrwt beam="2">  1       -2 0.46017006E-02 0.19726730E+03</pdfrwt>
<totfact> 0.36875736E+03</totfact>
</mgrwt>
</event>
<event>
12    1  0.4154313E-002  0.1734381E+03  0.7546771E-02  0.1174309E+00
          1   -1    0    0  502    0  0.00000000000E+00  0.00000000000E+00  0.57190781491E+02  0.57190781491E+02  0.00000000000E+00 0. -1.
         -1   -1    0    0    0  501 -0.00000000000E+00 -0.00000000000E+00 -0.14367724326E+04  0.14367724326E+04  0.00000000000E+00 0.  1.
          6    2    1    2  502    0 -0.11115977779E+02 -0.12464429410E+02 -0.95106083231E+02  0.19783627871E+03  0.17267049297E+03 0.  0.
         24    2    3    3    0    0 -0.26728382830E+02  0.56714164492E+02 -0.59655740493E+02  0.11841183760E+03  0.80818642692E+02 0.  0.
         -6    2    1    2    0  501  0.11115977779E+02  0.12464429410E+02 -0.12844755679E+04  0.12961269354E+04  0.17259380402E+03 0.  0.
        -24    2    5    5    0    0  0.58064431394E+02 -0.18099820096E+02 -0.49949713404E+03  0.50913801409E+03  0.77621187811E+02 0.  0.
          5    1    3    3  502    0  0.15612405052E+02 -0.69178593902E+02 -0.35450342739E+02  0.79424441113E+02  0.47000000000E+01 0. -1.
        -11    1    4    4    0    0 -0.33524038979E+02 -0.71308742441E+01 -0.36726002751E+02  0.50234548221E+02  0.00000000000E+00 0.  1.
         12    1    4    4    0    0  0.67956561483E+01  0.63845038737E+02 -0.22929737742E+02  0.68177289376E+02  0.00000000000E+00 0. -1.
         -5    1    5    5    0  501 -0.46948453615E+02  0.30564249505E+02 -0.78497843389E+03  0.78698892134E+03  0.47000000000E+01 0.  1.
         13    1    6    6    0    0  0.39348123751E+02  0.24913757493E+02 -0.16790382705E+03  0.17424312122E+03  0.00000000000E+00 0. -1.
        -14    1    6    6    0    0  0.18716307643E+02 -0.43013577589E+02 -0.33159330699E+03  0.33489489287E+03  0.00000000000E+00 0.  1.
<mgrwt>
<rscale>  2 0.17343813E+03</rscale>
<asrwt>0</asrwt>
<pdfrwt beam="1">  1        1 0.87985820E-02 0.17343813E+03</pdfrwt>
<pdfrwt beam="2">  1       -1 0.22104191E+00 0.17343813E+03</pdfrwt>
<totfact> 0.94303060E+01</totfact>
</mgrwt>
</event>
<event>
12    1  0.4154313E-002  0.1836946E+03  0.7546771E-02  0.1164275E+00
         -3   -1    0    0    0  501 -0.00000000000E+00  0.00000000000E+00  0.30884642044E+02  0.30884642044E+02  0.00000000000E+00 0. -1.
          3   -1    0    0  502    0  0.00000000000E+00 -0.00000000000E+00 -0.10985729272E+04  0.10985729272E+04  0.00000000000E+00 0.  1.
          6    2    1    2  502    0 -0.68590318575E+02  0.14563611906E+02 -0.56965197199E+03  0.59795771601E+03  0.16772993277E+03 0.  0.
         24    2    3    3    0    0 -0.67264846047E+02 -0.14148554065E+02 -0.55517396139E+03  0.56543313848E+03  0.82290738193E+02 0.  0.
         -6    2    1    2    0  501  0.68590318575E+02 -0.14563611906E+02 -0.49803631312E+03  0.53149985320E+03  0.17185806400E+03 0.  0.
        -24    2    5    5    0    0  0.19340642478E+02  0.46161991758E+02 -0.17382051567E+03  0.19795659834E+03  0.80425451361E+02 0.  0.
          5    1    3    3  502    0 -0.13254725286E+01  0.28712165971E+02 -0.14478010597E+02  0.32524577523E+02  0.47000000000E+01 0. -1.
        -13    1    4    4    0    0 -0.61495195823E+02 -0.49219716769E+01 -0.18336078977E+03  0.19346075607E+03  0.00000000000E+00 0.  1.
         14    1    4    4    0    0 -0.57696502234E+01 -0.92265823882E+01 -0.37181317162E+03  0.37197238241E+03  0.00000000000E+00 0. -1.
         -5    1    5    5    0  501  0.49249676098E+02 -0.60725603664E+02 -0.32421579746E+03  0.33354325485E+03  0.47000000000E+01 0.  1.
         13    1    6    6    0    0 -0.17665465658E+02  0.15835090971E+02 -0.74849230289E+01  0.24876552328E+02  0.00000000000E+00 0. -1.
        -14    1    6    6    0    0  0.37006108136E+02  0.30326900788E+02 -0.16633559264E+03  0.17308004602E+03  0.00000000000E+00 0.  1.
<mgrwt>
<rscale>  2 0.18369462E+03</rscale>
<asrwt>0</asrwt>
<pdfrwt beam="2">  1        3 0.16901121E+00 0.18369462E+03</pdfrwt>
<pdfrwt beam="1">  1       -3 0.47514836E-02 0.18369462E+03</pdfrwt>
<totfact> 0.15188564E+02</totfact>
</mgrwt>
</event>
<event>
12    1  0.4154313E-002  0.1818055E+03  0.7546771E-02  0.1166067E+00
          1   -1    0    0  502    0  0.00000000000E+00  0.00000000000E+00  0.13727086520E+03  0.13727086520E+03  0.00000000000E+00 0.  1.
         -1   -1    0    0    0  501 -0.00000000000E+00 -0.00000000000E+00 -0.24087275927E+03  0.24087275927E+03  0.00000000000E+00 0. -1.
          6    2    1    2  502    0  0.43293926242E+02  0.34247309772E+02 -0.55292475340E+02  0.18988669822E+03  0.17306778457E+03 0.  0.
         24    2    3    3    0    0  0.34593656155E+02  0.88039595336E+02 -0.21249774165E+02  0.12546387471E+03  0.79636295503E+02 0.  0.
         -6    2    1    2    0  501 -0.43293926242E+02 -0.34247309772E+02 -0.48309418731E+02  0.18825692626E+03  0.17337712672E+03 0.  0.
        -24    2    5    5    0    0 -0.44666966565E+02  0.19584763577E+02  0.22539891764E+02  0.99141876137E+02  0.83320849832E+02 0.  0.
          5    1    3    3  502    0  0.87002700874E+01 -0.53792285564E+02 -0.34042701175E+02  0.64422823510E+02  0.47000000000E+01 0. -1.
        -11    1    4    4    0    0 -0.49642346746E+01 -0.66148762529E+01  0.14610487328E+02  0.16788881848E+02  0.00000000000E+00 0.  1.
         12    1    4    4    0    0  0.39557890829E+02  0.94654471589E+02 -0.35860261493E+02  0.10867499286E+03  0.00000000000E+00 0. -1.
         -5    1    5    5    0  501  0.13730403223E+01 -0.53832073349E+02 -0.70849310495E+02  0.89115050123E+02  0.47000000000E+01 0.  1.
         11    1    6    6    0    0 -0.62695896741E+02  0.35614834759E+02  0.13378042694E+02  0.73335966275E+02  0.00000000000E+00 0. -1.
        -12    1    6    6    0    0  0.18028930177E+02 -0.16030071182E+02  0.91618490694E+01  0.25805909862E+02  0.00000000000E+00 0.  1.
<mgrwt>
<rscale>  2 0.18180551E+03</rscale>
<asrwt>0</asrwt>
<pdfrwt beam="1">  1        1 0.21118595E-01 0.18180551E+03</pdfrwt>
<pdfrwt beam="2">  1       -1 0.37057347E-01 0.18180551E+03</pdfrwt>
<totfact> 0.16620277E+03</totfact>
</mgrwt>
</event>
<event>
12    1  0.4154313E-002  0.2042284E+03  0.7546771E-02  0.1146220E+00
         -3   -1    0    0    0  501 -0.00000000000E+00  0.00000000000E+00  0.17146494307E+03  0.17146494307E+03  0.00000000000E+00 0.  1.
          3   -1    0    0  502    0  0.00000000000E+00 -0.00000000000E+00 -0.30373717668E+03  0.30373717668E+03  0.00000000000E+00 0. -1.
          6    2    1    2  502    0  0.68652115455E+02  0.86280080515E+02  0.39752352521E+02  0.20858570846E+03  0.17254096034E+03 0.  0.
         24    2    3    3    0    0  0.42615094258E+01  0.52021574317E+02  0.79240590110E+02  0.12551220908E+03  0.82157402892E+02 0.  0.
         -6    2    1    2    0  501 -0.68652115455E+02 -0.86280080515E+02 -0.17202458613E+03  0.26661641129E+03  0.17127313650E+03 0.  0.
        -24    2    5    5    0    0 -0.91783079741E+02 -0.22001259357E+02 -0.15268512976E+03  0.19546226221E+03  0.77359924764E+02 0.  0.
          5    1    3    3  502    0  0.64390606029E+02  0.34258506198E+02 -0.39488237589E+02  0.83073499382E+02  0.47000000000E+01 0. -1.
        -13    1    4    4    0    0 -0.12845601909E+02  0.51309716997E+02  0.90638839829E+02  0.10494329818E+03  0.00000000000E+00 0.  1.
         14    1    4    4    0    0  0.17107111335E+02  0.71185732052E+00 -0.11398249719E+02  0.20568910903E+02  0.00000000000E+00 0. -1.
         -5    1    5    5    0  501  0.23130964286E+02 -0.64278821158E+02 -0.19339456363E+02  0.71154149076E+02  0.47000000000E+01 0.  1.
         13    1    6    6    0    0 -0.34118689584E+00  0.81841118722E+00 -0.70235987751E+02  0.70241584413E+02  0.00000000000E+00 0. -1.
        -14    1    6    6    0    0 -0.91441892845E+02 -0.22819670544E+02 -0.82449142010E+02  0.12522067780E+03  0.00000000000E+00 0.  1.
<mgrwt>
<rscale>  2 0.20422838E+03</rscale>
<asrwt>0</asrwt>
<pdfrwt beam="2">  1        3 0.46728796E-01 0.20422838E+03</pdfrwt>
<pdfrwt beam="1">  1       -3 0.26379222E-01 0.20422838E+03</pdfrwt>
<totfact> 0.15251721E+02</totfact>
</mgrwt>
</event>
<event>
12    1  0.4154313E-002  0.1727154E+03  0.7546771E-02  0.1175045E+00
          1   -1    0    0  502    0  0.00000000000E+00  0.00000000000E+00  0.89350455610E+03  0.89350455610E+03  0.00000000000E+00 0. -1.
         -1   -1    0    0    0  501 -0.00000000000E+00 -0.00000000000E+00 -0.51591419139E+02  0.51591419139E+02  0.00000000000E+00 0.  1.
          6    2    1    2  502    0 -0.66357475088E+01  0.10905406027E+02  0.14027629652E+03  0.22251825544E+03  0.17226135263E+03 0.  0.
         24    2    3    3    0    0  0.21050361025E+02  0.68084645816E+02  0.76197268607E+02  0.13216230440E+03  0.81130846581E+02 0.  0.
         -6    2    1    2    0  501  0.66357475088E+01 -0.10905406027E+02  0.70163684044E+03  0.72257771980E+03  0.17222469123E+03 0.  0.
        -24    2    5    5    0    0  0.47466879546E+02 -0.99510517569E+01  0.64916755446E+03  0.65592032631E+03  0.80379304697E+02 0.  0.
          5    1    3    3  502    0 -0.27686108533E+02 -0.57179239790E+02  0.64079027917E+02  0.90355951035E+02  0.47000000000E+01 0. -1.
        -13    1    4    4    0    0  0.11874119099E+02  0.31008991076E+02 -0.12587596421E+02  0.35510559213E+02  0.00000000000E+00 0.  1.
         14    1    4    4    0    0  0.91762419259E+01  0.37075654740E+02  0.88784865029E+02  0.96651745191E+02  0.00000000000E+00 0. -1.
         -5    1    5    5    0  501 -0.40831132037E+02 -0.95435426970E+00  0.52469285975E+02  0.66657393485E+02  0.47000000000E+01 0.  1.
         13    1    6    6    0    0  0.26080511266E+02 -0.29459931924E+02  0.12709703030E+03  0.13304787021E+03  0.00000000000E+00 0. -1.
        -14    1    6    6    0    0  0.21386368280E+02  0.19508880167E+02  0.52207052416E+03  0.52287245610E+03  0.00000000000E+00 0.  1.
<mgrwt>
<rscale>  2 0.17271543E+03</rscale>
<asrwt>0</asrwt>
<pdfrwt beam="1">  1        1 0.13746223E+00 0.17271543E+03</pdfrwt>
<pdfrwt beam="2">  1       -1 0.79371421E-02 0.17271543E+03</pdfrwt>
<totfact> 0.16781889E+03</totfact>
</mgrwt>
</event>
<event>
12    1  0.4154313E-002  0.1832274E+03  0.7546771E-02  0.1164716E+00
          1   -1    0    0  502    0  0.00000000000E+00  0.00000000000E+00  0.13250346369E+03  0.13250346369E+03  0.00000000000E+00 0. -1.
         -1   -1    0    0    0  501 -0.00000000000E+00 -0.00000000000E+00 -0.25394533532E+03  0.25394533532E+03  0.00000000000E+00 0.  1.
          6    2    1    2  502    0 -0.55203089301E+02  0.27392605850E+01 -0.51173035461E+02  0.18890431005E+03  0.17323762345E+03 0.  0.
         24    2    3    3    0    0 -0.27311304091E+02  0.67391127017E+02 -0.47169756437E+02  0.11822240460E+03  0.80399500583E+02 0.  0.
         -6    2    1    2    0  501  0.55203089301E+02 -0.27392605850E+01 -0.70268836168E+02  0.19754448896E+03  0.17615683684E+03 0.  0.
        -24    2    5    5    0    0  0.61117826911E+02 -0.50344796857E+02 -0.63009885368E+01  0.11744925355E+03  0.86513798700E+02 0.  0.
          5    1    3    3  502    0 -0.27891785210E+02 -0.64651866432E+02 -0.40032790240E+01  0.70681905452E+02  0.47000000000E+01 0. -1.
        -11    1    4    4    0    0 -0.15676137852E+02 -0.75995873944E+01 -0.37973867647E+02  0.41779296913E+02  0.00000000000E+00 0.  1.
         12    1    4    4    0    0 -0.11635166239E+02  0.74990714412E+02 -0.91958887904E+01  0.76443107682E+02  0.00000000000E+00 0. -1.
         -5    1    5    5    0  501 -0.59147376100E+01  0.47605536272E+02 -0.63967847631E+02  0.80095235409E+02  0.47000000000E+01 0.  1.
         13    1    6    6    0    0  0.31576041752E+02 -0.63373531107E+02  0.22385982738E+02  0.74258892268E+02  0.00000000000E+00 0. -1.
        -14    1    6    6    0    0  0.29541785159E+02  0.13028734251E+02 -0.28686971275E+02  0.43190361280E+02  0.00000000000E+00 0.  1.
<mgrwt>
<rscale>  2 0.18322736E+03</rscale>
<asrwt>0</asrwt>
<pdfrwt beam="1">  1        1 0.20385148E-01 0.18322736E+03</pdfrwt>
<pdfrwt beam="2">  1       -1 0.39068513E-01 0.18322736E+03</pdfrwt>
<totfact> 0.15855810E+03</totfact>
</mgrwt>
</event>
<event>
12    1  0.4154313E-002  0.2883656E+03  0.7546771E-02  0.1091206E+00
          1   -1    0    0  502    0  0.00000000000E+00  0.00000000000E+00  0.12977509208E+04  0.12977509208E+04  0.00000000000E+00 0. -1.
         -1   -1    0    0    0  501 -0.00000000000E+00 -0.00000000000E+00 -0.64708864731E+02  0.64708864731E+02  0.00000000000E+00 0.  1.
          6    2    1    2  502    0  0.21304647172E+03  0.93372088885E+02  0.68175511126E+03  0.73984873258E+03  0.16875713105E+03 0.  0.
         24    2    3    3    0    0  0.13515817734E+03  0.11084294188E+03  0.35977533600E+03  0.40808845349E+03  0.80895011055E+02 0.  0.
         -6    2    1    2    0  501 -0.21304647172E+03 -0.93372088885E+02  0.55128694481E+03  0.62261105295E+03  0.17210485653E+03 0.  0.
        -24    2    5    5    0    0 -0.20075809785E+03 -0.12645877315E+03  0.44712676999E+03  0.51253305866E+03  0.80449689983E+02 0.  0.
          5    1    3    3  502    0  0.77888294384E+02 -0.17470852994E+02  0.32197977526E+03  0.33176027909E+03  0.47000000000E+01 0. -1.
        -13    1    4    4    0    0  0.13682325320E+03  0.10207279786E+03  0.28083750591E+03  0.32864747589E+03  0.00000000000E+00 0.  1.
         14    1    4    4    0    0 -0.16650758674E+01  0.87701440230E+01  0.78937830089E+02  0.79440977606E+02  0.00000000000E+00 0. -1.
         -5    1    5    5    0  501 -0.12288373876E+02  0.33086684268E+02  0.10416017482E+03  0.11007799429E+03  0.47000000000E+01 0.  1.
         11    1    6    6    0    0 -0.50932680426E+02 -0.51895469659E+02  0.21050963958E+03  0.22271413530E+03  0.00000000000E+00 0. -1.
        -12    1    6    6    0    0 -0.14982541742E+03 -0.74563303495E+02  0.23661713041E+03  0.28981892336E+03  0.00000000000E+00 0.  1.
<mgrwt>
<rscale>  2 0.28836559E+03</rscale>
<asrwt>0</asrwt>
<pdfrwt beam="1">  1        1 0.19965397E+00 0.28836559E+03</pdfrwt>
<pdfrwt beam="2">  1       -1 0.99552109E-02 0.28836559E+03</pdfrwt>
<totfact> 0.60171722E+02</totfact>
</mgrwt>
</event>
<event>
12    1  0.4154313E-002  0.2158580E+03  0.7546771E-02  0.1137009E+00
          1   -1    0    0  502    0  0.00000000000E+00  0.00000000000E+00  0.12172202488E+03  0.12172202488E+03  0.00000000000E+00 0. -1.
         -1   -1    0    0    0  501 -0.00000000000E+00 -0.00000000000E+00 -0.43564415568E+03  0.43564415568E+03  0.00000000000E+00 0.  1.
          6    2    1    2  502    0  0.89497947418E+02 -0.93831439253E+02 -0.59969008635E+02  0.22414258985E+03  0.17271189017E+03 0.  0.
         24    2    3    3    0    0  0.71695482040E+02 -0.13239845791E+03 -0.65251452149E+02  0.18108057746E+03  0.76569117304E+02 0.  0.
         -6    2    1    2    0  501 -0.89497947418E+02  0.93831439253E+02 -0.25395312216E+03  0.33322359071E+03  0.17242839547E+03 0.  0.
        -24    2    5    5    0    0 -0.10553653724E+02  0.66679244305E+02 -0.56114531487E+02  0.11844081403E+03  0.79510279561E+02 0.  0.
          5    1    3    3  502    0  0.17802465377E+02  0.38567018657E+02  0.52824435136E+01  0.43062012390E+02  0.47000000000E+01 0. -1.
        -11    1    4    4    0    0  0.14530631535E+01 -0.33214063359E+02 -0.47904548773E+02  0.58310643887E+02  0.00000000000E+00 0.  1.
         12    1    4    4    0    0  0.70242418887E+02 -0.99184394550E+02 -0.17346903376E+02  0.12276993358E+03  0.00000000000E+00 0. -1.
         -5    1    5    5    0  501 -0.78944293694E+02  0.27152194948E+02 -0.19783859067E+03  0.21478277668E+03  0.47000000000E+01 0.  1.
         11    1    6    6    0    0 -0.10453417693E+02 -0.17292346036E+02 -0.13230499061E+02  0.24152541859E+02  0.00000000000E+00 0. -1.
        -12    1    6    6    0    0 -0.10023603104E+00  0.83971590341E+02 -0.42884032426E+02  0.94288272170E+02  0.00000000000E+00 0.  1.
<mgrwt>
<rscale>  2 0.21585799E+03</rscale>
<asrwt>0</asrwt>
<pdfrwt beam="1">  1        1 0.18726465E-01 0.21585799E+03</pdfrwt>
<pdfrwt beam="2">  1       -1 0.67022178E-01 0.21585799E+03</pdfrwt>
<totfact> 0.65123922E+02</totfact>
</mgrwt>
</event>
<event>
12    1  0.4154313E-002  0.2532788E+03  0.7546771E-02  0.1111250E+00
          1   -1    0    0  502    0  0.00000000000E+00  0.00000000000E+00  0.20459272976E+03  0.20459272976E+03  0.00000000000E+00 0.  1.
         -1   -1    0    0    0  501 -0.00000000000E+00 -0.00000000000E+00 -0.40509192296E+03  0.40509192296E+03  0.00000000000E+00 0. -1.
          6    2    1    2  502    0  0.14329671822E+03 -0.11830437980E+03  0.44884068863E+02  0.25650883693E+03  0.17103311976E+03 0.  0.
         24    2    3    3    0    0  0.65547718662E+02 -0.10263118277E+03 -0.27335285732E+02  0.14913900311E+03  0.81642888874E+02 0.  0.
         -6    2    1    2    0  501 -0.14329671822E+03  0.11830437980E+03 -0.24538326206E+03  0.35317581579E+03  0.17317718044E+03 0.  0.
        -24    2    5    5    0    0 -0.79365707169E+02  0.14570439814E+03 -0.17962334030E+03  0.25734057964E+03  0.80193157026E+02 0.  0.
          5    1    3    3  502    0  0.77748999554E+02 -0.15673197030E+02  0.72219354595E+02  0.10736983382E+03  0.47000000000E+01 0. -1.
        -13    1    4    4    0    0  0.55752051115E+02 -0.93817156737E+02  0.99580164918E+01  0.10958609489E+03  0.00000000000E+00 0.  1.
         14    1    4    4    0    0  0.97956675468E+01 -0.88140260371E+01 -0.37293302224E+02  0.39552908217E+02  0.00000000000E+00 0. -1.
         -5    1    5    5    0  501 -0.63931011046E+02 -0.27400018336E+02 -0.65759921756E+02  0.95835236148E+02  0.47000000000E+01 0.  1.
         13    1    6    6    0    0 -0.60255823073E+02  0.43084705047E+02 -0.10715937491E+03  0.13026967281E+03  0.00000000000E+00 0. -1.
        -14    1    6    6    0    0 -0.19109884096E+02  0.10261969309E+03 -0.72463965393E+02  0.12707090683E+03  0.00000000000E+00 0.  1.
<mgrwt>
<rscale>  2 0.25327879E+03</rscale>
<asrwt>0</asrwt>
<pdfrwt beam="1">  1        1 0.31475805E-01 0.25327879E+03</pdfrwt>
<pdfrwt beam="2">  1       -1 0.62321833E-01 0.25327879E+03</pdfrwt>
<totfact> 0.38673731E+02</totfact>
</mgrwt>
</event>
<event>
12    1  0.4154313E-002  0.2000449E+03  0.7546771E-02  0.1149701E+00
          1   -1    0    0  502    0  0.00000000000E+00  0.00000000000E+00  0.99413157887E+02  0.99413157887E+02  0.00000000000E+00 0. -1.
         -1   -1    0    0    0  501 -0.00000000000E+00 -0.00000000000E+00 -0.41936627660E+03  0.41936627660E+03  0.00000000000E+00 0.  1.
          6    2    1    2  502    0 -0.22590607636E+01  0.10399446063E+03 -0.10624904656E+03  0.22437661144E+03  0.16803586721E+03 0.  0.
         24    2    3    3    0    0 -0.42145171362E+02  0.85442128847E+02 -0.18321360699E+02  0.12594664256E+03  0.80313832326E+02 0.  0.
         -6    2    1    2    0  501  0.22590607636E+01 -0.10399446063E+03 -0.21370407215E+03  0.29440282304E+03  0.17373439661E+03 0.  0.
        -24    2    5    5    0    0 -0.22576031480E+02 -0.29077632755E+02 -0.28376451626E+02  0.92914039648E+02  0.80452531550E+02 0.  0.
          5    1    3    3  502    0  0.39886110598E+02  0.18552331779E+02 -0.87927685864E+02  0.98429968884E+02  0.47000000000E+01 0. -1.
        -13    1    4    4    0    0 -0.52491157147E+02  0.18025674331E+02 -0.15754201712E+02  0.57692645851E+02  0.00000000000E+00 0.  1.
         14    1    4    4    0    0  0.10345985785E+02  0.67416454516E+02 -0.25671589872E+01  0.68253996708E+02  0.00000000000E+00 0. -1.
         -5    1    5    5    0  501  0.24835092243E+02 -0.74916827872E+02 -0.18532762052E+03  0.20148878339E+03  0.47000000000E+01 0.  1.
         11    1    6    6    0    0  0.26110179213E+02 -0.17394125507E+02 -0.29170306150E+02  0.42839278957E+02  0.00000000000E+00 0. -1.
        -12    1    6    6    0    0 -0.48686210693E+02 -0.11683507248E+02  0.79385452356E+00  0.50074760691E+02  0.00000000000E+00 0.  1.
<mgrwt>
<rscale>  2 0.20004487E+03</rscale>
<asrwt>0</asrwt>
<pdfrwt beam="1">  1        1 0.15294332E-01 0.20004487E+03</pdfrwt>
<pdfrwt beam="2">  1       -1 0.64517889E-01 0.20004487E+03</pdfrwt>
<totfact> 0.91235774E+02</totfact>
</mgrwt>
</event>
<event>
12    1  0.4154313E-002  0.1825583E+03  0.7546771E-02  0.1165350E+00
         -2   -1    0    0    0  501 -0.00000000000E+00  0.00000000000E+00  0.40643855092E+02  0.40643855092E+02  0.00000000000E+00 0. -1.
          2   -1    0    0  502    0  0.00000000000E+00 -0.00000000000E+00 -0.97958885284E+03  0.97958885284E+03  0.00000000000E+00 0.  1.
          6    2    1    2  502    0 -0.13647433989E+02 -0.54204246086E+02 -0.26404215156E+03  0.32113227632E+03  0.17402105719E+03 0.  0.
         24    2    3    3    0    0 -0.24536199308E+02 -0.16279870364E+02 -0.26803704604E+03  0.28119641942E+03  0.79752799248E+02 0.  0.
         -6    2    1    2    0  501  0.13647433989E+02  0.54204246086E+02 -0.67490284619E+03  0.69910043161E+03  0.17356038989E+03 0.  0.
        -24    2    5    5    0    0  0.54506740848E+02  0.85678190986E+02 -0.50667662983E+03  0.52308269945E+03  0.81133014498E+02 0.  0.
          5    1    3    3  502    0  0.10888765320E+02 -0.37924375722E+02  0.39948944865E+01  0.39935856896E+02  0.47000000000E+01 0. -1.
        -11    1    4    4    0    0 -0.26957114580E+02 -0.31715158503E+02 -0.62654794834E+02  0.75220745948E+02  0.00000000000E+00 0.  1.
         12    1    4    4    0    0  0.24209152713E+01  0.15435288139E+02 -0.20538225121E+03  0.20597567347E+03  0.00000000000E+00 0. -1.
         -5    1    5    5    0  501 -0.40859306860E+02 -0.31473944901E+02 -0.16822621636E+03  0.17601773217E+03  0.47000000000E+01 0.  1.
         11    1    6    6    0    0  0.55699939779E+02  0.10012790480E+03 -0.46666761562E+03  0.48052756849E+03  0.00000000000E+00 0. -1.
        -12    1    6    6    0    0 -0.11931989308E+01 -0.14449713816E+02 -0.40009014210E+02  0.42555130961E+02  0.00000000000E+00 0.  1.
<mgrwt>
<rscale>  2 0.18255828E+03</rscale>
<asrwt>0</asrwt>
<pdfrwt beam="2">  1        2 0.15070597E+00 0.18255828E+03</pdfrwt>
<pdfrwt beam="1">  1       -2 0.62529012E-02 0.18255828E+03</pdfrwt>
<totfact> 0.37128817E+03</totfact>
</mgrwt>
</event>
<event>
12    1  0.4154313E-002  0.2181164E+03  0.7546771E-02  0.1135295E+00
          1   -1    0    0  502    0  0.00000000000E+00  0.00000000000E+00  0.17702808224E+04  0.17702808224E+04  0.00000000000E+00 0. -1.
         -1   -1    0    0    0  501 -0.00000000000E+00 -0.00000000000E+00 -0.32976412746E+02  0.32976412746E+02  0.00000000000E+00 0.  1.
          6    2    1    2  502    0 -0.78314352085E+02  0.10904212339E+03  0.12545040194E+04  0.12732193095E+04  0.17112496310E+03 0.  0.
         24    2    3    3    0    0 -0.10570116560E+02  0.15517661876E+01  0.31694592577E+03  0.32707940058E+03  0.80075458649E+02 0.  0.
         -6    2    1    2    0  501  0.78314352085E+02 -0.10904212339E+03  0.48280039032E+03  0.53003792571E+03  0.17268660451E+03 0.  0.
        -24    2    5    5    0    0  0.56964709318E+02 -0.13045483722E+01  0.31345959468E+03  0.32814293472E+03  0.78576002415E+02 0.  0.
          5    1    3    3  502    0 -0.67744235525E+02  0.10749035720E+03  0.93755809359E+03  0.94613990889E+03  0.47000000000E+01 0. -1.
        -11    1    4    4    0    0 -0.11907672944E+02 -0.91583382953E+01  0.31587620998E+03  0.31623321752E+03  0.00000000000E+00 0.  1.
         12    1    4    4    0    0  0.13375563844E+01  0.10710104483E+02  0.10697157995E+01  0.10846183062E+02  0.00000000000E+00 0. -1.
         -5    1    5    5    0  501  0.21349642767E+02 -0.10773757502E+03  0.16934079564E+03  0.20189499099E+03  0.47000000000E+01 0.  1.
         13    1    6    6    0    0  0.53663663633E+01 -0.55903129846E+01 -0.23653131853E+01  0.81021104458E+01  0.00000000000E+00 0. -1.
        -14    1    6    6    0    0  0.51598342955E+02  0.42857646124E+01  0.31582490786E+03  0.32004082427E+03  0.00000000000E+00 0.  1.
<mgrwt>
<rscale>  2 0.21811642E+03</rscale>
<asrwt>0</asrwt>
<pdfrwt beam="1">  1        1 0.27235082E+00 0.21811642E+03</pdfrwt>
<pdfrwt beam="2">  1       -1 0.50732957E-02 0.21811642E+03</pdfrwt>
<totfact> 0.82366961E+02</totfact>
</mgrwt>
</event>
<event>
12    1  0.4154313E-002  0.1982352E+03  0.7546771E-02  0.1151237E+00
         -2   -1    0    0    0  501 -0.00000000000E+00  0.00000000000E+00  0.18072840560E+03  0.18072840560E+03  0.00000000000E+00 0.  1.
          2   -1    0    0  502    0  0.00000000000E+00 -0.00000000000E+00 -0.21929331624E+03  0.21929331624E+03  0.00000000000E+00 0. -1.
          6    2    1    2  502    0 -0.82708163528E+02 -0.48742400276E+02 -0.94723793112E+00  0.19879411503E+03  0.17407395271E+03 0.  0.
         24    2    3    3    0    0  0.19325218631E+02 -0.72072704034E+02  0.96911781820E+01  0.93483241678E+02  0.55473045690E+02 0.  0.
         -6    2    1    2    0  501  0.82708163528E+02  0.48742400276E+02 -0.37617672710E+02  0.20122760681E+03  0.17280335223E+03 0.  0.
        -24    2    5    5    0    0  0.55784354471E+02  0.73470643476E+02 -0.78455088214E+02  0.14621704409E+03  0.81941402587E+02 0.  0.
          5    1    3    3  502    0 -0.10203338216E+03  0.23330303758E+02 -0.10638416113E+02  0.10531087335E+03  0.47000000000E+01 0. -1.
        -13    1    4    4    0    0 -0.11476426616E+02 -0.48693007549E+02 -0.85071109830E+01  0.50745327758E+02  0.00000000000E+00 0.  1.
         14    1    4    4    0    0  0.30801645247E+02 -0.23379696485E+02  0.18198289165E+02  0.42737913919E+02  0.00000000000E+00 0. -1.
         -5    1    5    5    0  501  0.26923809057E+02 -0.24728243200E+02  0.40837415504E+02  0.55010562722E+02  0.47000000000E+01 0.  1.
         11    1    6    6    0    0  0.35771389809E+02  0.26915809631E+02 -0.84056556206E+02  0.95234225876E+02  0.00000000000E+00 0. -1.
        -12    1    6    6    0    0  0.20012964663E+02  0.46554833845E+02  0.56014679925E+01  0.50982818209E+02  0.00000000000E+00 0.  1.
<mgrwt>
<rscale>  2 0.19823525E+03</rscale>
<asrwt>0</asrwt>
<pdfrwt beam="2">  1        2 0.33737433E-01 0.19823525E+03</pdfrwt>
<pdfrwt beam="1">  1       -2 0.27804370E-01 0.19823525E+03</pdfrwt>
<totfact> 0.17894487E+03</totfact>
</mgrwt>
</event>
<event>
12    1  0.4154313E-002  0.3343895E+03  0.7546771E-02  0.1069211E+00
         -1   -1    0    0    0  501 -0.00000000000E+00  0.00000000000E+00  0.19416629036E+03  0.19416629036E+03  0.00000000000E+00 0. -1.
          1   -1    0    0  502    0  0.00000000000E+00 -0.00000000000E+00 -0.61304912399E+03  0.61304912399E+03  0.00000000000E+00 0.  1.
          6    2    1    2  502    0 -0.28429245104E+03 -0.35685327472E+02 -0.10960130122E+03  0.35114660512E+03  0.17086793948E+03 0.  0.
         24    2    3    3    0    0 -0.65080661110E+02  0.14563354717E+01 -0.60921816854E+01  0.10585180331E+03  0.83245878107E+02 0.  0.
         -6    2    1    2    0  501  0.28429245104E+03  0.35685327472E+02 -0.30928153241E+03  0.45606880923E+03  0.17391967154E+03 0.  0.
        -24    2    5    5    0    0  0.18515844630E+03  0.84283712089E+02 -0.16498686400E+03  0.27432064496E+03  0.81509242429E+02 0.  0.
          5    1    3    3  502    0 -0.21921178993E+03 -0.37141662944E+02 -0.10350911954E+03  0.24529480182E+03  0.47000000000E+01 0. -1.
        -11    1    4    4    0    0 -0.33167920837E+02  0.42103898914E+02 -0.76957257863E+01  0.54148623914E+02  0.00000000000E+00 0.  1.
         12    1    4    4    0    0 -0.31912740273E+02 -0.40647563442E+02  0.16035441009E+01  0.51703179391E+02  0.00000000000E+00 0. -1.
         -5    1    5    5    0  501  0.99134004744E+02 -0.48598384617E+02 -0.14429466840E+03  0.18174816426E+03  0.47000000000E+01 0.  1.
         11    1    6    6    0    0 -0.36354491210E+01  0.18574569091E+02 -0.10225479693E+02  0.21512590318E+02  0.00000000000E+00 0. -1.
        -12    1    6    6    0    0  0.18879389542E+03  0.65709142998E+02 -0.15476138431E+03  0.25280805464E+03  0.00000000000E+00 0.  1.
<mgrwt>
<rscale>  2 0.33438953E+03</rscale>
<asrwt>0</asrwt>
<pdfrwt beam="2">  1        1 0.94315249E-01 0.33438953E+03</pdfrwt>
<pdfrwt beam="1">  1       -1 0.29871737E-01 0.33438953E+03</pdfrwt>
<totfact> 0.35202536E+02</totfact>
</mgrwt>
</event>
<event>
12    1  0.4154313E-002  0.2152295E+03  0.7546771E-02  0.1137490E+00
         -2   -1    0    0    0  501 -0.00000000000E+00  0.00000000000E+00  0.72126698923E+02  0.72126698923E+02  0.00000000000E+00 0. -1.
          2   -1    0    0  502    0  0.00000000000E+00 -0.00000000000E+00 -0.72199632056E+03  0.72199632056E+03  0.00000000000E+00 0.  1.
          6    2    1    2  502    0 -0.12664768702E+03  0.91289933749E+01 -0.19827861135E+03  0.29547742646E+03  0.17852038171E+03 0.  0.
         24    2    3    3    0    0 -0.15622011391E+03 -0.93030315625E+01 -0.13188222931E+03  0.22034529270E+03  0.81656936162E+02 0.  0.
         -6    2    1    2    0  501  0.12664768702E+03 -0.91289933749E+01 -0.45159101029E+03  0.49864559302E+03  0.16908581169E+03 0.  0.
        -24    2    5    5    0    0  0.31811515886E+00 -0.17004335467E+02 -0.21898180632E+03  0.23378654841E+03  0.80086641191E+02 0.  0.
          5    1    3    3  502    0  0.29572426891E+02  0.18432024937E+02 -0.66396382042E+02  0.75132133762E+02  0.47000000000E+01 0. -1.
        -13    1    4    4    0    0 -0.10615430868E+03  0.22489685953E+02 -0.50605134102E+02  0.11973054256E+03  0.00000000000E+00 0.  1.
         14    1    4    4    0    0 -0.50065805229E+02 -0.31792717515E+02 -0.81277095206E+02  0.10061475014E+03  0.00000000000E+00 0. -1.
         -5    1    5    5    0  501  0.12632957186E+03  0.78753420919E+01 -0.23260920397E+03  0.26485904461E+03  0.47000000000E+01 0.  1.
         11    1    6    6    0    0 -0.16931858273E+02 -0.62618490104E+01 -0.48502399816E+01  0.18692870445E+02  0.00000000000E+00 0. -1.
        -12    1    6    6    0    0  0.17249973432E+02 -0.10742486456E+02 -0.21413156634E+03  0.21509367797E+03  0.00000000000E+00 0.  1.
<mgrwt>
<rscale>  2 0.21522949E+03</rscale>
<asrwt>0</asrwt>
<pdfrwt beam="2">  1        2 0.11107636E+00 0.21522949E+03</pdfrwt>
<pdfrwt beam="1">  1       -2 0.11096415E-01 0.21522949E+03</pdfrwt>
<totfact> 0.22538320E+03</totfact>
</mgrwt>
</event>
<event>
12    1  0.4154313E-002  0.2011842E+03  0.7546771E-02  0.1148744E+00
          1   -1    0    0  502    0  0.00000000000E+00  0.00000000000E+00  0.82361451572E+03  0.82361451572E+03  0.00000000000E+00 0.  1.
         -1   -1    0    0    0  501 -0.00000000000E+00 -0.00000000000E+00 -0.53740213664E+02  0.53740213664E+02  0.00000000000E+00 0. -1.
          6    2    1    2  502    0 -0.76309562427E+02  0.82865633168E+02  0.26807587304E+03  0.33894873879E+03  0.17416001650E+03 0.  0.
         24    2    3    3    0    0 -0.72179716537E+01 -0.93066968739E+01  0.56618495756E+02  0.98105016127E+02  0.79247879505E+02 0.  0.
         -6    2    1    2    0  501  0.76309562427E+02 -0.82865633168E+02  0.50179842901E+03  0.53840599059E+03  0.15934078216E+03 0.  0.
        -24    2    5    5    0    0  0.80673848747E+02 -0.15878930009E+02  0.21805980383E+03  0.24679672664E+03  0.81228910779E+02 0.  0.
          5    1    3    3  502    0 -0.69091590774E+02  0.92172330042E+02  0.21145737728E+03  0.24084372267E+03  0.47000000000E+01 0. -1.
        -11    1    4    4    0    0 -0.14769417982E+02 -0.20482942721E+02  0.72790499036E+02  0.77046371750E+02  0.00000000000E+00 0.  1.
         12    1    4    4    0    0  0.75514463287E+01  0.11176245848E+02 -0.16172003279E+02  0.21058644376E+02  0.00000000000E+00 0. -1.
         -5    1    5    5    0  501 -0.43642863197E+01 -0.66986703159E+02  0.28373862518E+03  0.29160926394E+03  0.47000000000E+01 0.  1.
         11    1    6    6    0    0 -0.16072382057E+02 -0.56352805116E+01  0.21069173269E+02  0.27092211310E+02  0.00000000000E+00 0. -1.
        -12    1    6    6    0    0  0.96746230804E+02 -0.10243649497E+02  0.19699063056E+03  0.21970451533E+03  0.00000000000E+00 0.  1.
<mgrwt>
<rscale>  2 0.20118424E+03</rscale>
<asrwt>0</asrwt>
<pdfrwt beam="1">  1        1 0.12670992E+00 0.20118424E+03</pdfrwt>
<pdfrwt beam="2">  1       -1 0.82677258E-02 0.20118424E+03</pdfrwt>
<totfact> 0.17959617E+03</totfact>
</mgrwt>
</event>
<event>
12    1  0.4154313E-002  0.2610291E+03  0.7546771E-02  0.1106526E+00
          1   -1    0    0  502    0  0.00000000000E+00  0.00000000000E+00  0.17947129208E+04  0.17947129208E+04  0.00000000000E+00 0.  1.
         -1   -1    0    0    0  501 -0.00000000000E+00 -0.00000000000E+00 -0.43247505045E+02  0.43247505045E+02  0.00000000000E+00 0. -1.
          6    2    1    2  502    0  0.64454004119E+02 -0.18603149311E+03  0.11935310134E+04  0.12214991551E+04  0.16965220525E+03 0.  0.
         24    2    3    3    0    0  0.52456266947E+02 -0.48522234068E+02  0.73049653297E+03  0.73830585822E+03  0.79776490722E+02 0.  0.
         -6    2    1    2    0  501 -0.64454004119E+02  0.18603149311E+03  0.55793440237E+03  0.61646127081E+03  0.17312326821E+03 0.  0.
        -24    2    5    5    0    0 -0.11413304225E+02  0.42772980195E+02  0.13900957503E+03  0.17052807142E+03  0.88297054551E+02 0.  0.
          5    1    3    3  502    0  0.11997737172E+02 -0.13750925904E+03  0.46303448045E+03  0.48319329684E+03  0.47000000000E+01 0. -1.
        -11    1    4    4    0    0  0.63345865127E+02 -0.16956059198E+02  0.33209688048E+03  0.33850929765E+03  0.00000000000E+00 0.  1.
         12    1    4    4    0    0 -0.10889598181E+02 -0.31566174870E+02  0.39839965249E+03  0.39979656058E+03  0.00000000000E+00 0. -1.
         -5    1    5    5    0  501 -0.53040699894E+02  0.14325851291E+03  0.41892482734E+03  0.44593319940E+03  0.47000000000E+01 0.  1.
         11    1    6    6    0    0  0.10603664925E+02 -0.11804158073E+02  0.96833194593E+02  0.98124632141E+02  0.00000000000E+00 0. -1.
        -12    1    6    6    0    0 -0.22016969150E+02  0.54577138268E+02  0.42176380438E+02  0.72403439275E+02  0.00000000000E+00 0.  1.
<mgrwt>
<rscale>  2 0.26102913E+03</rscale>
<asrwt>0</asrwt>
<pdfrwt beam="1">  1        1 0.27610962E+00 0.26102913E+03</pdfrwt>
<pdfrwt beam="2">  1       -1 0.66534637E-02 0.26102913E+03</pdfrwt>
<totfact> 0.52463443E+02</totfact>
</mgrwt>
</event>
<event>
12    1  0.4154313E-002  0.1851675E+03  0.7546771E-02  0.1162894E+00
          3   -1    0    0  502    0  0.00000000000E+00  0.00000000000E+00  0.20733525303E+03  0.20733525303E+03  0.00000000000E+00 0.  1.
         -3   -1    0    0    0  501 -0.00000000000E+00 -0.00000000000E+00 -0.16971383179E+03  0.16971383179E+03  0.00000000000E+00 0. -1.
          6    2    1    2  502    0  0.64355495085E+02  0.43793519322E+01  0.49015505808E+02  0.19201005213E+03  0.17408196874E+03 0.  0.
         24    2    3    3    0    0  0.27781590661E+02 -0.44221002726E+02  0.78752547870E+02  0.12414233795E+03  0.80511132239E+02 0.  0.
         -6    2    1    2    0  501 -0.64355495085E+02 -0.43793519322E+01 -0.11394084568E+02  0.18503903268E+03  0.17305724481E+03 0.  0.
        -24    2    5    5    0    0 -0.98402777499E+02  0.15310572276E+02 -0.43164685755E+02  0.13426136382E+03  0.79027865184E+02 0.  0.
          5    1    3    3  502    0  0.36573904423E+02  0.48600354658E+02 -0.29737042062E+02  0.67867714182E+02  0.47000000000E+01 0. -1.
        -13    1    4    4    0    0  0.38340053260E+02 -0.55622344808E+02  0.31763860569E+02  0.74650839006E+02  0.00000000000E+00 0.  1.
         14    1    4    4    0    0 -0.10558462599E+02  0.11401342082E+02  0.46988687300E+02  0.49491498946E+02  0.00000000000E+00 0. -1.
         -5    1    5    5    0  501  0.34047282415E+02 -0.19689924209E+02  0.31770601187E+02  0.50777668861E+02  0.47000000000E+01 0.  1.
         13    1    6    6    0    0 -0.73863172008E+02 -0.18303895664E+02 -0.51407347123E+02  0.91834177265E+02  0.00000000000E+00 0. -1.
        -14    1    6    6    0    0 -0.24539605491E+02  0.33614467941E+02  0.82426613680E+01  0.42427186555E+02  0.00000000000E+00 0.  1.
<mgrwt>
<rscale>  2 0.18516754E+03</rscale>
<asrwt>0</asrwt>
<pdfrwt beam="1">  1        3 0.31897731E-01 0.18516754E+03</pdfrwt>
<pdfrwt beam="2">  1       -3 0.26109820E-01 0.18516754E+03</pdfrwt>
<totfact> 0.32149666E+02</totfact>
</mgrwt>
</event>
<event>
12    1  0.4154313E-002  0.1857677E+03  0.7546771E-02  0.1162335E+00
          2   -1    0    0  502    0  0.00000000000E+00  0.00000000000E+00  0.35901192165E+04  0.35901192165E+04  0.00000000000E+00 0. -1.
         -2   -1    0    0    0  501 -0.00000000000E+00 -0.00000000000E+00 -0.96591825745E+01  0.96591825745E+01  0.00000000000E+00 0.  1.
          6    2    1    2  502    0 -0.13980742934E+02 -0.67952297934E+02  0.16625829051E+04  0.16729013223E+04  0.17205796113E+03 0.  0.
         24    2    3    3    0    0 -0.30888504272E+01 -0.95968248445E+01  0.14562678951E+04  0.14581643486E+04  0.73657620297E+02 0.  0.
         -6    2    1    2    0  501  0.13980742934E+02  0.67952297934E+02  0.19178771288E+04  0.19268770767E+04  0.17259667322E+03 0.  0.
        -24    2    5    5    0    0 -0.62340539552E+02  0.32112108680E+02  0.10583044148E+04  0.10631660151E+04  0.73458905810E+02 0.  0.
          5    1    3    3  502    0 -0.10891892507E+02 -0.58355473089E+02  0.20631500995E+03  0.21473697375E+03  0.47000000000E+01 0. -1.
        -13    1    4    4    0    0 -0.31804346025E+02 -0.22255512263E+02  0.55807168005E+03  0.55942007859E+03  0.00000000000E+00 0.  1.
         14    1    4    4    0    0  0.28715495598E+02  0.12658687419E+02  0.89819621510E+03  0.89874427001E+03  0.00000000000E+00 0. -1.
         -5    1    5    5    0  501  0.76321282486E+02  0.35840189253E+02  0.85957271397E+03  0.86371106159E+03  0.47000000000E+01 0.  1.
         11    1    6    6    0    0 -0.40961109207E+02  0.43990847466E+02  0.40821076003E+03  0.41261244738E+03  0.00000000000E+00 0. -1.
        -12    1    6    6    0    0 -0.21379430345E+02 -0.11878738785E+02  0.65009365480E+03  0.65055356773E+03  0.00000000000E+00 0.  1.
<mgrwt>
<rscale>  2 0.18576767E+03</rscale>
<asrwt>0</asrwt>
<pdfrwt beam="1">  1        2 0.55232497E+00 0.18576767E+03</pdfrwt>
<pdfrwt beam="2">  1       -2 0.14860310E-02 0.18576767E+03</pdfrwt>
<totfact> 0.10787056E+03</totfact>
</mgrwt>
</event>
<event>
12    1  0.4154313E-002  0.1854846E+03  0.7546771E-02  0.1162598E+00
          1   -1    0    0  502    0  0.00000000000E+00  0.00000000000E+00  0.35355080994E+04  0.35355080994E+04  0.00000000000E+00 0. -1.
         -1   -1    0    0    0  501 -0.00000000000E+00 -0.00000000000E+00 -0.10495097577E+02  0.10495097577E+02  0.00000000000E+00 0.  1.
          6    2    1    2  502    0  0.50177516036E+02 -0.46947558627E+02  0.22457815818E+04  0.22534747735E+04  0.17289240944E+03 0.  0.
         24    2    3    3    0    0  0.75511700518E+02 -0.16328843717E+02  0.20870180174E+04  0.20897454664E+04  0.73642796767E+02 0.  0.
         -6    2    1    2    0  501 -0.50177516036E+02  0.46947558627E+02  0.12792314200E+04  0.12925284235E+04  0.17168239037E+03 0.  0.
        -24    2    5    5    0    0  0.21178290897E+02  0.70741228601E+02  0.72871019385E+03  0.73687250443E+03  0.80682710254E+02 0.  0.
          5    1    3    3  502    0 -0.25334184482E+02 -0.30618714910E+02  0.15876356440E+03  0.16372930705E+03  0.47000000000E+01 0. -1.
        -13    1    4    4    0    0 -0.31598662089E+01 -0.16587955038E+02  0.12315367283E+03  0.12430596180E+03  0.00000000000E+00 0.  1.
         14    1    4    4    0    0  0.78671566727E+02  0.25911132183E+00  0.19638643445E+04  0.19654395046E+04  0.00000000000E+00 0. -1.
         -5    1    5    5    0  501 -0.71355806933E+02 -0.23793669974E+02  0.55052122620E+03  0.55565591908E+03  0.47000000000E+01 0.  1.
         13    1    6    6    0    0  0.50551591172E+01  0.33637649391E+02  0.61911900277E+03  0.62005272814E+03  0.00000000000E+00 0. -1.
        -14    1    6    6    0    0  0.16123131780E+02  0.37103579211E+02  0.10959119108E+03  0.11681977628E+03  0.00000000000E+00 0.  1.
<mgrwt>
<rscale>  2 0.18548461E+03</rscale>
<asrwt>0</asrwt>
<pdfrwt beam="1">  1        1 0.54392337E+00 0.18548461E+03</pdfrwt>
<pdfrwt beam="2">  1       -1 0.16146332E-02 0.18548461E+03</pdfrwt>
<totfact> 0.28299467E+02</totfact>
</mgrwt>
</event>
<event>
12    1  0.4154313E-002  0.1829200E+03  0.7546771E-02  0.1165007E+00
         -2   -1    0    0    0  501 -0.00000000000E+00  0.00000000000E+00  0.20987863094E+02  0.20987863094E+02  0.00000000000E+00 0. -1.
          2   -1    0    0  502    0  0.00000000000E+00 -0.00000000000E+00 -0.20018210272E+04  0.20018210272E+04  0.00000000000E+00 0.  1.
          6    2    1    2  502    0 -0.82824211780E+01  0.62983176347E+02 -0.53014040022E+03  0.56051465231E+03  0.17056480441E+03 0.  0.
         24    2    3    3    0    0 -0.44553218098E+02  0.69333494393E+01 -0.16229341705E+03  0.18662877823E+03  0.80362224144E+02 0.  0.
         -6    2    1    2    0  501  0.82824211780E+01 -0.62983176347E+02 -0.14506927639E+04  0.14622942380E+04  0.17250931642E+03 0.  0.
        -24    2    5    5    0    0 -0.48972295997E+02 -0.67740777964E+02 -0.65389652052E+03  0.66341559836E+03  0.74515084529E+02 0.  0.
          5    1    3    3  502    0  0.36270796920E+02  0.56049826908E+02 -0.36784698317E+03  0.37388587407E+03  0.47000000000E+01 0. -1.
        -11    1    4    4    0    0 -0.46440900358E+02  0.27318957036E+02 -0.53514249854E+02  0.75939828661E+02  0.00000000000E+00 0.  1.
         12    1    4    4    0    0  0.18876822591E+01 -0.20385607597E+02 -0.10877916720E+03  0.11068894957E+03  0.00000000000E+00 0. -1.
         -5    1    5    5    0  501  0.57254717175E+02  0.47576016172E+01 -0.79679624335E+03  0.79887863962E+03  0.47000000000E+01 0.  1.
         11    1    6    6    0    0 -0.14721357357E+02 -0.12938431739E+02 -0.27921641618E+02  0.34113625561E+02  0.00000000000E+00 0. -1.
        -12    1    6    6    0    0 -0.34250938640E+02 -0.54802346226E+02 -0.62597487891E+03  0.62930197280E+03  0.00000000000E+00 0.  1.
<mgrwt>
<rscale>  2 0.18292000E+03</rscale>
<asrwt>0</asrwt>
<pdfrwt beam="2">  1        2 0.30797259E+00 0.18292000E+03</pdfrwt>
<pdfrwt beam="1">  1       -2 0.32289008E-02 0.18292000E+03</pdfrwt>
<totfact> 0.28186322E+03</totfact>
</mgrwt>
</event>
<event>
12    1  0.4154313E-002  0.1921874E+03  0.7546771E-02  0.1156503E+00
          1   -1    0    0  502    0  0.00000000000E+00  0.00000000000E+00  0.14036519579E+04  0.14036519579E+04  0.00000000000E+00 0.  1.
         -1   -1    0    0    0  501 -0.00000000000E+00 -0.00000000000E+00 -0.26647344771E+02  0.26647344771E+02  0.00000000000E+00 0. -1.
          6    2    1    2  502    0  0.67135194928E+02  0.39954512702E+02  0.60328080830E+03  0.63268839865E+03  0.17390623522E+03 0.  0.
         24    2    3    3    0    0  0.51213265095E+02  0.89510630508E+02  0.34077669763E+03  0.36503224838E+03  0.80528462146E+02 0.  0.
         -6    2    1    2    0  501 -0.67135194928E+02 -0.39954512702E+02  0.77372380483E+03  0.79761090401E+03  0.17728826966E+03 0.  0.
        -24    2    5    5    0    0  0.21351806378E+02 -0.60598243026E+02  0.43527998179E+03  0.44715060048E+03  0.79667749221E+02 0.  0.
          5    1    3    3  502    0  0.15921929833E+02 -0.49556117806E+02  0.26250411067E+03  0.26765615027E+03  0.47000000000E+01 0. -1.
        -11    1    4    4    0    0  0.24394500399E+01  0.31624667520E+02  0.22153366257E+03  0.22379283760E+03  0.00000000000E+00 0.  1.
         12    1    4    4    0    0  0.48773815055E+02  0.57885962988E+02  0.11924303506E+03  0.14123941078E+03  0.00000000000E+00 0. -1.
         -5    1    5    5    0  501 -0.88487001306E+02  0.20643730324E+02  0.33844382304E+03  0.35046030353E+03  0.47000000000E+01 0.  1.
         13    1    6    6    0    0  0.78492910178E+01  0.18581646907E+02  0.12630972906E+03  0.12791026787E+03  0.00000000000E+00 0. -1.
        -14    1    6    6    0    0  0.13502515360E+02 -0.79179889933E+02  0.30897025273E+03  0.31924033261E+03  0.00000000000E+00 0.  1.
<mgrwt>
<rscale>  2 0.19218735E+03</rscale>
<asrwt>0</asrwt>
<pdfrwt beam="1">  1        1 0.21594640E+00 0.19218735E+03</pdfrwt>
<pdfrwt beam="2">  1       -1 0.40995926E-02 0.19218735E+03</pdfrwt>
<totfact> 0.19670656E+03</totfact>
</mgrwt>
</event>
<event>
12    1  0.4154313E-002  0.1976255E+03  0.7546771E-02  0.1151758E+00
         -2   -1    0    0    0  501 -0.00000000000E+00  0.00000000000E+00  0.16031532262E+02  0.16031532262E+02  0.00000000000E+00 0. -1.
          2   -1    0    0  502    0  0.00000000000E+00 -0.00000000000E+00 -0.24746971362E+04  0.24746971362E+04  0.00000000000E+00 0.  1.
          6    2    1    2  502    0 -0.13092321435E+02 -0.94811001240E+02 -0.10755237658E+04  0.10935749701E+04  0.17318865314E+03 0.  0.
         24    2    3    3    0    0 -0.19543035222E+01 -0.37201562945E+02 -0.23358123062E+03  0.24957720625E+03  0.79629234548E+02 0.  0.
         -6    2    1    2    0  501  0.13092321435E+02  0.94811001240E+02 -0.13831418381E+04  0.13971536983E+04  0.17261685208E+03 0.  0.
        -24    2    5    5    0    0  0.25967874721E+02  0.65058460312E+02 -0.44667581051E+03  0.46011490277E+03  0.85320046163E+02 0.  0.
          5    1    3    3  502    0 -0.11138017912E+02 -0.57609438296E+02 -0.84194253522E+03  0.84399776388E+03  0.47000000000E+01 0. -1.
        -13    1    4    4    0    0  0.16683683945E+02  0.18262283577E+02 -0.11133230959E+03  0.11404709321E+03  0.00000000000E+00 0.  1.
         14    1    4    4    0    0 -0.18637987467E+02 -0.55463846521E+02 -0.12224892104E+03  0.13553011305E+03  0.00000000000E+00 0. -1.
         -5    1    5    5    0  501 -0.12875553286E+02  0.29752540929E+02 -0.93646602758E+03  0.93703879555E+03  0.47000000000E+01 0.  1.
         13    1    6    6    0    0 -0.86709918324E+00  0.28015128454E+02 -0.30460930642E+02  0.41394052458E+02  0.00000000000E+00 0. -1.
        -14    1    6    6    0    0  0.26834973904E+02  0.37043331858E+02 -0.41621487987E+03  0.41872085031E+03  0.00000000000E+00 0.  1.
<mgrwt>
<rscale>  2 0.19762554E+03</rscale>
<asrwt>0</asrwt>
<pdfrwt beam="2">  1        2 0.38072249E+00 0.19762554E+03</pdfrwt>
<pdfrwt beam="1">  1       -2 0.24663905E-02 0.19762554E+03</pdfrwt>
<totfact> 0.23617425E+03</totfact>
</mgrwt>
</event>
<event>
12    1  0.4154313E-002  0.2281095E+03  0.7546771E-02  0.1127978E+00
         -1   -1    0    0    0  501 -0.00000000000E+00  0.00000000000E+00  0.10016420966E+03  0.10016420966E+03  0.00000000000E+00 0.  1.
          1   -1    0    0  502    0  0.00000000000E+00 -0.00000000000E+00 -0.52433317349E+03  0.52433317349E+03  0.00000000000E+00 0. -1.
          6    2    1    2  502    0  0.83348304930E+01  0.14666920192E+03 -0.24285153247E+03  0.33375497648E+03  0.17559667797E+03 0.  0.
         24    2    3    3    0    0 -0.16277850843E+02  0.13478978860E+03 -0.98415265784E+02  0.18668074462E+03  0.82041942527E+02 0.  0.
         -6    2    1    2    0  501 -0.83348304930E+01 -0.14666920192E+03 -0.18131743136E+03  0.29074240667E+03  0.17341802655E+03 0.  0.
        -24    2    5    5    0    0  0.40324450125E+02 -0.15245671342E+03 -0.14254848813E+03  0.22808187812E+03  0.82656886654E+02 0.  0.
          5    1    3    3  502    0  0.24612681336E+02  0.11879413316E+02 -0.14443626669E+03  0.14707423186E+03  0.47000000000E+01 0. -1.
        -11    1    4    4    0    0  0.24150467976E+02  0.90311639824E+01 -0.23118327524E+02  0.34630392632E+02  0.00000000000E+00 0.  1.
         12    1    4    4    0    0 -0.40428318819E+02  0.12575862462E+03 -0.75296938260E+02  0.15205035199E+03  0.00000000000E+00 0. -1.
         -5    1    5    5    0  501 -0.48659280618E+02  0.57875115037E+01 -0.38768943229E+02  0.62660528555E+02  0.47000000000E+01 0.  1.
         13    1    6    6    0    0  0.23746260761E+02 -0.13539526534E+03 -0.14970244060E+03  0.20324021132E+03  0.00000000000E+00 0. -1.
        -14    1    6    6    0    0  0.16578189364E+02 -0.17061448076E+02  0.71539524678E+01  0.24841666791E+02  0.00000000000E+00 0.  1.
<mgrwt>
<rscale>  2 0.22810949E+03</rscale>
<asrwt>0</asrwt>
<pdfrwt beam="2">  1        1 0.80666643E-01 0.22810949E+03</pdfrwt>
<pdfrwt beam="1">  1       -1 0.15409878E-01 0.22810949E+03</pdfrwt>
<totfact> 0.13021508E+03</totfact>
</mgrwt>
</event>
<event>
12    1  0.4154313E-002  0.1816377E+03  0.7546771E-02  0.1166227E+00
         -1   -1    0    0    0  501 -0.00000000000E+00  0.00000000000E+00  0.85173782198E+02  0.85173782198E+02  0.00000000000E+00 0.  1.
          1   -1    0    0  502    0  0.00000000000E+00 -0.00000000000E+00 -0.63603641864E+03  0.63603641864E+03  0.00000000000E+00 0. -1.
          6    2    1    2  502    0 -0.53573026387E+02  0.26179848080E+02 -0.50556507497E+02  0.18917530190E+03  0.17226688828E+03 0.  0.
         24    2    3    3    0    0  0.11289590198E+02  0.58434376321E+01  0.27765398717E+02  0.85362298802E+02  0.79713261635E+02 0.  0.
         -6    2    1    2    0  501  0.53573026387E+02 -0.26179848080E+02 -0.50030612895E+03  0.53203489894E+03  0.17087848730E+03 0.  0.
        -24    2    5    5    0    0  0.38601924659E+02  0.52481394762E+02 -0.24075467460E+03  0.26037192305E+03  0.74741685749E+02 0.  0.
          5    1    3    3  502    0 -0.64862616585E+02  0.20336410448E+02 -0.78321906214E+02  0.10381300310E+03  0.47000000000E+01 0. -1.
        -11    1    4    4    0    0  0.24938665390E+02 -0.23029348087E+02 -0.10489260429E+02  0.35529037267E+02  0.00000000000E+00 0.  1.
         12    1    4    4    0    0 -0.13649075193E+02  0.28872785719E+02  0.38254659146E+02  0.49833261535E+02  0.00000000000E+00 0. -1.
         -5    1    5    5    0  501  0.14971101728E+02 -0.78661242842E+02 -0.25955145435E+03  0.27166297588E+03  0.47000000000E+01 0.  1.
         13    1    6    6    0    0  0.40289853856E+01  0.92920478744E+01 -0.17119686831E+03  0.17149618829E+03  0.00000000000E+00 0. -1.
        -14    1    6    6    0    0  0.34572939273E+02  0.43189346888E+02 -0.69557806288E+02  0.88875734766E+02  0.00000000000E+00 0.  1.
<mgrwt>
<rscale>  2 0.18163772E+03</rscale>
<asrwt>0</asrwt>
<pdfrwt beam="2">  1        1 0.97851754E-01 0.18163772E+03</pdfrwt>
<pdfrwt beam="1">  1       -1 0.13103659E-01 0.18163772E+03</pdfrwt>
<totfact> 0.12881169E+03</totfact>
</mgrwt>
</event>
<event>
12    1  0.4154313E-002  0.3150968E+03  0.7546771E-02  0.1077928E+00
         -1   -1    0    0    0  501 -0.00000000000E+00  0.00000000000E+00  0.28578519035E+03  0.28578519035E+03  0.00000000000E+00 0. -1.
          1   -1    0    0  502    0  0.00000000000E+00 -0.00000000000E+00 -0.64786573556E+03  0.64786573556E+03  0.00000000000E+00 0.  1.
          6    2    1    2  502    0  0.13779045742E+01  0.25951695452E+03 -0.49861794774E+03  0.58927287699E+03  0.17683811081E+03 0.  0.
         24    2    3    3    0    0  0.57727078617E+02  0.80383028437E+02 -0.19967945710E+03  0.23621409423E+03  0.78303038647E+02 0.  0.
         -6    2    1    2    0  501 -0.13779045742E+01 -0.25951695452E+03  0.13653740253E+03  0.34437804892E+03  0.18056253761E+03 0.  0.
        -24    2    5    5    0    0 -0.21834021270E+02 -0.15532478895E+03  0.15893386388E+03  0.23575875250E+03  0.75628709788E+02 0.  0.
          5    1    3    3  502    0 -0.56349174042E+02  0.17913392608E+03 -0.29893849064E+03  0.35305878275E+03  0.47000000000E+01 0. -1.
        -11    1    4    4    0    0 -0.19415460485E+02  0.17150738719E+02 -0.32794709486E+02  0.41792354741E+02  0.00000000000E+00 0.  1.
         12    1    4    4    0    0  0.77142539102E+02  0.63232289718E+02 -0.16688474761E+03  0.19442173949E+03  0.00000000000E+00 0. -1.
         -5    1    5    5    0  501  0.20456116695E+02 -0.10419216556E+03 -0.22396461347E+02  0.10861929643E+03  0.47000000000E+01 0.  1.
         11    1    6    6    0    0  0.78095523566E+00 -0.14510867208E+03  0.15165887338E+03  0.20989890538E+03  0.00000000000E+00 0. -1.
        -12    1    6    6    0    0 -0.22614976505E+02 -0.10216116876E+02  0.72749904942E+01  0.25859847120E+02  0.00000000000E+00 0.  1.
<mgrwt>
<rscale>  2 0.31509680E+03</rscale>
<asrwt>0</asrwt>
<pdfrwt beam="2">  1        1 0.99671651E-01 0.31509680E+03</pdfrwt>
<pdfrwt beam="1">  1       -1 0.43966953E-01 0.31509680E+03</pdfrwt>
<totfact> 0.16498454E+02</totfact>
</mgrwt>
</event>
<event>
12    1  0.4154313E-002  0.2124365E+03  0.7546771E-02  0.1139651E+00
         -2   -1    0    0    0  501 -0.00000000000E+00  0.00000000000E+00  0.86051486393E+02  0.86051486393E+02  0.00000000000E+00 0.  1.
          2   -1    0    0  502    0  0.00000000000E+00 -0.00000000000E+00 -0.55858041798E+03  0.55858041798E+03  0.00000000000E+00 0. -1.
          6    2    1    2  502    0  0.12053556853E+03  0.27668610599E+02 -0.31595087481E+03  0.38073276988E+03  0.17273711668E+03 0.  0.
         24    2    3    3    0    0  0.14608993684E+02  0.11924218988E+02 -0.22591201828E+03  0.24074201729E+03  0.81023880392E+02 0.  0.
         -6    2    1    2    0  501 -0.12053556853E+03 -0.27668610599E+02 -0.15657805678E+03  0.26389913449E+03  0.17271852833E+03 0.  0.
        -24    2    5    5    0    0 -0.14863950057E+03 -0.30928171008E+02 -0.15989529862E+03  0.23502787155E+03  0.81371622765E+02 0.  0.
          5    1    3    3  502    0  0.10592657484E+03  0.15744391611E+02 -0.90038856532E+02  0.13999075259E+03  0.47000000000E+01 0. -1.
        -11    1    4    4    0    0 -0.20296919809E+02  0.25407506001E+02 -0.42297751083E+02  0.53353594646E+02  0.00000000000E+00 0.  1.
         12    1    4    4    0    0  0.34905913492E+02 -0.13483287013E+02 -0.18361426719E+03  0.18738842265E+03  0.00000000000E+00 0. -1.
         -5    1    5    5    0  501  0.28103932047E+02  0.32595604088E+01  0.33172418359E+01  0.28871262944E+02  0.47000000000E+01 0.  1.
         11    1    6    6    0    0 -0.13376166728E+01  0.93673555833E+01 -0.39345319536E+02  0.40467156292E+02  0.00000000000E+00 0. -1.
        -12    1    6    6    0    0 -0.14730188390E+03 -0.40295526591E+02 -0.12054997908E+03  0.19456071526E+03  0.00000000000E+00 0.  1.
<mgrwt>
<rscale>  2 0.21243652E+03</rscale>
<asrwt>0</asrwt>
<pdfrwt beam="2">  1        2 0.85935448E-01 0.21243652E+03</pdfrwt>
<pdfrwt beam="1">  1       -2 0.13238690E-01 0.21243652E+03</pdfrwt>
<totfact> 0.22914819E+03</totfact>
</mgrwt>
</event>
<event>
12    1  0.4154313E-002  0.1949472E+03  0.7546771E-02  0.1154074E+00
         -2   -1    0    0    0  501 -0.00000000000E+00  0.00000000000E+00  0.24050627530E+02  0.24050627530E+02  0.00000000000E+00 0.  1.
          2   -1    0    0  502    0  0.00000000000E+00 -0.00000000000E+00 -0.19732283750E+04  0.19732283750E+04  0.00000000000E+00 0. -1.
          6    2    1    2  502    0  0.80741618420E+02 -0.33256430323E+02 -0.14141945909E+04  0.14273640439E+04  0.17261684089E+03 0.  0.
         24    2    3    3    0    0  0.11326528604E+03 -0.48939722561E+02 -0.89387988692E+03  0.90577681649E+03  0.78652829467E+02 0.  0.
         -6    2    1    2    0  501 -0.80741618420E+02  0.33256430323E+02 -0.53498315654E+03  0.56991495861E+03  0.17598546293E+03 0.  0.
        -24    2    5    5    0    0  0.44725665144E+00 -0.18093626034E+02 -0.14300317057E+03  0.16630764806E+03  0.82950272274E+02 0.  0.
          5    1    3    3  502    0 -0.32523667621E+02  0.15683292238E+02 -0.52031470400E+03  0.52158722743E+03  0.47000000000E+01 0. -1.
        -13    1    4    4    0    0  0.37879146870E+02 -0.45704893287E+01 -0.98989969560E+02  0.10608832742E+03  0.00000000000E+00 0.  1.
         14    1    4    4    0    0  0.75386139171E+02 -0.44369233232E+02 -0.79488991736E+03  0.79968848908E+03  0.00000000000E+00 0. -1.
         -5    1    5    5    0  501 -0.81188875072E+02  0.51350056356E+02 -0.39197998597E+03  0.40360731055E+03  0.47000000000E+01 0.  1.
         13    1    6    6    0    0  0.34270906629E+02  0.15251968675E-01 -0.11155212431E+03  0.11669777938E+03  0.00000000000E+00 0. -1.
        -14    1    6    6    0    0 -0.33823649978E+02 -0.18108878002E+02 -0.31451046262E+02  0.49609868688E+02  0.00000000000E+00 0.  1.
<mgrwt>
<rscale>  2 0.19494715E+03</rscale>
<asrwt>0</asrwt>
<pdfrwt beam="2">  1        2 0.30357366E+00 0.19494715E+03</pdfrwt>
<pdfrwt beam="1">  1       -2 0.37000957E-02 0.19494715E+03</pdfrwt>
<totfact> 0.23798952E+03</totfact>
</mgrwt>
</event>
<event>
12    1  0.4154313E-002  0.2330310E+03  0.7546771E-02  0.1124524E+00
          2   -1    0    0  502    0  0.00000000000E+00  0.00000000000E+00  0.93824893444E+03  0.93824893444E+03  0.00000000000E+00 0. -1.
         -2   -1    0    0    0  501 -0.00000000000E+00 -0.00000000000E+00 -0.12513581685E+03  0.12513581685E+03  0.00000000000E+00 0.  1.
          6    2    1    2  502    0 -0.83113165303E+02  0.13301473108E+03  0.17771673264E+02  0.23495730913E+03  0.17403559352E+03 0.  0.
         24    2    3    3    0    0 -0.10974219465E+03  0.56636945300E+02 -0.15042085199E+02  0.14754161198E+03  0.79316896559E+02 0.  0.
         -6    2    1    2    0  501  0.83113165303E+02 -0.13301473108E+03  0.79534144433E+03  0.82842744215E+03  0.17065549189E+03 0.  0.
        -24    2    5    5    0    0  0.70123676041E+02 -0.15118467708E+03  0.50689948758E+03  0.53908382950E+03  0.76747300900E+02 0.  0.
          5    1    3    3  502    0  0.26629029342E+02  0.76377785782E+02  0.32813758463E+02  0.87415697155E+02  0.47000000000E+01 0. -1.
        -11    1    4    4    0    0 -0.65747476246E+02  0.74275393488E+02 -0.13583745939E+02  0.10012034191E+03  0.00000000000E+00 0.  1.
         12    1    4    4    0    0 -0.43994718399E+02 -0.17638448188E+02 -0.14583392599E+01  0.47421270069E+02  0.00000000000E+00 0. -1.
         -5    1    5    5    0  501  0.12989489263E+02  0.18169945998E+02  0.28844195675E+03  0.28934361265E+03  0.47000000000E+01 0.  1.
         11    1    6    6    0    0  0.63450765788E+02 -0.90190464134E+02  0.40849155620E+03  0.42311425288E+03  0.00000000000E+00 0. -1.
        -12    1    6    6    0    0  0.66729102523E+01 -0.60994212946E+02  0.98407931379E+02  0.11596957662E+03  0.00000000000E+00 0.  1.
<mgrwt>
<rscale>  2 0.23303097E+03</rscale>
<asrwt>0</asrwt>
<pdfrwt beam="1">  1        2 0.14434599E+00 0.23303097E+03</pdfrwt>
<pdfrwt beam="2">  1       -2 0.19251665E-01 0.23303097E+03</pdfrwt>
<totfact> 0.64848658E+02</totfact>
</mgrwt>
</event>
<event>
12    1  0.4154313E-002  0.2134954E+03  0.7546771E-02  0.1138828E+00
          2   -1    0    0  502    0  0.00000000000E+00  0.00000000000E+00  0.26061320574E+04  0.26061320574E+04  0.00000000000E+00 0.  1.
         -2   -1    0    0    0  501 -0.00000000000E+00 -0.00000000000E+00 -0.32070018909E+02  0.32070018909E+02  0.00000000000E+00 0. -1.
          6    2    1    2  502    0 -0.41511753334E+02 -0.12081129541E+03  0.39378137798E+03  0.44737903701E+03  0.16960434651E+03 0.  0.
         24    2    3    3    0    0 -0.84129074424E+02 -0.50386582552E+02  0.25924807212E+03  0.28959064510E+03  0.83884861376E+02 0.  0.
         -6    2    1    2    0  501  0.41511753334E+02  0.12081129541E+03  0.21802806605E+04  0.21908230393E+04  0.17252024845E+03 0.  0.
        -24    2    5    5    0    0  0.47358120921E+02  0.10514478982E+02  0.13452966398E+04  0.13485523153E+04  0.80105880141E+02 0.  0.
          5    1    3    3  502    0  0.42617321090E+02 -0.70424712855E+02  0.13453330586E+03  0.15778839191E+03  0.47000000000E+01 0. -1.
        -11    1    4    4    0    0  0.27232566163E+01  0.14409623223E+02  0.69964270569E+02  0.71484631385E+02  0.00000000000E+00 0.  1.
         12    1    4    4    0    0 -0.86852331040E+02 -0.64796205774E+02  0.18928380155E+03  0.21810601372E+03  0.00000000000E+00 0. -1.
         -5    1    5    5    0  501 -0.58463675867E+01  0.11029681642E+03  0.83498402071E+03  0.84227072404E+03  0.47000000000E+01 0.  1.
         13    1    6    6    0    0  0.66294949754E+02  0.12219247115E+02  0.77112461984E+03  0.77406557195E+03  0.00000000000E+00 0. -1.
        -14    1    6    6    0    0 -0.18936828833E+02 -0.17047681323E+01  0.57417201997E+03  0.57448674331E+03  0.00000000000E+00 0.  1.
<mgrwt>
<rscale>  2 0.21349544E+03</rscale>
<asrwt>0</asrwt>
<pdfrwt beam="1">  1        2 0.40094322E+00 0.21349544E+03</pdfrwt>
<pdfrwt beam="2">  1       -2 0.49338511E-02 0.21349544E+03</pdfrwt>
<totfact> 0.70891699E+02</totfact>
</mgrwt>
</event>
<event>
12    1  0.4154313E-002  0.1938620E+03  0.7546771E-02  0.1155023E+00
          2   -1    0    0  502    0  0.00000000000E+00  0.00000000000E+00  0.28554718622E+04  0.28554718622E+04  0.00000000000E+00 0.  1.
         -2   -1    0    0    0  501 -0.00000000000E+00 -0.00000000000E+00 -0.23987031961E+02  0.23987031961E+02  0.00000000000E+00 0. -1.
          6    2    1    2  502    0  0.71925290227E+02 -0.49701826442E+02  0.44796272897E+03  0.48805421404E+03  0.17286639455E+03 0.  0.
         24    2    3    3    0    0  0.35925599959E+02  0.14450059821E+02  0.37586270321E+03  0.38494288621E+03  0.73544551274E+02 0.  0.
         -6    2    1    2    0  501 -0.71925290227E+02  0.49701826442E+02  0.23835221012E+04  0.23914046801E+04  0.17319127564E+03 0.  0.
        -24    2    5    5    0    0 -0.33588305960E+02  0.94355707470E+02  0.18774156977E+04  0.18818661877E+04  0.81850307792E+02 0.  0.
          5    1    3    3  502    0  0.35999690268E+02 -0.64151886262E+02  0.72100025760E+02  0.10311132782E+03  0.47000000000E+01 0. -1.
        -13    1    4    4    0    0  0.45993924601E+02 -0.87885315913E+01  0.32242465624E+03  0.32580721038E+03  0.00000000000E+00 0.  1.
         14    1    4    4    0    0 -0.10068324642E+02  0.23238591412E+02  0.53438046973E+02  0.59135675833E+02  0.00000000000E+00 0. -1.
         -5    1    5    5    0  501 -0.38336984267E+02 -0.44653881028E+02  0.50610640358E+03  0.50953849236E+03  0.47000000000E+01 0.  1.
         11    1    6    6    0    0 -0.18773964866E+02 -0.71562216159E+01  0.14118940168E+03  0.14261178216E+03  0.00000000000E+00 0. -1.
        -12    1    6    6    0    0 -0.14814341094E+02  0.10151192909E+03  0.17362262960E+04  0.17392544056E+04  0.00000000000E+00 0.  1.
<mgrwt>
<rscale>  2 0.19386202E+03</rscale>
<asrwt>0</asrwt>
<pdfrwt beam="1">  1        2 0.43930309E+00 0.19386202E+03</pdfrwt>
<pdfrwt beam="2">  1       -2 0.36903149E-02 0.19386202E+03</pdfrwt>
<totfact> 0.79943037E+02</totfact>
</mgrwt>
</event>
<event>
12    1  0.4154313E-002  0.1740361E+03  0.7546771E-02  0.1173703E+00
          1   -1    0    0  502    0  0.00000000000E+00  0.00000000000E+00  0.10140343938E+03  0.10140343938E+03  0.00000000000E+00 0. -1.
         -1   -1    0    0    0  501 -0.00000000000E+00 -0.00000000000E+00 -0.29913366471E+03  0.29913366471E+03  0.00000000000E+00 0.  1.
          6    2    1    2  502    0  0.33899997513E+01  0.86886330293E+01 -0.90306747393E+02  0.19368471960E+03  0.17108909241E+03 0.  0.
         24    2    3    3    0    0  0.20725762901E+02 -0.57355101708E+02 -0.65539174426E+02  0.12089855160E+03  0.81252147381E+02 0.  0.
         -6    2    1    2    0  501 -0.33899997513E+01 -0.86886330293E+01 -0.10742347794E+03  0.20685238448E+03  0.17652512828E+03 0.  0.
        -24    2    5    5    0    0  0.31533849674E+01 -0.44448395027E+02 -0.13271612378E+03  0.16231718048E+03  0.82144348010E+02 0.  0.
          5    1    3    3  502    0 -0.17335763150E+02  0.66043734737E+02 -0.24767572967E+02  0.72786168004E+02  0.47000000000E+01 0. -1.
        -11    1    4    4    0    0  0.29044869337E+02  0.52028346927E+01 -0.46334791089E+02  0.54932565832E+02  0.00000000000E+00 0.  1.
         12    1    4    4    0    0 -0.83191064355E+01 -0.62557936401E+02 -0.19204383338E+02  0.65965985765E+02  0.00000000000E+00 0. -1.
         -5    1    5    5    0  501 -0.65433847187E+01  0.35759761998E+02  0.25292645846E+02  0.44535204004E+02  0.47000000000E+01 0.  1.
         11    1    6    6    0    0  0.32222669765E+02 -0.19316117843E+02 -0.18632248909E+02  0.41935349703E+02  0.00000000000E+00 0. -1.
        -12    1    6    6    0    0 -0.29069284798E+02 -0.25132277184E+02 -0.11408387487E+03  0.12038183078E+03  0.00000000000E+00 0.  1.
<mgrwt>
<rscale>  2 0.17403606E+03</rscale>
<asrwt>0</asrwt>
<pdfrwt beam="1">  1        1 0.15600529E-01 0.17403606E+03</pdfrwt>
<pdfrwt beam="2">  1       -1 0.46020563E-01 0.17403606E+03</pdfrwt>
<totfact> 0.16696664E+03</totfact>
</mgrwt>
</event>
<event>
12    1  0.4154313E-002  0.2194522E+03  0.7546771E-02  0.1134292E+00
         -2   -1    0    0    0  501 -0.00000000000E+00  0.00000000000E+00  0.16754968110E+03  0.16754968110E+03  0.00000000000E+00 0.  1.
          2   -1    0    0  502    0  0.00000000000E+00 -0.00000000000E+00 -0.32680351659E+03  0.32680351659E+03  0.00000000000E+00 0. -1.
          6    2    1    2  502    0  0.10534188259E+03  0.82315037687E+02  0.64367816981E+01  0.21868268412E+03  0.17293931455E+03 0.  0.
         24    2    3    3    0    0  0.34100738168E+02  0.39582383282E+01  0.53389892470E+02  0.10274402243E+03  0.80791865507E+02 0.  0.
         -6    2    1    2    0  501 -0.10534188259E+03 -0.82315037687E+02 -0.16569061719E+03  0.27567051357E+03  0.17512331019E+03 0.  0.
        -24    2    5    5    0    0 -0.96267691599E+02 -0.77924543146E+02 -0.19448109999E+03  0.24480630640E+03  0.82264977550E+02 0.  0.
          5    1    3    3  502    0  0.71241144424E+02  0.78356799358E+02 -0.46953110772E+02  0.11593866170E+03  0.47000000000E+01 0. -1.
        -11    1    4    4    0    0  0.26128767441E+02 -0.30741161156E+02  0.22195046937E+01  0.40406158916E+02  0.00000000000E+00 0.  1.
         12    1    4    4    0    0  0.79719707269E+01  0.34699399484E+02  0.51170387776E+02  0.62337863510E+02  0.00000000000E+00 0. -1.
         -5    1    5    5    0  501 -0.90741909933E+01 -0.43904945407E+01  0.28790482798E+02  0.30864207170E+02  0.47000000000E+01 0.  1.
         11    1    6    6    0    0 -0.81672603252E+02 -0.30249745322E+02 -0.16580825633E+03  0.18729078750E+03  0.00000000000E+00 0. -1.
        -12    1    6    6    0    0 -0.14595088347E+02 -0.47674797824E+02 -0.28672843656E+02  0.57515518904E+02  0.00000000000E+00 0.  1.
<mgrwt>
<rscale>  2 0.21945220E+03</rscale>
<asrwt>0</asrwt>
<pdfrwt beam="2">  1        2 0.50277463E-01 0.21945220E+03</pdfrwt>
<pdfrwt beam="1">  1       -2 0.25776874E-01 0.21945220E+03</pdfrwt>
<totfact> 0.13353538E+03</totfact>
</mgrwt>
</event>
<event>
12    1  0.4154313E-002  0.1870458E+03  0.7546771E-02  0.1161153E+00
         -1   -1    0    0    0  501 -0.00000000000E+00  0.00000000000E+00  0.22228547947E+03  0.22228547947E+03  0.00000000000E+00 0.  1.
          1   -1    0    0  502    0  0.00000000000E+00 -0.00000000000E+00 -0.17586587653E+03  0.17586587653E+03  0.00000000000E+00 0. -1.
          6    2    1    2  502    0 -0.58167776389E+02 -0.42358157124E+02 -0.41296033369E+02  0.19167669924E+03  0.17279146673E+03 0.  0.
         24    2    3    3    0    0 -0.74311118471E+02 -0.81834040454E+02 -0.14111755453E+02  0.14088272495E+03  0.86196566307E+02 0.  0.
         -6    2    1    2    0  501  0.58167776389E+02  0.42358157124E+02  0.87715636311E+02  0.20647465675E+03  0.17251100644E+03 0.  0.
        -24    2    5    5    0    0  0.89286982068E+02 -0.66135522348E+01  0.87227824735E+02  0.14825987135E+03  0.79726982915E+02 0.  0.
          5    1    3    3  502    0  0.16143342082E+02  0.39475883330E+02 -0.27184277916E+02  0.50793974289E+02  0.47000000000E+01 0. -1.
        -13    1    4    4    0    0 -0.29982118179E+02  0.14894722967E+02 -0.72838602753E+01  0.34261272645E+02  0.00000000000E+00 0.  1.
         14    1    4    4    0    0 -0.44329000292E+02 -0.96728763421E+02 -0.68278951776E+01  0.10662145231E+03  0.00000000000E+00 0. -1.
         -5    1    5    5    0  501 -0.31119205678E+02  0.48971709358E+02  0.48781157572E+00  0.58214785404E+02  0.47000000000E+01 0.  1.
         11    1    6    6    0    0  0.45168384649E+02 -0.72350840618E+01 -0.50042268362E+01  0.46017080518E+02  0.00000000000E+00 0. -1.
        -12    1    6    6    0    0  0.44118597418E+02  0.62153182706E+00  0.92232051572E+02  0.10224279083E+03  0.00000000000E+00 0.  1.
<mgrwt>
<rscale>  2 0.18704582E+03</rscale>
<asrwt>0</asrwt>
<pdfrwt beam="2">  1        1 0.27056288E-01 0.18704582E+03</pdfrwt>
<pdfrwt beam="1">  1       -1 0.34197766E-01 0.18704582E+03</pdfrwt>
<totfact> 0.13958248E+03</totfact>
</mgrwt>
</event>
<event>
12    1  0.4154313E-002  0.2167234E+03  0.7546771E-02  0.1136350E+00
         -2   -1    0    0    0  501 -0.00000000000E+00  0.00000000000E+00  0.37253682321E+02  0.37253682321E+02  0.00000000000E+00 0.  1.
          2   -1    0    0  502    0  0.00000000000E+00 -0.00000000000E+00 -0.16499657994E+04  0.16499657994E+04  0.00000000000E+00 0. -1.
          6    2    1    2  502    0 -0.70801891283E+02  0.11040470842E+03 -0.39865634388E+03  0.45409493318E+03  0.17341632096E+03 0.  0.
         24    2    3    3    0    0 -0.16458659373E+02  0.10854266231E+03 -0.36583184664E+03  0.39040669495E+03  0.80821101418E+02 0.  0.
         -6    2    1    2    0  501  0.70801891283E+02 -0.11040470842E+03 -0.12140557732E+04  0.12331245486E+04  0.17164680106E+03 0.  0.
        -24    2    5    5    0    0  0.12387130111E+02  0.51106434263E+01 -0.34328949045E+03  0.35277683882E+03  0.80151507060E+02 0.  0.
          5    1    3    3  502    0 -0.54343231911E+02  0.18620461111E+01 -0.32824497236E+02  0.63688238231E+02  0.47000000000E+01 0. -1.
        -13    1    4    4    0    0 -0.12606700106E+02  0.12312836097E+02 -0.71445094595E+01  0.19015226418E+02  0.00000000000E+00 0.  1.
         14    1    4    4    0    0 -0.38519592668E+01  0.96229826217E+02 -0.35868733719E+03  0.37139146854E+03  0.00000000000E+00 0. -1.
         -5    1    5    5    0  501  0.58414761172E+02 -0.11551535185E+03 -0.87076628278E+03  0.88034770975E+03  0.47000000000E+01 0.  1.
         11    1    6    6    0    0 -0.17921168930E+02  0.34018240476E+02 -0.13788773025E+03  0.14314829770E+03  0.00000000000E+00 0. -1.
        -12    1    6    6    0    0  0.30308299041E+02 -0.28907597049E+02 -0.20540176020E+03  0.20962854111E+03  0.00000000000E+00 0.  1.
<mgrwt>
<rscale>  2 0.21672341E+03</rscale>
<asrwt>0</asrwt>
<pdfrwt beam="2">  1        2 0.25384089E+00 0.21672341E+03</pdfrwt>
<pdfrwt beam="1">  1       -2 0.57313358E-02 0.21672341E+03</pdfrwt>
<totfact> 0.18079518E+03</totfact>
</mgrwt>
</event>
<event>
12    1  0.4154313E-002  0.1834873E+03  0.7546771E-02  0.1164470E+00
          1   -1    0    0  502    0  0.00000000000E+00  0.00000000000E+00  0.33442110002E+03  0.33442110002E+03  0.00000000000E+00 0. -1.
         -1   -1    0    0    0  501 -0.00000000000E+00 -0.00000000000E+00 -0.15048743086E+03  0.15048743086E+03  0.00000000000E+00 0.  1.
          6    2    1    2  502    0 -0.58289449257E+02  0.15781288014E+02 -0.47426818417E+02  0.18980269255E+03  0.17357721638E+03 0.  0.
         24    2    3    3    0    0  0.36734305392E+01 -0.29854141299E+02 -0.68519325751E+02  0.10987163008E+03  0.80449445309E+02 0.  0.
         -6    2    1    2    0  501  0.58289449257E+02 -0.15781288014E+02  0.23136048758E+03  0.29510583833E+03  0.17295395821E+03 0.  0.
        -24    2    5    5    0    0  0.34094318594E+02 -0.27254450146E+02  0.24737763018E+03  0.26355149387E+03  0.79740017519E+02 0.  0.
          5    1    3    3  502    0 -0.61962879797E+02  0.45635429313E+02  0.21092507334E+02  0.79931062466E+02  0.47000000000E+01 0. -1.
        -11    1    4    4    0    0 -0.18950572999E+02 -0.66552294283E+01 -0.74290263717E+02  0.76957518014E+02  0.00000000000E+00 0.  1.
         12    1    4    4    0    0  0.22624003538E+02 -0.23198911871E+02  0.57709379660E+01  0.32914112066E+02  0.00000000000E+00 0. -1.
         -5    1    5    5    0  501  0.24195130663E+02  0.11473162132E+02 -0.16017142606E+02  0.31554344461E+02  0.47000000000E+01 0.  1.
         13    1    6    6    0    0  0.98993439886E+01 -0.50490022019E+02  0.10065277787E+03  0.11304079364E+03  0.00000000000E+00 0. -1.
        -14    1    6    6    0    0  0.24194974606E+02  0.23235571873E+02  0.14672485232E+03  0.15051070023E+03  0.00000000000E+00 0.  1.
<mgrwt>
<rscale>  2 0.18348732E+03</rscale>
<asrwt>0</asrwt>
<pdfrwt beam="1">  1        1 0.51449400E-01 0.18348732E+03</pdfrwt>
<pdfrwt beam="2">  1       -1 0.23151913E-01 0.18348732E+03</pdfrwt>
<totfact> 0.12021439E+03</totfact>
</mgrwt>
</event>
<event>
12    1  0.4154313E-002  0.2066640E+03  0.7546771E-02  0.1144235E+00
          2   -1    0    0  502    0  0.00000000000E+00  0.00000000000E+00  0.54396904932E+03  0.54396904932E+03  0.00000000000E+00 0. -1.
         -2   -1    0    0    0  501 -0.00000000000E+00 -0.00000000000E+00 -0.78538403720E+02  0.78538403720E+02  0.00000000000E+00 0.  1.
          6    2    1    2  502    0 -0.52815858486E+02 -0.98904727412E+02  0.23610146280E+03  0.31288939451E+03  0.17200061758E+03 0.  0.
         24    2    3    3    0    0 -0.38986899772E+02 -0.56882701021E+02  0.43362946264E+02  0.11508313435E+03  0.81290606312E+02 0.  0.
         -6    2    1    2    0  501  0.52815858486E+02  0.98904727412E+02  0.22932918281E+03  0.30961805854E+03  0.17521360699E+03 0.  0.
        -24    2    5    5    0    0  0.89962408443E+02  0.97647853939E+02  0.22205683992E+03  0.27145494970E+03  0.82159669266E+02 0.  0.
          5    1    3    3  502    0 -0.13828958715E+02 -0.42022026391E+02  0.19273851653E+03  0.19780626016E+03  0.47000000000E+01 0. -1.
        -13    1    4    4    0    0 -0.93692078169E+01 -0.70633177056E+02  0.17348513279E+02  0.73333475774E+02  0.00000000000E+00 0.  1.
         14    1    4    4    0    0 -0.29617691955E+02  0.13750476035E+02  0.26014432985E+02  0.41749658579E+02  0.00000000000E+00 0. -1.
         -5    1    5    5    0  501 -0.37146549957E+02  0.12568734736E+01  0.72723428912E+01  0.38163108832E+02  0.47000000000E+01 0.  1.
         13    1    6    6    0    0  0.55222487039E+02  0.45683516598E+01  0.97298249762E+02  0.11197027426E+03  0.00000000000E+00 0. -1.
        -14    1    6    6    0    0  0.34739921404E+02  0.93079502279E+02  0.12475859015E+03  0.15948467544E+03  0.00000000000E+00 0.  1.
<mgrwt>
<rscale>  2 0.20666405E+03</rscale>
<asrwt>0</asrwt>
<pdfrwt beam="1">  1        2 0.83687544E-01 0.20666405E+03</pdfrwt>
<pdfrwt beam="2">  1       -2 0.12082832E-01 0.20666405E+03</pdfrwt>
<totfact> 0.27364965E+03</totfact>
</mgrwt>
</event>
<event>
12    1  0.4154313E-002  0.2000700E+03  0.7546771E-02  0.1149680E+00
          1   -1    0    0  502    0  0.00000000000E+00  0.00000000000E+00  0.13068193613E+04  0.13068193613E+04  0.00000000000E+00 0. -1.
         -1   -1    0    0    0  501 -0.00000000000E+00 -0.00000000000E+00 -0.31863570514E+02  0.31863570514E+02  0.00000000000E+00 0.  1.
          6    2    1    2  502    0  0.21075866059E+02 -0.99251705065E+02  0.50360273903E+03  0.54162431394E+03  0.17159861773E+03 0.  0.
         24    2    3    3    0    0 -0.19769552804E+02  0.35920779877E+01  0.27905931169E+03  0.29125052794E+03  0.80926091855E+02 0.  0.
         -6    2    1    2    0  501 -0.21075866059E+02  0.99251705065E+02  0.77135305172E+03  0.79705861784E+03  0.17326804893E+03 0.  0.
        -24    2    5    5    0    0 -0.72177215267E+02  0.42741104446E+02  0.36623516257E+03  0.38481185923E+03  0.83160208557E+02 0.  0.
          5    1    3    3  502    0  0.40845418863E+02 -0.10284378305E+03  0.22454342735E+03  0.25037378601E+03  0.47000000000E+01 0. -1.
        -11    1    4    4    0    0  0.40540914440E+01 -0.26650882439E+02  0.35024534882E+02  0.44197547850E+02  0.00000000000E+00 0.  1.
         12    1    4    4    0    0 -0.23823644248E+02  0.30242960427E+02  0.24403477680E+03  0.24705298009E+03  0.00000000000E+00 0. -1.
         -5    1    5    5    0  501  0.51101349209E+02  0.56510600618E+02  0.40511788915E+03  0.41224675860E+03  0.47000000000E+01 0.  1.
         13    1    6    6    0    0 -0.22983842418E+01  0.21776883878E+02  0.22294797298E+03  0.22402078899E+03  0.00000000000E+00 0. -1.
        -14    1    6    6    0    0 -0.69878831026E+02  0.20964220568E+02  0.14328718959E+03  0.16079107025E+03  0.00000000000E+00 0.  1.
<mgrwt>
<rscale>  2 0.20007001E+03</rscale>
<asrwt>0</asrwt>
<pdfrwt beam="1">  1        1 0.20104909E+00 0.20007001E+03</pdfrwt>
<pdfrwt beam="2">  1       -1 0.49020888E-02 0.20007001E+03</pdfrwt>
<totfact> 0.17510788E+03</totfact>
</mgrwt>
</event>
<event>
12    1  0.4154313E-002  0.1780898E+03  0.7546771E-02  0.1169665E+00
          2   -1    0    0  502    0  0.00000000000E+00  0.00000000000E+00  0.35597200264E+04  0.35597200264E+04  0.00000000000E+00 0. -1.
         -2   -1    0    0    0  501 -0.00000000000E+00 -0.00000000000E+00 -0.90648761659E+01  0.90648761659E+01  0.00000000000E+00 0.  1.
          6    2    1    2  502    0 -0.48437470023E+02  0.35199311971E+02  0.20600916759E+04  0.20683136637E+04  0.17423695989E+03 0.  0.
         24    2    3    3    0    0  0.29204694098E+02  0.73918423636E+01  0.13985798099E+04  0.14016641307E+04  0.87916420736E+02 0.  0.
         -6    2    1    2    0  501  0.48437470023E+02 -0.35199311971E+02  0.14905634743E+04  0.15004712388E+04  0.16139791707E+03 0.  0.
        -24    2    5    5    0    0  0.58183030964E+02  0.29766494817E+02  0.84722121921E+03  0.85376660829E+03  0.82839108143E+02 0.  0.
          5    1    3    3  502    0 -0.77642164121E+02  0.27807469608E+02  0.66151186599E+03  0.66664953301E+03  0.47000000000E+01 0. -1.
        -13    1    4    4    0    0  0.22748462860E+01  0.39688472487E+02  0.35160766253E+03  0.35384784601E+03  0.00000000000E+00 0.  1.
         14    1    4    4    0    0  0.26929847812E+02 -0.32296630124E+02  0.10469721474E+04  0.10478162847E+04  0.00000000000E+00 0. -1.
         -5    1    5    5    0  501 -0.97455609408E+01 -0.64965806788E+02  0.64334225507E+03  0.64670463054E+03  0.47000000000E+01 0.  1.
         11    1    6    6    0    0  0.93078493120E+01  0.73526385624E+01  0.62572317072E+03  0.62583558842E+03  0.00000000000E+00 0. -1.
        -12    1    6    6    0    0  0.48875181652E+02  0.22413856254E+02  0.22149804849E+03  0.22793101987E+03  0.00000000000E+00 0.  1.
<mgrwt>
<rscale>  2 0.17808981E+03</rscale>
<asrwt>0</asrwt>
<pdfrwt beam="1">  1        2 0.54764812E+00 0.17808981E+03</pdfrwt>
<pdfrwt beam="2">  1       -2 0.13945992E-02 0.17808981E+03</pdfrwt>
<totfact> 0.12421756E+03</totfact>
</mgrwt>
</event>
<event>
12    1  0.4154313E-002  0.1946370E+03  0.7546771E-02  0.1154344E+00
          1   -1    0    0  502    0  0.00000000000E+00  0.00000000000E+00  0.13656136367E+04  0.13656136367E+04  0.00000000000E+00 0.  1.
         -1   -1    0    0    0  501 -0.00000000000E+00 -0.00000000000E+00 -0.28629989835E+02  0.28629989835E+02  0.00000000000E+00 0. -1.
          6    2    1    2  502    0  0.75539415593E+02 -0.42621755553E+02  0.78911713702E+03  0.81260944586E+03  0.17350918769E+03 0.  0.
         24    2    3    3    0    0  0.78311768527E+02  0.37352192734E+02  0.51035899500E+03  0.52255477845E+03  0.71198829431E+02 0.  0.
         -6    2    1    2    0  501 -0.75539415593E+02  0.42621755553E+02  0.54786650986E+03  0.58163418069E+03  0.17497939925E+03 0.  0.
        -24    2    5    5    0    0  0.89269483325E+01  0.29038763163E+02  0.15118533325E+03  0.17580526329E+03  0.84424791613E+02 0.  0.
          5    1    3    3  502    0 -0.27723529338E+01 -0.79973948287E+02  0.27875814202E+03  0.29005466741E+03  0.47000000000E+01 0. -1.
        -11    1    4    4    0    0 -0.38542788284E+01 -0.12874580872E+02  0.10793928919E+03  0.10877270084E+03  0.00000000000E+00 0.  1.
         12    1    4    4    0    0  0.82166047355E+02  0.50226773605E+02  0.40241970581E+03  0.41378207761E+03  0.00000000000E+00 0. -1.
         -5    1    5    5    0  501 -0.84466363926E+02  0.13582992390E+02  0.39668117662E+03  0.40582891740E+03  0.47000000000E+01 0.  1.
         13    1    6    6    0    0 -0.18941894921E+02 -0.37234183218E+01  0.12271549249E+03  0.12422460032E+03  0.00000000000E+00 0. -1.
        -14    1    6    6    0    0  0.27868843254E+02  0.32762181485E+02  0.28469840759E+02  0.51580662973E+02  0.00000000000E+00 0.  1.
<mgrwt>
<rscale>  2 0.19463701E+03</rscale>
<asrwt>0</asrwt>
<pdfrwt beam="1">  1        1 0.21009436E+00 0.19463701E+03</pdfrwt>
<pdfrwt beam="2">  1       -1 0.44046149E-02 0.19463701E+03</pdfrwt>
<totfact> 0.18747330E+03</totfact>
</mgrwt>
</event>
<event>
12    1  0.4154313E-002  0.2319860E+03  0.7546771E-02  0.1125250E+00
          2   -1    0    0  502    0  0.00000000000E+00  0.00000000000E+00  0.40066358450E+03  0.40066358450E+03  0.00000000000E+00 0.  1.
         -2   -1    0    0    0  501 -0.00000000000E+00 -0.00000000000E+00 -0.13435822275E+03  0.13435822275E+03  0.00000000000E+00 0. -1.
          6    2    1    2  502    0  0.12696743952E+03  0.91778101450E+02  0.13652752414E+03  0.26799808305E+03  0.16923137140E+03 0.  0.
         24    2    3    3    0    0  0.20942098650E+02  0.66840043864E+01  0.93640802219E+02  0.12536660273E+03  0.80404837095E+02 0.  0.
         -6    2    1    2    0  501 -0.12696743952E+03 -0.91778101450E+02  0.12977783762E+03  0.26702372420E+03  0.17296078036E+03 0.  0.
        -24    2    5    5    0    0 -0.15968995662E+03 -0.85781031597E+02  0.97660810077E+02  0.22054446614E+03  0.79012404666E+02 0.  0.
          5    1    3    3  502    0  0.10602534087E+03  0.85094097064E+02  0.42886721919E+02  0.14263148032E+03  0.47000000000E+01 0. -1.
        -13    1    4    4    0    0  0.47473737839E+02  0.14935328770E+02  0.80473850925E+02  0.94619556713E+02  0.00000000000E+00 0.  1.
         14    1    4    4    0    0 -0.26531639189E+02 -0.82513243841E+01  0.13166951295E+02  0.30747046013E+02  0.00000000000E+00 0. -1.
         -5    1    5    5    0  501  0.32722517098E+02 -0.59970698529E+01  0.32117027542E+02  0.46479258063E+02  0.47000000000E+01 0.  1.
         13    1    6    6    0    0 -0.50243688250E+02  0.11218840455E+02  0.26713167042E+02  0.57998998988E+02  0.00000000000E+00 0. -1.
        -14    1    6    6    0    0 -0.10944626837E+03 -0.96999872052E+02  0.70947643035E+02  0.16254546715E+03  0.00000000000E+00 0.  1.
<mgrwt>
<rscale>  2 0.23198602E+03</rscale>
<asrwt>0</asrwt>
<pdfrwt beam="1">  1        2 0.61640551E-01 0.23198602E+03</pdfrwt>
<pdfrwt beam="2">  1       -2 0.20670496E-01 0.23198602E+03</pdfrwt>
<totfact> 0.15763642E+03</totfact>
</mgrwt>
</event>
<event>
12    1  0.4154313E-002  0.1743192E+03  0.7546771E-02  0.1173417E+00
         -1   -1    0    0    0  501 -0.00000000000E+00  0.00000000000E+00  0.11901545455E+03  0.11901545455E+03  0.00000000000E+00 0. -1.
          1   -1    0    0  502    0  0.00000000000E+00 -0.00000000000E+00 -0.28624008667E+03  0.28624008667E+03  0.00000000000E+00 0.  1.
          6    2    1    2  502    0  0.22795465811E+02 -0.26785662616E+02 -0.15137584021E+03  0.23311169110E+03  0.17375071381E+03 0.  0.
         24    2    3    3    0    0  0.75509430650E+02 -0.38652003733E+02 -0.67470564774E+02  0.13320294581E+03  0.77428006252E+02 0.  0.
         -6    2    1    2    0  501 -0.22795465811E+02  0.26785662616E+02 -0.15848791916E+02  0.17214385012E+03  0.16776535979E+03 0.  0.
        -24    2    5    5    0    0 -0.24921745623E+02  0.80953302444E+02 -0.18453865284E+02  0.11766880375E+03  0.79566774785E+02 0.  0.
          5    1    3    3  502    0 -0.52713964839E+02  0.11866341117E+02 -0.83905275434E+02  0.99908745294E+02  0.47000000000E+01 0. -1.
        -11    1    4    4    0    0  0.57264875568E+02 -0.23128789587E+02 -0.83882242515E+02  0.10416543328E+03  0.00000000000E+00 0.  1.
         12    1    4    4    0    0  0.18244555082E+02 -0.15523214146E+02  0.16411677741E+02  0.29037512529E+02  0.00000000000E+00 0. -1.
         -5    1    5    5    0  501  0.21262798120E+01 -0.54167639827E+02  0.26050733675E+01  0.54475046375E+02  0.47000000000E+01 0.  1.
         11    1    6    6    0    0 -0.38997354804E+02  0.14449552860E+02 -0.26352408999E+02  0.49234466785E+02  0.00000000000E+00 0. -1.
        -12    1    6    6    0    0  0.14075609180E+02  0.66503749584E+02  0.78985437156E+01  0.68434336961E+02  0.00000000000E+00 0.  1.
<mgrwt>
<rscale>  2 0.17431921E+03</rscale>
<asrwt>0</asrwt>
<pdfrwt beam="2">  1        1 0.44036935E-01 0.17431921E+03</pdfrwt>
<pdfrwt beam="1">  1       -1 0.18310070E-01 0.17431921E+03</pdfrwt>
<totfact> 0.21336292E+03</totfact>
</mgrwt>
</event>
<event>
12    1  0.4154313E-002  0.2213880E+03  0.7546771E-02  0.1132852E+00
         -2   -1    0    0    0  501 -0.00000000000E+00  0.00000000000E+00  0.70092605458E+02  0.70092605458E+02  0.00000000000E+00 0. -1.
          2   -1    0    0  502    0  0.00000000000E+00 -0.00000000000E+00 -0.13137676419E+04  0.13137676419E+04  0.00000000000E+00 0.  1.
          6    2    1    2  502    0 -0.81545716838E+02  0.11593291972E+03 -0.10960628308E+04  0.11183311280E+04  0.17094044848E+03 0.  0.
         24    2    3    3    0    0 -0.11336591508E+03  0.92713158689E+02 -0.10078889720E+04  0.10216439949E+04  0.80428303697E+02 0.  0.
         -6    2    1    2    0  501  0.81545716838E+02 -0.11593291972E+03 -0.14761220559E+03  0.26552911933E+03  0.16919280175E+03 0.  0.
        -24    2    5    5    0    0  0.67458105650E+02 -0.10615552977E+03 -0.36520208400E+02  0.15302320845E+03  0.79137754480E+02 0.  0.
          5    1    3    3  502    0  0.31820198246E+02  0.23219761032E+02 -0.88173858891E+02  0.96687133118E+02  0.47000000000E+01 0. -1.
        -11    1    4    4    0    0 -0.40879449251E+02  0.60587308970E+02 -0.27748408742E+03  0.28694837541E+03  0.00000000000E+00 0.  1.
         12    1    4    4    0    0 -0.72486465833E+02  0.32125849719E+02 -0.73040488453E+03  0.73469561949E+03  0.00000000000E+00 0. -1.
         -5    1    5    5    0  501  0.14087611188E+02 -0.97773899482E+01 -0.11109199719E+03  0.11250591088E+03  0.47000000000E+01 0.  1.
         13    1    6    6    0    0  0.79876170976E+02 -0.59822905140E+02 -0.32200798770E+02  0.10486121357E+03  0.00000000000E+00 0. -1.
        -14    1    6    6    0    0 -0.12418065326E+02 -0.46332624633E+02 -0.43194096302E+01  0.48161994886E+02  0.00000000000E+00 0.  1.
<mgrwt>
<rscale>  2 0.22138804E+03</rscale>
<asrwt>0</asrwt>
<pdfrwt beam="2">  1        2 0.20211811E+00 0.22138804E+03</pdfrwt>
<pdfrwt beam="1">  1       -2 0.10783477E-01 0.22138804E+03</pdfrwt>
<totfact> 0.10186163E+03</totfact>
</mgrwt>
</event>
<event>
12    1  0.4154313E-002  0.2847707E+03  0.7546771E-02  0.1093111E+00
         -4   -1    0    0    0  501 -0.00000000000E+00  0.00000000000E+00  0.18618243755E+03  0.18618243755E+03  0.00000000000E+00 0. -1.
          4   -1    0    0  502    0  0.00000000000E+00 -0.00000000000E+00 -0.43604683472E+03  0.43604683472E+03  0.00000000000E+00 0.  1.
          6    2    1    2  502    0 -0.19651282871E+03  0.11309197748E+03 -0.11494441302E+03  0.30779995423E+03  0.17355548543E+03 0.  0.
         24    2    3    3    0    0 -0.19810897475E+03  0.60621951331E+02 -0.12318618587E+03  0.25445514993E+03  0.81549985166E+02 0.  0.
         -6    2    1    2    0  501  0.19651282871E+03 -0.11309197748E+03 -0.13491998415E+03  0.31442931804E+03  0.17104182734E+03 0.  0.
        -24    2    5    5    0    0  0.64361083595E+02 -0.41816494095E+02  0.21275947222E+01  0.11108624060E+03  0.80278626859E+02 0.  0.
          5    1    3    3  502    0  0.15961460366E+01  0.52470026147E+02  0.82417728456E+01  0.53344804299E+02  0.47000000000E+01 0. -1.
        -11    1    4    4    0    0 -0.85130537954E+02  0.45637541939E+02 -0.98274435466E+02  0.13779643824E+03  0.00000000000E+00 0.  1.
         12    1    4    4    0    0 -0.11297843679E+03  0.14984409392E+02 -0.24911750402E+02  0.11665871169E+03  0.00000000000E+00 0. -1.
         -5    1    5    5    0  501  0.13215174511E+03 -0.71275483383E+02 -0.13704757888E+03  0.20334307744E+03  0.47000000000E+01 0.  1.
         11    1    6    6    0    0  0.74919386035E+02 -0.52839148087E+02  0.12650487706E+02  0.92546879005E+02  0.00000000000E+00 0. -1.
        -12    1    6    6    0    0 -0.10558302440E+02  0.11022653991E+02 -0.10522892984E+02  0.18539361590E+02  0.00000000000E+00 0.  1.
<mgrwt>
<rscale>  2 0.28477067E+03</rscale>
<asrwt>0</asrwt>
<pdfrwt beam="2">  1        4 0.67084127E-01 0.28477067E+03</pdfrwt>
<pdfrwt beam="1">  1       -4 0.28643452E-01 0.28477067E+03</pdfrwt>
<totfact> 0.44789330E+01</totfact>
</mgrwt>
</event>
<event>
12    1  0.4154313E-002  0.2487122E+03  0.7546771E-02  0.1114121E+00
          1   -1    0    0  502    0  0.00000000000E+00  0.00000000000E+00  0.14224466272E+03  0.14224466272E+03  0.00000000000E+00 0. -1.
         -1   -1    0    0    0  501 -0.00000000000E+00 -0.00000000000E+00 -0.45513509828E+03  0.45513509828E+03  0.00000000000E+00 0.  1.
          6    2    1    2  502    0 -0.17694973946E+03 -0.21703133180E+02 -0.93501268756E+02  0.26583833594E+03  0.17362401134E+03 0.  0.
         24    2    3    3    0    0 -0.15493830384E+02 -0.26036253284E+02 -0.48505040736E+02  0.98107787021E+02  0.79714826928E+02 0.  0.
         -6    2    1    2    0  501  0.17694973946E+03  0.21703133180E+02 -0.21938916680E+03  0.33154142506E+03  0.17322203594E+03 0.  0.
        -24    2    5    5    0    0  0.16453664565E+02  0.10921674596E+02 -0.11596788870E+03  0.14024772242E+03  0.76360109873E+02 0.  0.
          5    1    3    3  502    0 -0.16145590908E+03  0.43331201040E+01 -0.44996228019E+02  0.16773054892E+03  0.47000000000E+01 0. -1.
        -11    1    4    4    0    0 -0.42572699094E+01 -0.38983175652E+02 -0.63961332664E+02  0.75025758291E+02  0.00000000000E+00 0.  1.
         12    1    4    4    0    0 -0.11236560475E+02  0.12946922369E+02  0.15456291927E+02  0.23082028730E+02  0.00000000000E+00 0. -1.
         -5    1    5    5    0  501  0.16049607490E+03  0.10781458584E+02 -0.10342127810E+03  0.19129370264E+03  0.47000000000E+01 0.  1.
         13    1    6    6    0    0  0.16659369500E+02  0.16212372820E+02  0.89668513651E+00  0.23263268662E+02  0.00000000000E+00 0. -1.
        -14    1    6    6    0    0 -0.20570493499E+00 -0.52906982242E+01 -0.11686457384E+03  0.11698445376E+03  0.00000000000E+00 0.  1.
<mgrwt>
<rscale>  2 0.24871225E+03</rscale>
<asrwt>0</asrwt>
<pdfrwt beam="1">  1        1 0.21883794E-01 0.24871225E+03</pdfrwt>
<pdfrwt beam="2">  1       -1 0.70020784E-01 0.24871225E+03</pdfrwt>
<totfact> 0.48841788E+02</totfact>
</mgrwt>
</event>
<event>
12    1  0.4154313E-002  0.2614639E+03  0.7546771E-02  0.1106267E+00
         -2   -1    0    0    0  501 -0.00000000000E+00  0.00000000000E+00  0.42273711391E+03  0.42273711391E+03  0.00000000000E+00 0. -1.
          2   -1    0    0  502    0  0.00000000000E+00 -0.00000000000E+00 -0.16646773631E+03  0.16646773631E+03  0.00000000000E+00 0.  1.
          6    2    1    2  502    0  0.80527750752E+02  0.17977253048E+03  0.78687676547E+02  0.27369347288E+03  0.17295515402E+03 0.  0.
         24    2    3    3    0    0  0.84656250938E+02  0.20469892650E+03  0.68070444447E+02  0.24588726225E+03  0.82210881257E+02 0.  0.
         -6    2    1    2    0  501 -0.80527750752E+02 -0.17977253048E+03  0.17758170105E+03  0.31551137733E+03  0.17090724772E+03 0.  0.
        -24    2    5    5    0    0 -0.10505917755E+03 -0.10901500120E+03  0.17198345288E+03  0.24026611680E+03  0.72303509894E+02 0.  0.
          5    1    3    3  502    0 -0.41285001866E+01 -0.24926396018E+02  0.10617232100E+02  0.27806210632E+02  0.47000000000E+01 0. -1.
        -11    1    4    4    0    0  0.61920403346E+00 -0.27995312317E+01 -0.87466185843E+01  0.92045708978E+01  0.00000000000E+00 0.  1.
         12    1    4    4    0    0  0.84037046905E+02  0.20749845773E+03  0.76817063031E+02  0.23668269135E+03  0.00000000000E+00 0. -1.
         -5    1    5    5    0  501  0.24531426795E+02 -0.70757529281E+02  0.55982481679E+01  0.75245260536E+02  0.47000000000E+01 0.  1.
         13    1    6    6    0    0 -0.34657918882E+02 -0.77478224823E+02  0.12099262564E+03  0.14779466202E+03  0.00000000000E+00 0. -1.
        -14    1    6    6    0    0 -0.70401258665E+02 -0.31536776378E+02  0.50990827242E+02  0.92471454778E+02  0.00000000000E+00 0.  1.
<mgrwt>
<rscale>  2 0.26146388E+03</rscale>
<asrwt>0</asrwt>
<pdfrwt beam="2">  1        2 0.25610421E-01 0.26146388E+03</pdfrwt>
<pdfrwt beam="1">  1       -2 0.65036478E-01 0.26146388E+03</pdfrwt>
<totfact> 0.46862492E+02</totfact>
</mgrwt>
</event>
<event>
12    1  0.4154313E-002  0.1882446E+03  0.7546771E-02  0.1160054E+00
          1   -1    0    0  502    0  0.00000000000E+00  0.00000000000E+00  0.81314716752E+03  0.81314716752E+03  0.00000000000E+00 0. -1.
         -1   -1    0    0    0  501 -0.00000000000E+00 -0.00000000000E+00 -0.75143317602E+02  0.75143317602E+02  0.00000000000E+00 0.  1.
          6    2    1    2  502    0  0.60858507598E+02  0.41098236802E+02  0.65706014837E+03  0.68354254969E+03  0.17352105245E+03 0.  0.
         24    2    3    3    0    0  0.72056576108E+01  0.93177196812E+01  0.11580169960E+03  0.13868345970E+03  0.75394475674E+02 0.  0.
         -6    2    1    2    0  501 -0.60858507598E+02 -0.41098236802E+02  0.80943701555E+02  0.20474793544E+03  0.17313870518E+03 0.  0.
        -24    2    5    5    0    0 -0.69551257573E+02  0.32552698262E+02  0.63796302169E+02  0.12848426490E+03  0.80877577628E+02 0.  0.
          5    1    3    3  502    0  0.53652849987E+02  0.31780517121E+02  0.54125844877E+03  0.54485908999E+03  0.47000000000E+01 0. -1.
        -11    1    4    4    0    0  0.23679606355E+02 -0.16828483407E+02  0.99681615079E+02  0.10382844502E+03  0.00000000000E+00 0.  1.
         12    1    4    4    0    0 -0.16473948744E+02  0.26146203088E+02  0.16120084519E+02  0.34855014676E+02  0.00000000000E+00 0. -1.
         -5    1    5    5    0  501  0.86927499752E+01 -0.73650935064E+02  0.17147399386E+02  0.76263670536E+02  0.47000000000E+01 0.  1.
         13    1    6    6    0    0 -0.62395541634E+02  0.44174009897E+02  0.77698471571E+02  0.10900274882E+03  0.00000000000E+00 0. -1.
        -14    1    6    6    0    0 -0.71557159387E+01 -0.11621311635E+02 -0.13902169402E+02  0.19481516080E+02  0.00000000000E+00 0.  1.
<mgrwt>
<rscale>  2 0.18824464E+03</rscale>
<asrwt>0</asrwt>
<pdfrwt beam="1">  1        1 0.12509956E+00 0.18824464E+03</pdfrwt>
<pdfrwt beam="2">  1       -1 0.11560511E-01 0.18824464E+03</pdfrwt>
<totfact> 0.10932957E+03</totfact>
</mgrwt>
</event>
<event>
12    1  0.4154313E-002  0.2921652E+03  0.7546771E-02  0.1089224E+00
         -3   -1    0    0    0  501 -0.00000000000E+00  0.00000000000E+00  0.69739345236E+02  0.69739345236E+02  0.00000000000E+00 0.  1.
          3   -1    0    0  502    0  0.00000000000E+00 -0.00000000000E+00 -0.12523422574E+04  0.12523422574E+04  0.00000000000E+00 0. -1.
          6    2    1    2  502    0 -0.14865337706E+03  0.18228509599E+03 -0.48941100386E+03  0.56934706471E+03  0.17119365251E+03 0.  0.
         24    2    3    3    0    0 -0.12787122470E+03  0.15738875642E+03 -0.25166825472E+03  0.32935658501E+03  0.63376485367E+02 0.  0.
         -6    2    1    2    0  501  0.14865337706E+03 -0.18228509599E+03 -0.69319190834E+03  0.75273453796E+03  0.17540974922E+03 0.  0.
        -24    2    5    5    0    0  0.65956920946E+02 -0.18119964551E+03 -0.52758032708E+03  0.56756119241E+03  0.81247022421E+02 0.  0.
          5    1    3    3  502    0 -0.20782152357E+02  0.24896339573E+02 -0.23774274914E+03  0.23999047970E+03  0.47000000000E+01 0. -1.
        -11    1    4    4    0    0 -0.13174890205E+03  0.13501955697E+03 -0.23409632341E+03  0.30064787141E+03  0.00000000000E+00 0.  1.
         12    1    4    4    0    0  0.38776773477E+01  0.22369199454E+02 -0.17571931319E+02  0.28708713592E+02  0.00000000000E+00 0. -1.
         -5    1    5    5    0  501  0.82696456113E+02 -0.10854504814E+01 -0.16561158125E+03  0.18517334555E+03  0.47000000000E+01 0.  1.
         11    1    6    6    0    0  0.10804638216E+02 -0.67994675993E+02 -0.29659275839E+03  0.30447870287E+03  0.00000000000E+00 0. -1.
        -12    1    6    6    0    0  0.55152282730E+02 -0.11320496952E+03 -0.23098756869E+03  0.26308248954E+03  0.00000000000E+00 0.  1.
<mgrwt>
<rscale>  2 0.29216516E+03</rscale>
<asrwt>0</asrwt>
<pdfrwt beam="2">  1        3 0.19266803E+00 0.29216516E+03</pdfrwt>
<pdfrwt beam="1">  1       -3 0.10729130E-01 0.29216516E+03</pdfrwt>
<totfact> 0.29142474E+01</totfact>
</mgrwt>
</event>
<event>
11    1  0.4154313E-002  0.1726445E+03  0.7546771E-02  0.1175118E+00
         -2   -1    0    0    0  501 -0.00000000000E+00  0.00000000000E+00  0.28657608511E+02  0.28657608511E+02  0.00000000000E+00 0.  1.
          2   -1    0    0  502    0  0.00000000000E+00 -0.00000000000E+00 -0.10516522073E+04  0.10516522073E+04  0.00000000000E+00 0. -1.
          6    2    1    2  502    0 -0.12919358922E+00 -0.86542672680E+00 -0.45503420240E+03  0.48670971051E+03  0.17271204735E+03 0.  0.
         24    2    3    3    0    0 -0.72264588706E+02 -0.14785633945E+02 -0.26722599993E+03  0.28498886798E+03  0.66091860932E+02 0.  0.
         -6    2    1    2    0  501  0.12919358922E+00  0.86542672680E+00 -0.56796039636E+03  0.59360010526E+03  0.17257261511E+03 0.  0.
          5    1    3    3  502    0  0.72135395117E+02  0.13920207218E+02 -0.18780820247E+03  0.20172084253E+03  0.47000000000E+01 0. -1.
        -11    1    4    4    0    0 -0.67778231889E+02  0.12872577542E+02 -0.21388634919E+03  0.22473754101E+03  0.00000000000E+00 0.  1.
         12    1    4    4    0    0 -0.44863568175E+01 -0.27658211487E+02 -0.53339650738E+02  0.60251326965E+02  0.00000000000E+00 0. -1.
         -5    1    5    5    0  501 -0.49478696907E+01  0.69255620660E+01 -0.30560542391E+03  0.30576005290E+03  0.47000000000E+01 0.  1.
         13    1    5    5    0    0  0.40922629843E+02 -0.17920267708E+02 -0.23965834319E+03  0.24378662615E+03  0.00000000000E+00 0. -1.
        -14    1    5    5    0    0 -0.35845566563E+02  0.11860132369E+02 -0.22696629255E+02  0.44053426218E+02  0.00000000000E+00 0.  1.
<mgrwt>
<rscale>  2 0.17264453E+03</rscale>
<asrwt>0</asrwt>
<pdfrwt beam="2">  1        2 0.16179264E+00 0.17264453E+03</pdfrwt>
<pdfrwt beam="1">  1       -2 0.44088631E-02 0.17264453E+03</pdfrwt>
<totfact> 0.56979425E+03</totfact>
</mgrwt>
</event>
<event>
12    1  0.4154313E-002  0.1914266E+03  0.7546771E-02  0.1157181E+00
          1   -1    0    0  502    0  0.00000000000E+00  0.00000000000E+00  0.45791100024E+03  0.45791100024E+03  0.00000000000E+00 0.  1.
         -1   -1    0    0    0  501 -0.00000000000E+00 -0.00000000000E+00 -0.83083895563E+02  0.83083895563E+02  0.00000000000E+00 0. -1.
          6    2    1    2  502    0 -0.37681869877E+02 -0.72503220812E+02  0.23951256532E+03  0.30673953032E+03  0.17333848440E+03 0.  0.
         24    2    3    3    0    0 -0.58047035747E+02 -0.41938281321E+02  0.57503347967E+02  0.12100207931E+03  0.78781916527E+02 0.  0.
         -6    2    1    2    0  501  0.37681869877E+02  0.72503220812E+02  0.13531453936E+03  0.23425536548E+03  0.17288409802E+03 0.  0.
        -24    2    5    5    0    0 -0.19127268077E+02 -0.16280207792E+02  0.77364067452E+02  0.11388044058E+03  0.79703564945E+02 0.  0.
          5    1    3    3  502    0  0.20365165871E+02 -0.30564939491E+02  0.18200921735E+03  0.18573745101E+03  0.47000000000E+01 0. -1.
        -13    1    4    4    0    0  0.13127452322E+02  0.95460721950E+01  0.19280728028E+02  0.25203253205E+02  0.00000000000E+00 0.  1.
         14    1    4    4    0    0 -0.71174488070E+02 -0.51484353516E+02  0.38222619939E+02  0.95798826109E+02  0.00000000000E+00 0. -1.
         -5    1    5    5    0  501  0.56809137953E+02  0.88783428604E+02  0.57950471911E+02  0.12037492490E+03  0.47000000000E+01 0.  1.
         11    1    6    6    0    0  0.62689048137E+01 -0.91657664642E+01 -0.14523793600E+02  0.18282533276E+02  0.00000000000E+00 0. -1.
        -12    1    6    6    0    0 -0.25396172890E+02 -0.71144413282E+01  0.91887861052E+02  0.95597907308E+02  0.00000000000E+00 0.  1.
<mgrwt>
<rscale>  2 0.19142656E+03</rscale>
<asrwt>0</asrwt>
<pdfrwt beam="1">  1        1 0.70447845E-01 0.19142656E+03</pdfrwt>
<pdfrwt beam="2">  1       -1 0.12782138E-01 0.19142656E+03</pdfrwt>
<totfact> 0.20841161E+03</totfact>
</mgrwt>
</event>
<event>
12    1  0.4154313E-002  0.3113995E+03  0.7546771E-02  0.1079677E+00
         -1   -1    0    0    0  501 -0.00000000000E+00  0.00000000000E+00  0.61409022751E+02  0.61409022751E+02  0.00000000000E+00 0. -1.
          1   -1    0    0  502    0  0.00000000000E+00 -0.00000000000E+00 -0.25345368214E+04  0.25345368214E+04  0.00000000000E+00 0.  1.
          6    2    1    2  502    0  0.10998583722E+03  0.23606320613E+03 -0.20303585466E+04  0.20539089917E+04  0.16841495361E+03 0.  0.
         24    2    3    3    0    0  0.94433577932E+02  0.20986182778E+03 -0.12751590277E+04  0.12980804474E+04  0.77605505978E+02 0.  0.
         -6    2    1    2    0  501 -0.10998583722E+03 -0.23606320613E+03 -0.44276925199E+03  0.54203685243E+03  0.17302201364E+03 0.  0.
        -24    2    5    5    0    0 -0.13039915976E+03 -0.17772910718E+03 -0.26422119019E+03  0.35303666404E+03  0.78933341550E+02 0.  0.
          5    1    3    3  502    0  0.15552259291E+02  0.26201378356E+02 -0.75519951895E+03  0.75582854433E+03  0.47000000000E+01 0. -1.
        -11    1    4    4    0    0  0.86345975274E+02  0.97869257516E+02 -0.67056102016E+03  0.68314427522E+03  0.00000000000E+00 0.  1.
         12    1    4    4    0    0  0.80876026577E+01  0.11199257026E+03 -0.60459800752E+03  0.61493617214E+03  0.00000000000E+00 0. -1.
         -5    1    5    5    0  501  0.20413322535E+02 -0.58334098951E+02 -0.17854806181E+03  0.18900018839E+03  0.47000000000E+01 0.  1.
         13    1    6    6    0    0 -0.10527204951E+03 -0.92236524360E+02 -0.12452461999E+03  0.18733969632E+03  0.00000000000E+00 0. -1.
        -14    1    6    6    0    0 -0.25127110248E+02 -0.85492582823E+02 -0.13969657020E+03  0.16569696772E+03  0.00000000000E+00 0.  1.
<mgrwt>
<rscale>  2 0.31139948E+03</rscale>
<asrwt>0</asrwt>
<pdfrwt beam="2">  1        1 0.38992876E+00 0.31139948E+03</pdfrwt>
<pdfrwt beam="1">  1       -1 0.94475416E-02 0.31139948E+03</pdfrwt>
<totfact> 0.99197209E+01</totfact>
</mgrwt>
</event>
