<event>
 4    1  0.3858687E+006  0.5378945E+01  0.7546771E-02  0.2504022E+00
         21   -1    0    0  503  502  0.00000000000E+00  0.00000000000E+00  0.69967367902E+02  0.69967367902E+02  0.00000000000E+00 0.  1.
         21   -1    0    0  501  503 -0.00000000000E+00 -0.00000000000E+00 -0.43086343994E+00  0.43086343994E+00  0.00000000000E+00 0.  1.
          5    1    1    2  501    0  0.23673108435E+01 -0.11130557517E+01  0.27706652327E+02  0.28223955018E+02  0.47000000000E+01 0.  1.
         -5    1    1    2    0  502 -0.23673108435E+01  0.11130557517E+01  0.41829852135E+02  0.42174276323E+02  0.47000000000E+01 0.  1.
<mgrwt>
<rscale>  2 0.53789454E+01</rscale>
<asrwt>0</asrwt>
<pdfrwt beam="1">  1       21 0.10764201E-01 0.53789454E+01</pdfrwt>
<pdfrwt beam="2">  1       21 0.66286739E-04 0.53789454E+01</pdfrwt>
<totfact> 0.36319590E+09</totfact>
</mgrwt>
</event>
<event>
 4    1  0.3858687E+006  0.5347726E+01  0.7546771E-02  0.2508933E+00
         21   -1    0    0  501  502  0.00000000000E+00  0.00000000000E+00  0.30883448132E+03  0.30883448132E+03  0.00000000000E+00 0. -1.
         21   -1    0    0  502  503 -0.00000000000E+00 -0.00000000000E+00 -0.92838869491E-01  0.92838869491E-01  0.00000000000E+00 0. -1.
          5    1    1    2  501    0 -0.94203235806E+00 -0.23708107522E+01  0.14654085102E+03  0.14663839601E+03  0.47000000000E+01 0.  1.
         -5    1    1    2    0  503  0.94203235806E+00  0.23708107522E+01  0.16220079143E+03  0.16228892417E+03  0.47000000000E+01 0.  1.
<mgrwt>
<rscale>  2 0.53477256E+01</rscale>
<asrwt>0</asrwt>
<pdfrwt beam="1">  1       21 0.47512175E-01 0.53477256E+01</pdfrwt>
<pdfrwt beam="2">  1       21 0.14283150E-04 0.53477256E+01</pdfrwt>
<totfact> 0.24682824E+09</totfact>
</mgrwt>
</event>
<event>
 4    1  0.3858687E+006  0.5377444E+01  0.7546771E-02  0.2504257E+00
         21   -1    0    0  501  502  0.00000000000E+00  0.00000000000E+00  0.26841691455E+02  0.26841691455E+02  0.00000000000E+00 0.  1.
         21   -1    0    0  502  503 -0.00000000000E+00 -0.00000000000E+00 -0.10864974455E+01  0.10864974455E+01  0.00000000000E+00 0.  1.
          5    1    1    2  501    0 -0.18882934235E+00 -0.26060032198E+01  0.11593731676E+02  0.12780122201E+02  0.47000000000E+01 0.  1.
         -5    1    1    2    0  503  0.18882934235E+00  0.26060032198E+01  0.14161462333E+02  0.15148066699E+02  0.47000000000E+01 0.  1.
<mgrwt>
<rscale>  2 0.53774445E+01</rscale>
<asrwt>0</asrwt>
<pdfrwt beam="1">  1       21 0.41294905E-02 0.53774445E+01</pdfrwt>
<pdfrwt beam="2">  1       21 0.16715347E-03 0.53774445E+01</pdfrwt>
<totfact> 0.43991306E+09</totfact>
</mgrwt>
</event>
<event>
 4    1  0.3858687E+006  0.5373340E+01  0.7546771E-02  0.2504900E+00
         21   -1    0    0  501  502  0.00000000000E+00  0.00000000000E+00  0.31606694359E+03  0.31606694359E+03  0.00000000000E+00 0. -1.
         21   -1    0    0  502  503 -0.00000000000E+00 -0.00000000000E+00 -0.34637362505E+00  0.34637362505E+00  0.00000000000E+00 0.  1.
          5    1    1    2  501    0 -0.49817390061E+00 -0.25562865810E+01  0.29361108207E+03  0.29366024637E+03  0.47000000000E+01 0. -1.
         -5    1    1    2    0  503  0.49817390061E+00  0.25562865810E+01  0.22109487890E+02  0.22753070849E+02  0.47000000000E+01 0.  1.
<mgrwt>
<rscale>  2 0.53733396E+01</rscale>
<asrwt>0</asrwt>
<pdfrwt beam="1">  1       21 0.48625453E-01 0.53733396E+01</pdfrwt>
<pdfrwt beam="2">  1       21 0.53288503E-04 0.53733396E+01</pdfrwt>
<totfact> 0.41389106E+08</totfact>
</mgrwt>
</event>
<event>
 4    1  0.3858687E+006  0.7929531E+01  0.7546771E-02  0.2216374E+00
         21   -1    0    0  501  502  0.00000000000E+00  0.00000000000E+00  0.22764647587E+02  0.22764647587E+02  0.00000000000E+00 0.  1.
         21   -1    0    0  502  503 -0.00000000000E+00 -0.00000000000E+00 -0.30846964160E+01  0.30846964160E+01  0.00000000000E+00 0.  1.
          5    1    1    2  501    0  0.21079054086E+01 -0.60286145831E+01  0.56600748041E+01  0.97423768041E+01  0.47000000000E+01 0.  1.
         -5    1    1    2    0  503 -0.21079054086E+01  0.60286145831E+01  0.14019876367E+02  0.16106967199E+02  0.47000000000E+01 0.  1.
<mgrwt>
<rscale>  2 0.79295308E+01</rscale>
<asrwt>0</asrwt>
<pdfrwt beam="1">  1       21 0.35022534E-02 0.79295308E+01</pdfrwt>
<pdfrwt beam="2">  1       21 0.47456869E-03 0.79295308E+01</pdfrwt>
<totfact> 0.18387032E+09</totfact>
</mgrwt>
</event>
<event>
 4    1  0.3858687E+006  0.1120910E+02  0.7546771E-02  0.2012072E+00
         21   -1    0    0  503  502  0.00000000000E+00  0.00000000000E+00  0.59541686824E+01  0.59541686824E+01  0.00000000000E+00 0. -1.
         21   -1    0    0  501  503 -0.00000000000E+00 -0.00000000000E+00 -0.57393446108E+02  0.57393446108E+02  0.00000000000E+00 0. -1.
          5    1    1    2  501    0 -0.80986875682E+01  0.61615907916E+01 -0.50906391996E+02  0.52125854309E+02  0.47000000000E+01 0. -1.
         -5    1    1    2    0  502  0.80986875682E+01 -0.61615907916E+01 -0.53288542940E+00  0.11221760481E+02  0.47000000000E+01 0. -1.
<mgrwt>
<rscale>  2 0.11209101E+02</rscale>
<asrwt>0</asrwt>
<pdfrwt beam="1">  1       21 0.91602596E-03 0.11209101E+02</pdfrwt>
<pdfrwt beam="2">  1       21 0.88297609E-02 0.11209101E+02</pdfrwt>
<totfact> 0.21192280E+08</totfact>
</mgrwt>
</event>
<event>
 4    1  0.3858687E+006  0.1310589E+02  0.7546771E-02  0.1932048E+00
         21   -1    0    0  503  502  0.00000000000E+00  0.00000000000E+00  0.82742328102E+02  0.82742328102E+02  0.00000000000E+00 0. -1.
         21   -1    0    0  501  503 -0.00000000000E+00 -0.00000000000E+00 -0.20792613581E+01  0.20792613581E+01  0.00000000000E+00 0.  1.
          5    1    1    2  501    0  0.62369835362E+01  0.10524941868E+02  0.42038078627E+02  0.44033673701E+02  0.47000000000E+01 0.  1.
         -5    1    1    2    0  502 -0.62369835362E+01 -0.10524941868E+02  0.38624988117E+02  0.40787915760E+02  0.47000000000E+01 0. -1.
<mgrwt>
<rscale>  2 0.13105890E+02</rscale>
<asrwt>0</asrwt>
<pdfrwt beam="1">  1       21 0.12729586E-01 0.13105890E+02</pdfrwt>
<pdfrwt beam="2">  1       21 0.31988643E-03 0.13105890E+02</pdfrwt>
<totfact> 0.57593128E+08</totfact>
</mgrwt>
</event>
<event>
 4    1  0.3858687E+006  0.5593053E+01  0.7546771E-02  0.2471602E+00
         21   -1    0    0  501  502  0.00000000000E+00  0.00000000000E+00  0.63723778421E+00  0.63723778421E+00  0.00000000000E+00 0. -1.
         21   -1    0    0  502  503 -0.00000000000E+00 -0.00000000000E+00 -0.49267927563E+02  0.49267927563E+02  0.00000000000E+00 0. -1.
          5    1    1    2  501    0 -0.24024434871E+01  0.18494620721E+01 -0.25813274184E+02  0.26412257926E+02  0.47000000000E+01 0. -1.
         -5    1    1    2    0  503  0.24024434871E+01 -0.18494620721E+01 -0.22817415595E+02  0.23492907422E+02  0.47000000000E+01 0. -1.
<mgrwt>
<rscale>  2 0.55930533E+01</rscale>
<asrwt>0</asrwt>
<pdfrwt beam="1">  1       21 0.98036556E-04 0.55930533E+01</pdfrwt>
<pdfrwt beam="2">  1       21 0.75796832E-02 0.55930533E+01</pdfrwt>
<totfact> 0.38024949E+09</totfact>
</mgrwt>
</event>
<event>
 4    1  0.3858687E+006  0.5845313E+01  0.7546771E-02  0.2436002E+00
         21   -1    0    0  503  502  0.00000000000E+00  0.00000000000E+00  0.20665407873E-01  0.20665407873E-01  0.00000000000E+00 0. -1.
         21   -1    0    0  501  503 -0.00000000000E+00 -0.00000000000E+00 -0.16627182808E+04  0.16627182808E+04  0.00000000000E+00 0. -1.
          5    1    1    2  501    0  0.16840796422E+01 -0.30399930116E+01 -0.89366771165E+03  0.89368682799E+03  0.47000000000E+01 0. -1.
         -5    1    1    2    0  502 -0.16840796422E+01  0.30399930116E+01 -0.76902990375E+03  0.76905211822E+03  0.47000000000E+01 0. -1.
<mgrwt>
<rscale>  2 0.58453128E+01</rscale>
<asrwt>0</asrwt>
<pdfrwt beam="1">  1       21 0.31797893E-05 0.58453128E+01</pdfrwt>
<pdfrwt beam="2">  1       21 0.25576293E+00 0.58453128E+01</pdfrwt>
<totfact> 0.63739236E+08</totfact>
</mgrwt>
</event>
<event>
 4    1  0.3858687E+006  0.7364580E+01  0.7546771E-02  0.2265736E+00
         21   -1    0    0  501  502  0.00000000000E+00  0.00000000000E+00  0.11922348967E+00  0.11922348967E+00  0.00000000000E+00 0.  1.
         21   -1    0    0  502  503 -0.00000000000E+00 -0.00000000000E+00 -0.56255733645E+03  0.56255733645E+03  0.00000000000E+00 0. -1.
          5    1    1    2  501    0  0.12485410209E+01  0.55306591026E+01 -0.15815572107E+03  0.15832709545E+03  0.47000000000E+01 0.  1.
         -5    1    1    2    0  503 -0.12485410209E+01 -0.55306591026E+01 -0.40428239189E+03  0.40434946449E+03  0.47000000000E+01 0. -1.
<mgrwt>
<rscale>  2 0.73645804E+01</rscale>
<asrwt>0</asrwt>
<pdfrwt beam="1">  1       21 0.18341854E-04 0.73645804E+01</pdfrwt>
<pdfrwt beam="2">  1       21 0.86548326E-01 0.73645804E+01</pdfrwt>
<totfact> 0.71771157E+08</totfact>
</mgrwt>
</event>
<event>
 4    1  0.3858687E+006  0.8126283E+01  0.7546771E-02  0.2200495E+00
         21   -1    0    0  503  502  0.00000000000E+00  0.00000000000E+00  0.25148119839E+01  0.25148119839E+01  0.00000000000E+00 0.  1.
         21   -1    0    0  501  503 -0.00000000000E+00 -0.00000000000E+00 -0.26333851226E+02  0.26333851226E+02  0.00000000000E+00 0. -1.
          5    1    1    2  501    0 -0.15621109464E+01  0.64425371523E+01 -0.11140555578E+02  0.13789432699E+02  0.47000000000E+01 0.  1.
         -5    1    1    2    0  502  0.15621109464E+01 -0.64425371523E+01 -0.12678483664E+02  0.15059230511E+02  0.47000000000E+01 0.  1.
<mgrwt>
<rscale>  2 0.81262830E+01</rscale>
<asrwt>0</asrwt>
<pdfrwt beam="1">  1       21 0.38689415E-03 0.81262830E+01</pdfrwt>
<pdfrwt beam="2">  1       21 0.40513618E-02 0.81262830E+01</pdfrwt>
<totfact> 0.20051457E+09</totfact>
</mgrwt>
</event>
<event>
 4    1  0.3858687E+006  0.5266647E+01  0.7546771E-02  0.2521919E+00
         21   -1    0    0  503  502  0.00000000000E+00  0.00000000000E+00  0.49274937930E+03  0.49274937930E+03  0.00000000000E+00 0. -1.
         21   -1    0    0  501  503 -0.00000000000E+00 -0.00000000000E+00 -0.59043308694E-01  0.59043308694E-01  0.00000000000E+00 0. -1.
          5    1    1    2  501    0 -0.12677300057E+01 -0.20100823037E+01  0.19314941774E+03  0.19322120780E+03  0.47000000000E+01 0. -1.
         -5    1    1    2    0  502  0.12677300057E+01  0.20100823037E+01  0.29954091825E+03  0.29958721481E+03  0.47000000000E+01 0. -1.
<mgrwt>
<rscale>  2 0.52666470E+01</rscale>
<asrwt>0</asrwt>
<pdfrwt beam="1">  1       21 0.75804304E-01 0.52666470E+01</pdfrwt>
<pdfrwt beam="2">  1       21 0.90839805E-05 0.52666470E+01</pdfrwt>
<totfact> 0.18835921E+09</totfact>
</mgrwt>
</event>
<event>
 4    1  0.3858687E+006  0.5871984E+01  0.7546771E-02  0.2432389E+00
         21   -1    0    0  501  502  0.00000000000E+00  0.00000000000E+00  0.15237828053E+03  0.15237828053E+03  0.00000000000E+00 0.  1.
         21   -1    0    0  502  503 -0.00000000000E+00 -0.00000000000E+00 -0.23167805577E+00  0.23167805577E+00  0.00000000000E+00 0.  1.
          5    1    1    2  501    0 -0.25148319404E+01  0.24628884092E+01  0.87720409363E+02  0.87916724335E+02  0.47000000000E+01 0.  1.
         -5    1    1    2    0  503  0.25148319404E+01 -0.24628884092E+01  0.64426193112E+02  0.64693234251E+02  0.47000000000E+01 0.  1.
<mgrwt>
<rscale>  2 0.58719842E+01</rscale>
<asrwt>0</asrwt>
<pdfrwt beam="1">  1       21 0.23442732E-01 0.58719842E+01</pdfrwt>
<pdfrwt beam="2">  1       21 0.35642900E-04 0.58719842E+01</pdfrwt>
<totfact> 0.26254659E+09</totfact>
</mgrwt>
</event>
<event>
 4    1  0.3858687E+006  0.5016999E+01  0.7546771E-02  0.2564147E+00
         21   -1    0    0  503  502  0.00000000000E+00  0.00000000000E+00  0.57600142688E+00  0.57600142688E+00  0.00000000000E+00 0. -1.
         21   -1    0    0  501  503 -0.00000000000E+00 -0.00000000000E+00 -0.54338337604E+02  0.54338337604E+02  0.00000000000E+00 0. -1.
          5    1    1    2  501    0 -0.88534698916E+00 -0.15154022295E+01 -0.39031109132E+02  0.39352226916E+02  0.47000000000E+01 0. -1.
         -5    1    1    2    0  502  0.88534698916E+00  0.15154022295E+01 -0.14731227046E+02  0.15562112115E+02  0.47000000000E+01 0. -1.
<mgrwt>
<rscale>  2 0.50169994E+01</rscale>
<asrwt>0</asrwt>
<pdfrwt beam="1">  1       21 0.88615610E-04 0.50169994E+01</pdfrwt>
<pdfrwt beam="2">  1       21 0.83597437E-02 0.50169994E+01</pdfrwt>
<totfact> 0.33809318E+09</totfact>
</mgrwt>
</event>
<event>
 4    1  0.3858687E+006  0.5086292E+01  0.7546771E-02  0.2552070E+00
         21   -1    0    0  501  502  0.00000000000E+00  0.00000000000E+00  0.52739926833E+02  0.52739926833E+02  0.00000000000E+00 0. -1.
         21   -1    0    0  502  503 -0.00000000000E+00 -0.00000000000E+00 -0.59778336222E+00  0.59778336222E+00  0.00000000000E+00 0. -1.
          5    1    1    2  501    0 -0.16051335852E+01  0.10972276143E+01  0.14774573696E+02  0.15625568475E+02  0.47000000000E+01 0. -1.
         -5    1    1    2    0  503  0.16051335852E+01 -0.10972276143E+01  0.37367569775E+02  0.37712141720E+02  0.47000000000E+01 0. -1.
<mgrwt>
<rscale>  2 0.50862916E+01</rscale>
<asrwt>0</asrwt>
<pdfrwt beam="1">  1       21 0.81138312E-02 0.50862916E+01</pdfrwt>
<pdfrwt beam="2">  1       21 0.91966713E-04 0.50862916E+01</pdfrwt>
<totfact> 0.34119927E+09</totfact>
</mgrwt>
</event>
<event>
 4    1  0.3858687E+006  0.5544512E+01  0.7546771E-02  0.2478766E+00
         21   -1    0    0  503  502  0.00000000000E+00  0.00000000000E+00  0.72938877385E+01  0.72938877385E+01  0.00000000000E+00 0.  1.
         21   -1    0    0  501  503 -0.00000000000E+00 -0.00000000000E+00 -0.91521719984E+01  0.91521719984E+01  0.00000000000E+00 0.  1.
          5    1    1    2  501    0 -0.23124408954E+01 -0.18177548994E+01 -0.69689301900E+01  0.89054816693E+01  0.47000000000E+01 0.  1.
         -5    1    1    2    0  502  0.23124408954E+01  0.18177548994E+01  0.51106459302E+01  0.75405780676E+01  0.47000000000E+01 0.  1.
<mgrwt>
<rscale>  2 0.55445122E+01</rscale>
<asrwt>0</asrwt>
<pdfrwt beam="1">  1       21 0.11221366E-02 0.55445122E+01</pdfrwt>
<pdfrwt beam="2">  1       21 0.14080265E-02 0.55445122E+01</pdfrwt>
<totfact> 0.15421535E+09</totfact>
</mgrwt>
</event>
<event>
 4    1  0.3858687E+006  0.7098727E+01  0.7546771E-02  0.2291154E+00
         21   -1    0    0  503  502  0.00000000000E+00  0.00000000000E+00  0.16702497710E+02  0.16702497710E+02  0.00000000000E+00 0. -1.
         21   -1    0    0  501  503 -0.00000000000E+00 -0.00000000000E+00 -0.17991360896E+02  0.17991360896E+02  0.00000000000E+00 0. -1.
          5    1    1    2  501    0 -0.45995339244E+01 -0.26732388475E+01 -0.16470182645E+02  0.17934849723E+02  0.47000000000E+01 0. -1.
         -5    1    1    2    0  502  0.45995339244E+01  0.26732388475E+01  0.15181319458E+02  0.16759008883E+02  0.47000000000E+01 0. -1.
<mgrwt>
<rscale>  2 0.70987265E+01</rscale>
<asrwt>0</asrwt>
<pdfrwt beam="1">  1       21 0.25696150E-02 0.70987265E+01</pdfrwt>
<pdfrwt beam="2">  1       21 0.27679017E-02 0.70987265E+01</pdfrwt>
<totfact> 0.21421060E+08</totfact>
</mgrwt>
</event>
<event>
 4    1  0.3858687E+006  0.1109382E+02  0.7546771E-02  0.2017607E+00
         21   -1    0    0  503  502  0.00000000000E+00  0.00000000000E+00  0.60756655228E+02  0.60756655228E+02  0.00000000000E+00 0.  1.
         21   -1    0    0  501  503 -0.00000000000E+00 -0.00000000000E+00 -0.49822664075E+01  0.49822664075E+01  0.00000000000E+00 0. -1.
          5    1    1    2  501    0  0.63699060728E+01  0.77721965321E+01  0.25665146282E+01  0.11386823071E+02  0.47000000000E+01 0. -1.
         -5    1    1    2    0  502 -0.63699060728E+01 -0.77721965321E+01  0.53207874192E+02  0.54352098565E+02  0.47000000000E+01 0.  1.
<mgrwt>
<rscale>  2 0.11093815E+02</rscale>
<asrwt>0</asrwt>
<pdfrwt beam="1">  1       21 0.93471772E-02 0.11093815E+02</pdfrwt>
<pdfrwt beam="2">  1       21 0.76650257E-03 0.11093815E+02</pdfrwt>
<totfact> 0.24953315E+08</totfact>
</mgrwt>
</event>
<event>
 4    1  0.3858687E+006  0.1670700E+02  0.7546771E-02  0.1820047E+00
         21   -1    0    0  503  502  0.00000000000E+00  0.00000000000E+00  0.40447077896E+02  0.40447077896E+02  0.00000000000E+00 0.  1.
         21   -1    0    0  501  503 -0.00000000000E+00 -0.00000000000E+00 -0.76644400196E+01  0.76644400196E+01  0.00000000000E+00 0.  1.
          5    1    1    2  501    0 -0.17471933856E+01 -0.15936782552E+02  0.87989502124E+01  0.18882405770E+02  0.47000000000E+01 0.  1.
         -5    1    1    2    0  502  0.17471933856E+01  0.15936782552E+02  0.23983687664E+02  0.29229112145E+02  0.47000000000E+01 0.  1.
<mgrwt>
<rscale>  2 0.16706996E+02</rscale>
<asrwt>0</asrwt>
<pdfrwt beam="1">  1       21 0.62226272E-02 0.16706996E+02</pdfrwt>
<pdfrwt beam="2">  1       21 0.11791446E-02 0.16706996E+02</pdfrwt>
<totfact> 0.30139083E+08</totfact>
</mgrwt>
</event>
<event>
 4    1  0.3858687E+006  0.4812853E+01  0.7546771E-02  0.2601464E+00
         21   -1    0    0  501  502  0.00000000000E+00  0.00000000000E+00  0.81696978357E+01  0.81696978357E+01  0.00000000000E+00 0. -1.
         21   -1    0    0  502  503 -0.00000000000E+00 -0.00000000000E+00 -0.41144264677E+01  0.41144264677E+01  0.00000000000E+00 0. -1.
          5    1    1    2  501    0 -0.50442286958E+00  0.90504590525E+00  0.54522854791E+01  0.72726176489E+01  0.47000000000E+01 0. -1.
         -5    1    1    2    0  503  0.50442286958E+00 -0.90504590525E+00 -0.13970141111E+01  0.50115066545E+01  0.47000000000E+01 0. -1.
<mgrwt>
<rscale>  2 0.48128526E+01</rscale>
<asrwt>0</asrwt>
<pdfrwt beam="1">  1       21 0.12568766E-02 0.48128526E+01</pdfrwt>
<pdfrwt beam="2">  1       21 0.63298869E-03 0.48128526E+01</pdfrwt>
<totfact> 0.34906955E+09</totfact>
</mgrwt>
</event>
<event>
 4    1  0.3858687E+006  0.5327405E+01  0.7546771E-02  0.2512156E+00
         21   -1    0    0  501  502  0.00000000000E+00  0.00000000000E+00  0.21440977702E+03  0.21440977702E+03  0.00000000000E+00 0.  1.
         21   -1    0    0  502  503 -0.00000000000E+00 -0.00000000000E+00 -0.45269824720E+01  0.45269824720E+01  0.00000000000E+00 0.  1.
          5    1    1    2  501    0 -0.79990998368E+00  0.23772652072E+01  0.21279747337E+03  0.21286414897E+03  0.47000000000E+01 0.  1.
         -5    1    1    2    0  503  0.79990998368E+00 -0.23772652072E+01 -0.29146788231E+01  0.60726105168E+01  0.47000000000E+01 0.  1.
<mgrwt>
<rscale>  2 0.53274052E+01</rscale>
<asrwt>0</asrwt>
<pdfrwt beam="1">  1       21 0.32986112E-01 0.53274052E+01</pdfrwt>
<pdfrwt beam="2">  1       21 0.69645901E-03 0.53274052E+01</pdfrwt>
<totfact> 0.24860642E+07</totfact>
</mgrwt>
</event>
<event>
 4    1  0.3858687E+006  0.5815862E+01  0.7546771E-02  0.2440024E+00
         21   -1    0    0  501  502  0.00000000000E+00  0.00000000000E+00  0.69049277603E+00  0.69049277603E+00  0.00000000000E+00 0. -1.
         21   -1    0    0  502  503 -0.00000000000E+00 -0.00000000000E+00 -0.71973592359E+02  0.71973592359E+02  0.00000000000E+00 0.  1.
          5    1    1    2  501    0 -0.13085495346E+00  0.34230297775E+01 -0.15108520714E+02  0.16189245012E+02  0.47000000000E+01 0. -1.
         -5    1    1    2    0  503  0.13085495346E+00 -0.34230297775E+01 -0.56174578869E+02  0.56474840124E+02  0.47000000000E+01 0.  1.
<mgrwt>
<rscale>  2 0.58158624E+01</rscale>
<asrwt>0</asrwt>
<pdfrwt beam="1">  1       21 0.10622969E-03 0.58158624E+01</pdfrwt>
<pdfrwt beam="2">  1       21 0.11072857E-01 0.58158624E+01</pdfrwt>
<totfact> 0.19853671E+09</totfact>
</mgrwt>
</event>
<event>
 4    1  0.3858687E+006  0.5672448E+01  0.7546771E-02  0.2460110E+00
         21   -1    0    0  503  502  0.00000000000E+00  0.00000000000E+00  0.87736727478E-01  0.87736727478E-01  0.00000000000E+00 0. -1.
         21   -1    0    0  501  503 -0.00000000000E+00 -0.00000000000E+00 -0.55563254042E+03  0.55563254042E+03  0.00000000000E+00 0.  1.
          5    1    1    2  501    0  0.28638811776E+01 -0.13728993080E+01 -0.43978116230E+03  0.43981774337E+03  0.47000000000E+01 0.  1.
         -5    1    1    2    0  502 -0.28638811776E+01  0.13728993080E+01 -0.11576364140E+03  0.11590253379E+03  0.47000000000E+01 0. -1.
<mgrwt>
<rscale>  2 0.56724481E+01</rscale>
<asrwt>0</asrwt>
<pdfrwt beam="1">  1       21 0.13497582E-04 0.56724481E+01</pdfrwt>
<pdfrwt beam="2">  1       21 0.85484310E-01 0.56724481E+01</pdfrwt>
<totfact> 0.93381501E+08</totfact>
</mgrwt>
</event>
<event>
 4    1  0.3858687E+006  0.5458810E+01  0.7546771E-02  0.2491677E+00
         21   -1    0    0  501  502  0.00000000000E+00  0.00000000000E+00  0.53543735489E+01  0.53543735489E+01  0.00000000000E+00 0. -1.
         21   -1    0    0  502  503 -0.00000000000E+00 -0.00000000000E+00 -0.53122332698E+02  0.53122332698E+02  0.00000000000E+00 0. -1.
          5    1    1    2  501    0 -0.27063534787E+01 -0.61988719946E+00  0.37804542212E+01  0.66400635095E+01  0.47000000000E+01 0. -1.
         -5    1    1    2    0  503  0.27063534787E+01  0.61988719946E+00 -0.51548413370E+02  0.51836642737E+02  0.47000000000E+01 0. -1.
<mgrwt>
<rscale>  2 0.54588102E+01</rscale>
<asrwt>0</asrwt>
<pdfrwt beam="1">  1       21 0.82374981E-03 0.54588102E+01</pdfrwt>
<pdfrwt beam="2">  1       21 0.81726663E-02 0.54588102E+01</pdfrwt>
<totfact> 0.18199105E+08</totfact>
</mgrwt>
</event>
<event>
 4    1  0.3858687E+006  0.4707187E+01  0.7546771E-02  0.2621876E+00
         21   -1    0    0  503  502  0.00000000000E+00  0.00000000000E+00  0.14172624196E+00  0.14172624196E+00  0.00000000000E+00 0.  1.
         21   -1    0    0  501  503 -0.00000000000E+00 -0.00000000000E+00 -0.65459457996E+03  0.65459457996E+03  0.00000000000E+00 0.  1.
          5    1    1    2  501    0 -0.20761109069E+00  0.15655498971E+00 -0.61283778352E+03  0.61285586113E+03  0.47000000000E+01 0.  1.
         -5    1    1    2    0  502  0.20761109069E+00 -0.15655498971E+00 -0.41615070201E+02  0.41880445075E+02  0.47000000000E+01 0.  1.
<mgrwt>
<rscale>  2 0.47071873E+01</rscale>
<asrwt>0</asrwt>
<pdfrwt beam="1">  1       21 0.21804273E-04 0.47071873E+01</pdfrwt>
<pdfrwt beam="2">  1       21 0.10070577E+00 0.47071873E+01</pdfrwt>
<totfact> 0.31101088E+08</totfact>
</mgrwt>
</event>
<event>
 4    1  0.3858687E+006  0.1072355E+02  0.7546771E-02  0.2036006E+00
         21   -1    0    0  503  502  0.00000000000E+00  0.00000000000E+00  0.16254020703E+00  0.16254020703E+00  0.00000000000E+00 0.  1.
         21   -1    0    0  501  503 -0.00000000000E+00 -0.00000000000E+00 -0.72473223291E+03  0.72473223291E+03  0.00000000000E+00 0. -1.
          5    1    1    2  501    0 -0.87906752423E+01  0.39533030130E+01 -0.30636962746E+03  0.30655724295E+03  0.47000000000E+01 0.  1.
         -5    1    1    2    0  502  0.87906752423E+01 -0.39533030130E+01 -0.41820006524E+03  0.41833753017E+03  0.47000000000E+01 0. -1.
<mgrwt>
<rscale>  2 0.10723552E+02</rscale>
<asrwt>0</asrwt>
<pdfrwt beam="1">  1       21 0.25005233E-04 0.10723552E+02</pdfrwt>
<pdfrwt beam="2">  1       21 0.11150151E+00 0.10723552E+02</pdfrwt>
<totfact> 0.33787174E+08</totfact>
</mgrwt>
</event>
<event>
 4    1  0.3858687E+006  0.7213466E+01  0.7546771E-02  0.2279997E+00
         21   -1    0    0  501  502  0.00000000000E+00  0.00000000000E+00  0.20635933389E+03  0.20635933389E+03  0.00000000000E+00 0. -1.
         21   -1    0    0  502  503 -0.00000000000E+00 -0.00000000000E+00 -0.35137306537E+00  0.35137306537E+00  0.00000000000E+00 0.  1.
          5    1    1    2  501    0  0.48660368899E+01 -0.25031535971E+01  0.15792629590E+03  0.15809095176E+03  0.47000000000E+01 0. -1.
         -5    1    1    2    0  503 -0.48660368899E+01  0.25031535971E+01  0.48081664921E+02  0.48619755188E+02  0.47000000000E+01 0.  1.
<mgrwt>
<rscale>  2 0.72134661E+01</rscale>
<asrwt>0</asrwt>
<pdfrwt beam="1">  1       21 0.31747493E-01 0.72134661E+01</pdfrwt>
<pdfrwt beam="2">  1       21 0.54057560E-04 0.72134661E+01</pdfrwt>
<totfact> 0.10526571E+09</totfact>
</mgrwt>
</event>
<event>
 4    1  0.3858687E+006  0.7113833E+01  0.7546771E-02  0.2289669E+00
         21   -1    0    0  501  502  0.00000000000E+00  0.00000000000E+00  0.37615055113E+00  0.37615055113E+00  0.00000000000E+00 0. -1.
         21   -1    0    0  502  503 -0.00000000000E+00 -0.00000000000E+00 -0.23168047578E+03  0.23168047578E+03  0.00000000000E+00 0.  1.
          5    1    1    2  501    0 -0.29087753478E+01  0.44783525436E+01 -0.40520428618E+02  0.41140147678E+02  0.47000000000E+01 0. -1.
         -5    1    1    2    0  503  0.29087753478E+01 -0.44783525436E+01 -0.19078389661E+03  0.19091647865E+03  0.47000000000E+01 0.  1.
<mgrwt>
<rscale>  2 0.71138327E+01</rscale>
<asrwt>0</asrwt>
<pdfrwt beam="1">  1       21 0.57869250E-04 0.71138327E+01</pdfrwt>
<pdfrwt beam="2">  1       21 0.35643190E-01 0.71138327E+01</pdfrwt>
<totfact> 0.77887107E+08</totfact>
</mgrwt>
</event>
<event>
 4    1  0.3858687E+006  0.6355280E+01  0.7546771E-02  0.2371356E+00
         21   -1    0    0  501  502  0.00000000000E+00  0.00000000000E+00  0.35678239705E+01  0.35678239705E+01  0.00000000000E+00 0. -1.
         21   -1    0    0  502  503 -0.00000000000E+00 -0.00000000000E+00 -0.60143573751E+02  0.60143573751E+02  0.00000000000E+00 0. -1.
          5    1    1    2  501    0  0.15842616967E+01 -0.39736251475E+01  0.41365472917E+00  0.63687276729E+01  0.47000000000E+01 0. -1.
         -5    1    1    2    0  503 -0.15842616967E+01  0.39736251475E+01 -0.56989404510E+02  0.57342670049E+02  0.47000000000E+01 0. -1.
<mgrwt>
<rscale>  2 0.63552798E+01</rscale>
<asrwt>0</asrwt>
<pdfrwt beam="1">  1       21 0.54889601E-03 0.63552798E+01</pdfrwt>
<pdfrwt beam="2">  1       21 0.92528573E-02 0.63552798E+01</pdfrwt>
<totfact> 0.29620450E+08</totfact>
</mgrwt>
</event>
<event>
 4    1  0.3858687E+006  0.6023745E+01  0.7546771E-02  0.2412343E+00
         21   -1    0    0  503  502  0.00000000000E+00  0.00000000000E+00  0.98763923276E+02  0.98763923276E+02  0.00000000000E+00 0. -1.
         21   -1    0    0  501  503 -0.00000000000E+00 -0.00000000000E+00 -0.18364834871E+01  0.18364834871E+01  0.00000000000E+00 0. -1.
          5    1    1    2  501    0 -0.34806433683E+01  0.14424355354E+01  0.34753751075E+01  0.69544036889E+01  0.47000000000E+01 0. -1.
         -5    1    1    2    0  502  0.34806433683E+01 -0.14424355354E+01  0.93452064681E+02  0.93646003074E+02  0.47000000000E+01 0. -1.
<mgrwt>
<rscale>  2 0.60237446E+01</rscale>
<asrwt>0</asrwt>
<pdfrwt beam="1">  1       21 0.15194446E-01 0.60237446E+01</pdfrwt>
<pdfrwt beam="2">  1       21 0.28253600E-03 0.60237446E+01</pdfrwt>
<totfact> 0.33053919E+08</totfact>
</mgrwt>
</event>
<event>
 4    1  0.3858687E+006  0.5626564E+01  0.7546771E-02  0.2466718E+00
         21   -1    0    0  503  502  0.00000000000E+00  0.00000000000E+00  0.80809462821E+00  0.80809462821E+00  0.00000000000E+00 0. -1.
         21   -1    0    0  501  503 -0.00000000000E+00 -0.00000000000E+00 -0.40046818801E+03  0.40046818801E+03  0.00000000000E+00 0. -1.
          5    1    1    2  501    0 -0.85535732862E+00 -0.29726401772E+01 -0.39040180417E+03  0.39044234777E+03  0.47000000000E+01 0. -1.
         -5    1    1    2    0  502  0.85535732862E+00  0.29726401772E+01 -0.92582892068E+01  0.10833934872E+02  0.47000000000E+01 0. -1.
<mgrwt>
<rscale>  2 0.56265643E+01</rscale>
<asrwt>0</asrwt>
<pdfrwt beam="1">  1       21 0.12432193E-03 0.56265643E+01</pdfrwt>
<pdfrwt beam="2">  1       21 0.61610648E-01 0.56265643E+01</pdfrwt>
<totfact> 0.89764615E+07</totfact>
</mgrwt>
</event>
<event>
 4    1  0.3858687E+006  0.1060956E+02  0.7546771E-02  0.2041871E+00
         21   -1    0    0  503  502  0.00000000000E+00  0.00000000000E+00  0.93425644764E+02  0.93425644764E+02  0.00000000000E+00 0.  1.
         21   -1    0    0  501  503 -0.00000000000E+00 -0.00000000000E+00 -0.26191836057E+01  0.26191836057E+01  0.00000000000E+00 0. -1.
          5    1    1    2  501    0  0.41307300311E+01 -0.85679484749E+01  0.10114263492E+02  0.14658137591E+02  0.47000000000E+01 0. -1.
         -5    1    1    2    0  502 -0.41307300311E+01  0.85679484749E+01  0.80692197666E+02  0.81386690778E+02  0.47000000000E+01 0.  1.
<mgrwt>
<rscale>  2 0.10609556E+02</rscale>
<asrwt>0</asrwt>
<pdfrwt beam="1">  1       21 0.14373174E-01 0.10609556E+02</pdfrwt>
<pdfrwt beam="2">  1       21 0.40295140E-03 0.10609556E+02</pdfrwt>
<totfact> 0.30736967E+08</totfact>
</mgrwt>
</event>
<event>
 4    1  0.3858687E+006  0.5343548E+01  0.7546771E-02  0.2509594E+00
         21   -1    0    0  503  502  0.00000000000E+00  0.00000000000E+00  0.22154968300E+01  0.22154968300E+01  0.00000000000E+00 0. -1.
         21   -1    0    0  501  503 -0.00000000000E+00 -0.00000000000E+00 -0.12994712492E+02  0.12994712492E+02  0.00000000000E+00 0. -1.
          5    1    1    2  501    0  0.11153120142E+01  0.22846420194E+01 -0.60785103231E+01  0.80933180955E+01  0.47000000000E+01 0.  1.
         -5    1    1    2    0  502 -0.11153120142E+01 -0.22846420194E+01 -0.47007053385E+01  0.71168912262E+01  0.47000000000E+01 0.  1.
<mgrwt>
<rscale>  2 0.53435485E+01</rscale>
<asrwt>0</asrwt>
<pdfrwt beam="1">  1       21 0.34084566E-03 0.53435485E+01</pdfrwt>
<pdfrwt beam="2">  1       21 0.19991866E-02 0.53435485E+01</pdfrwt>
<totfact> 0.47282584E+09</totfact>
</mgrwt>
</event>
<event>
 4    1  0.3858687E+006  0.4833801E+01  0.7546771E-02  0.2597510E+00
         21   -1    0    0  503  502  0.00000000000E+00  0.00000000000E+00  0.10317223227E+03  0.10317223227E+03  0.00000000000E+00 0.  1.
         21   -1    0    0  501  503 -0.00000000000E+00 -0.00000000000E+00 -0.42179511198E+00  0.42179511198E+00  0.00000000000E+00 0.  1.
          5    1    1    2  501    0  0.11199600310E+01 -0.14602337213E+00  0.16127529910E+02  0.16836355137E+02  0.47000000000E+01 0.  1.
         -5    1    1    2    0  502 -0.11199600310E+01  0.14602337213E+00  0.86622907251E+02  0.86757672248E+02  0.47000000000E+01 0.  1.
<mgrwt>
<rscale>  2 0.48338011E+01</rscale>
<asrwt>0</asrwt>
<pdfrwt beam="1">  1       21 0.15872631E-01 0.48338011E+01</pdfrwt>
<pdfrwt beam="2">  1       21 0.64891638E-04 0.48338011E+01</pdfrwt>
<totfact> 0.18522135E+09</totfact>
</mgrwt>
</event>
<event>
 4    1  0.3858687E+006  0.5726780E+01  0.7546771E-02  0.2452400E+00
         21   -1    0    0  501  502  0.00000000000E+00  0.00000000000E+00  0.66505945900E+00  0.66505945900E+00  0.00000000000E+00 0. -1.
         21   -1    0    0  502  503 -0.00000000000E+00 -0.00000000000E+00 -0.27766573216E+03  0.27766573216E+03  0.00000000000E+00 0. -1.
          5    1    1    2  501    0  0.31875551862E+01  0.73858298195E+00 -0.12296279814E+02  0.13564457606E+02  0.47000000000E+01 0. -1.
         -5    1    1    2    0  503 -0.31875551862E+01 -0.73858298195E+00 -0.26470439288E+03  0.26476633401E+03  0.47000000000E+01 0. -1.
<mgrwt>
<rscale>  2 0.57267803E+01</rscale>
<asrwt>0</asrwt>
<pdfrwt beam="1">  1       21 0.10231686E-03 0.57267803E+01</pdfrwt>
<pdfrwt beam="2">  1       21 0.42717795E-01 0.57267803E+01</pdfrwt>
<totfact> 0.22812640E+08</totfact>
</mgrwt>
</event>
<event>
 4    1  0.3858687E+006  0.5080536E+01  0.7546771E-02  0.2553062E+00
         21   -1    0    0  503  502  0.00000000000E+00  0.00000000000E+00  0.13220087753E+00  0.13220087753E+00  0.00000000000E+00 0.  1.
         21   -1    0    0  501  503 -0.00000000000E+00 -0.00000000000E+00 -0.36839702279E+03  0.36839702279E+03  0.00000000000E+00 0.  1.
          5    1    1    2  501    0  0.54487277399E+00 -0.18506656624E+01 -0.57805778212E+02  0.58028612291E+02  0.47000000000E+01 0.  1.
         -5    1    1    2    0  502 -0.54487277399E+00  0.18506656624E+01 -0.31045904370E+03  0.31050061138E+03  0.47000000000E+01 0.  1.
<mgrwt>
<rscale>  2 0.50805364E+01</rscale>
<asrwt>0</asrwt>
<pdfrwt beam="1">  1       21 0.20338495E-04 0.50805364E+01</pdfrwt>
<pdfrwt beam="2">  1       21 0.56676749E-01 0.50805364E+01</pdfrwt>
<totfact> 0.10794372E+09</totfact>
</mgrwt>
</event>
<event>
 4    1  0.3858687E+006  0.9229458E+01  0.7546771E-02  0.2121689E+00
         21   -1    0    0  501  502  0.00000000000E+00  0.00000000000E+00  0.25884667324E+02  0.25884667324E+02  0.00000000000E+00 0.  1.
         21   -1    0    0  502  503 -0.00000000000E+00 -0.00000000000E+00 -0.15285092880E+02  0.15285092880E+02  0.00000000000E+00 0. -1.
          5    1    1    2  501    0  0.42795617399E+01 -0.66916550154E+01  0.23534565365E+02  0.25279609618E+02  0.47000000000E+01 0.  1.
         -5    1    1    2    0  503 -0.42795617399E+01  0.66916550154E+01 -0.12934990921E+02  0.15890150586E+02  0.47000000000E+01 0. -1.
<mgrwt>
<rscale>  2 0.92294580E+01</rscale>
<asrwt>0</asrwt>
<pdfrwt beam="1">  1       21 0.39822565E-02 0.92294580E+01</pdfrwt>
<pdfrwt beam="2">  1       21 0.23515528E-02 0.92294580E+01</pdfrwt>
<totfact> 0.16529154E+08</totfact>
</mgrwt>
</event>
<event>
 4    1  0.3858687E+006  0.4831013E+01  0.7546771E-02  0.2598034E+00
         21   -1    0    0  501  502  0.00000000000E+00  0.00000000000E+00  0.38418204829E+00  0.38418204829E+00  0.00000000000E+00 0. -1.
         21   -1    0    0  502  503 -0.00000000000E+00 -0.00000000000E+00 -0.66325709045E+02  0.66325709045E+02  0.00000000000E+00 0. -1.
          5    1    1    2  501    0  0.66519428915E+00 -0.89788858610E+00 -0.23298969189E+02  0.23794550902E+02  0.47000000000E+01 0. -1.
         -5    1    1    2    0  503 -0.66519428915E+00  0.89788858610E+00 -0.42642557807E+02  0.42915340191E+02  0.47000000000E+01 0. -1.
<mgrwt>
<rscale>  2 0.48310131E+01</rscale>
<asrwt>0</asrwt>
<pdfrwt beam="1">  1       21 0.59104956E-04 0.48310131E+01</pdfrwt>
<pdfrwt beam="2">  1       21 0.10203951E-01 0.48310131E+01</pdfrwt>
<totfact> 0.41214853E+09</totfact>
</mgrwt>
</event>
<event>
 4    1  0.3858687E+006  0.5950831E+01  0.7546771E-02  0.2421867E+00
         21   -1    0    0  501  502  0.00000000000E+00  0.00000000000E+00  0.13036996153E+02  0.13036996153E+02  0.00000000000E+00 0.  1.
         21   -1    0    0  502  503 -0.00000000000E+00 -0.00000000000E+00 -0.27209843069E+01  0.27209843069E+01  0.00000000000E+00 0. -1.
          5    1    1    2  501    0  0.57576322815E+00 -0.36042878383E+01  0.48310983376E+01  0.76649791431E+01  0.47000000000E+01 0. -1.
         -5    1    1    2    0  503 -0.57576322815E+00  0.36042878383E+01  0.54849135083E+01  0.80930013165E+01  0.47000000000E+01 0. -1.
<mgrwt>
<rscale>  2 0.59508314E+01</rscale>
<asrwt>0</asrwt>
<pdfrwt beam="1">  1       21 0.20056917E-02 0.59508314E+01</pdfrwt>
<pdfrwt beam="2">  1       21 0.41861298E-03 0.59508314E+01</pdfrwt>
<totfact> 0.39276945E+09</totfact>
</mgrwt>
</event>
<event>
 4    1  0.3858687E+006  0.5342756E+01  0.7546771E-02  0.2509719E+00
         21   -1    0    0  501  502  0.00000000000E+00  0.00000000000E+00  0.22784099124E+01  0.22784099124E+01  0.00000000000E+00 0. -1.
         21   -1    0    0  502  503 -0.00000000000E+00 -0.00000000000E+00 -0.82964761420E+02  0.82964761420E+02  0.00000000000E+00 0. -1.
          5    1    1    2  501    0 -0.25406640218E+01 -0.85337603027E-02 -0.10713643694E+01  0.54491162686E+01  0.47000000000E+01 0. -1.
         -5    1    1    2    0  503  0.25406640218E+01  0.85337603027E-02 -0.79614987138E+02  0.79794055064E+02  0.47000000000E+01 0. -1.
<mgrwt>
<rscale>  2 0.53427565E+01</rscale>
<asrwt>0</asrwt>
<pdfrwt beam="1">  1       21 0.35052457E-03 0.53427565E+01</pdfrwt>
<pdfrwt beam="2">  1       21 0.12763811E-01 0.53427565E+01</pdfrwt>
<totfact> 0.29544671E+08</totfact>
</mgrwt>
</event>
<event>
 4    1  0.3858687E+006  0.5566690E+01  0.7546771E-02  0.2475480E+00
         21   -1    0    0  501  502  0.00000000000E+00  0.00000000000E+00  0.28863605100E+01  0.28863605100E+01  0.00000000000E+00 0. -1.
         21   -1    0    0  502  503 -0.00000000000E+00 -0.00000000000E+00 -0.12217421510E+02  0.12217421510E+02  0.00000000000E+00 0. -1.
          5    1    1    2  501    0  0.21360135364E+01  0.20821832763E+01 -0.72952018202E+01  0.91764922831E+01  0.47000000000E+01 0. -1.
         -5    1    1    2    0  503 -0.21360135364E+01 -0.20821832763E+01 -0.20358591795E+01  0.59272897367E+01  0.47000000000E+01 0. -1.
<mgrwt>
<rscale>  2 0.55666903E+01</rscale>
<asrwt>0</asrwt>
<pdfrwt beam="1">  1       21 0.44405546E-03 0.55666903E+01</pdfrwt>
<pdfrwt beam="2">  1       21 0.18796033E-02 0.55666903E+01</pdfrwt>
<totfact> 0.37358549E+09</totfact>
</mgrwt>
</event>
<event>
 4    1  0.3858687E+006  0.6533187E+01  0.7546771E-02  0.2350797E+00
         21   -1    0    0  503  502  0.00000000000E+00  0.00000000000E+00  0.50387528399E+00  0.50387528399E+00  0.00000000000E+00 0. -1.
         21   -1    0    0  501  503 -0.00000000000E+00 -0.00000000000E+00 -0.10918978409E+03  0.10918978409E+03  0.00000000000E+00 0.  1.
          5    1    1    2  501    0 -0.47706928116E+00 -0.45127534095E+01 -0.28372635122E+02  0.29115098526E+02  0.47000000000E+01 0. -1.
         -5    1    1    2    0  502  0.47706928116E+00  0.45127534095E+01 -0.80313273685E+02  0.80578560849E+02  0.47000000000E+01 0.  1.
<mgrwt>
<rscale>  2 0.65331875E+01</rscale>
<asrwt>0</asrwt>
<pdfrwt beam="1">  1       21 0.77519114E-04 0.65331875E+01</pdfrwt>
<pdfrwt beam="2">  1       21 0.16798463E-01 0.65331875E+01</pdfrwt>
<totfact> 0.17313852E+09</totfact>
</mgrwt>
</event>
<event>
 4    1  0.3858687E+006  0.5054294E+01  0.7546771E-02  0.2557611E+00
         21   -1    0    0  503  502  0.00000000000E+00  0.00000000000E+00  0.73989253327E+00  0.73989253327E+00  0.00000000000E+00 0. -1.
         21   -1    0    0  501  503 -0.00000000000E+00 -0.00000000000E+00 -0.68112913790E+03  0.68112913790E+03  0.00000000000E+00 0. -1.
          5    1    1    2  501    0 -0.12332820136E+01 -0.13910062660E+01 -0.67237577253E+03  0.67239476899E+03  0.47000000000E+01 0. -1.
         -5    1    1    2    0  502  0.12332820136E+01  0.13910062660E+01 -0.80134728406E+01  0.94742614448E+01  0.47000000000E+01 0. -1.
<mgrwt>
<rscale>  2 0.50542935E+01</rscale>
<asrwt>0</asrwt>
<pdfrwt beam="1">  1       21 0.11382911E-03 0.50542935E+01</pdfrwt>
<pdfrwt beam="2">  1       21 0.10478957E+00 0.50542935E+01</pdfrwt>
<totfact> 0.33872106E+07</totfact>
</mgrwt>
</event>
<event>
 4    1  0.3858687E+006  0.5929633E+01  0.7546771E-02  0.2424673E+00
         21   -1    0    0  501  502  0.00000000000E+00  0.00000000000E+00  0.29209840899E+01  0.29209840899E+01  0.00000000000E+00 0.  1.
         21   -1    0    0  502  503 -0.00000000000E+00 -0.00000000000E+00 -0.52528781737E+02  0.52528781737E+02  0.00000000000E+00 0. -1.
          5    1    1    2  501    0 -0.12274937267E+01  0.34005603211E+01 -0.46206588123E+00  0.59476092865E+01  0.47000000000E+01 0.  1.
         -5    1    1    2    0  503  0.12274937267E+01 -0.34005603211E+01 -0.49145731765E+02  0.49502156540E+02  0.47000000000E+01 0. -1.
<mgrwt>
<rscale>  2 0.59296333E+01</rscale>
<asrwt>0</asrwt>
<pdfrwt beam="1">  1       21 0.44938219E-03 0.59296333E+01</pdfrwt>
<pdfrwt beam="2">  1       21 0.80813506E-02 0.59296333E+01</pdfrwt>
<totfact> 0.45718882E+08</totfact>
</mgrwt>
</event>
<event>
 4    1  0.3858687E+006  0.7483202E+01  0.7546771E-02  0.2254872E+00
         21   -1    0    0  503  502  0.00000000000E+00  0.00000000000E+00  0.10790520606E+02  0.10790520606E+02  0.00000000000E+00 0. -1.
         21   -1    0    0  501  503 -0.00000000000E+00 -0.00000000000E+00 -0.11612361822E+02  0.11612361822E+02  0.00000000000E+00 0.  1.
          5    1    1    2  501    0  0.21618035227E+00 -0.58190695905E+01 -0.87414979301E+01  0.11507045273E+02  0.47000000000E+01 0.  1.
         -5    1    1    2    0  502 -0.21618035227E+00  0.58190695905E+01  0.79196567138E+01  0.10895837155E+02  0.47000000000E+01 0. -1.
<mgrwt>
<rscale>  2 0.74832015E+01</rscale>
<asrwt>0</asrwt>
<pdfrwt beam="1">  1       21 0.16600801E-02 0.74832015E+01</pdfrwt>
<pdfrwt beam="2">  1       21 0.17865172E-02 0.74832015E+01</pdfrwt>
<totfact> 0.79359968E+08</totfact>
</mgrwt>
</event>
<event>
 4    1  0.3858687E+006  0.5208750E+01  0.7546771E-02  0.2531403E+00
         21   -1    0    0  501  502  0.00000000000E+00  0.00000000000E+00  0.24290994100E+02  0.24290994100E+02  0.00000000000E+00 0.  1.
         21   -1    0    0  502  503 -0.00000000000E+00 -0.00000000000E+00 -0.19963768079E+01  0.19963768079E+01  0.00000000000E+00 0.  1.
          5    1    1    2  501    0  0.18863126337E+01  0.12177447856E+01  0.19871061517E+02  0.20542399166E+02  0.47000000000E+01 0.  1.
         -5    1    1    2    0  503 -0.18863126337E+01 -0.12177447856E+01  0.24235557758E+01  0.57449717417E+01  0.47000000000E+01 0.  1.
<mgrwt>
<rscale>  2 0.52087501E+01</rscale>
<asrwt>0</asrwt>
<pdfrwt beam="1">  1       21 0.37370758E-02 0.52087501E+01</pdfrwt>
<pdfrwt beam="2">  1       21 0.30713491E-03 0.52087501E+01</pdfrwt>
<totfact> 0.21628189E+09</totfact>
</mgrwt>
</event>
<event>
 4    1  0.3858687E+006  0.6219304E+01  0.7546771E-02  0.2387726E+00
         21   -1    0    0  503  502  0.00000000000E+00  0.00000000000E+00  0.33401876971E+00  0.33401876971E+00  0.00000000000E+00 0. -1.
         21   -1    0    0  501  503 -0.00000000000E+00 -0.00000000000E+00 -0.13786128764E+03  0.13786128764E+03  0.00000000000E+00 0.  1.
          5    1    1    2  501    0  0.31675527093E+01  0.25605364761E+01 -0.96404194815E+02  0.96604598830E+02  0.47000000000E+01 0.  1.
         -5    1    1    2    0  502 -0.31675527093E+01 -0.25605364761E+01 -0.41123074059E+02  0.41590707583E+02  0.47000000000E+01 0. -1.
<mgrwt>
<rscale>  2 0.62193036E+01</rscale>
<asrwt>0</asrwt>
<pdfrwt beam="1">  1       21 0.51387554E-04 0.62193036E+01</pdfrwt>
<pdfrwt beam="2">  1       21 0.21209408E-01 0.62193036E+01</pdfrwt>
<totfact> 0.19857797E+09</totfact>
</mgrwt>
</event>
<event>
 4    1  0.3858687E+006  0.5724083E+01  0.7546771E-02  0.2452780E+00
         21   -1    0    0  503  502  0.00000000000E+00  0.00000000000E+00  0.19620721418E+00  0.19620721418E+00  0.00000000000E+00 0. -1.
         21   -1    0    0  501  503 -0.00000000000E+00 -0.00000000000E+00 -0.30477093201E+03  0.30477093201E+03  0.00000000000E+00 0. -1.
          5    1    1    2  501    0 -0.10293340354E+00 -0.32656592605E+01 -0.25481169668E+03  0.25487598139E+03  0.47000000000E+01 0. -1.
         -5    1    1    2    0  502  0.10293340354E+00  0.32656592605E+01 -0.49763028113E+02  0.50091157829E+02  0.47000000000E+01 0. -1.
<mgrwt>
<rscale>  2 0.57240830E+01</rscale>
<asrwt>0</asrwt>
<pdfrwt beam="1">  1       21 0.30185592E-04 0.57240830E+01</pdfrwt>
<pdfrwt beam="2">  1       21 0.46888042E-01 0.57240830E+01</pdfrwt>
<totfact> 0.98705662E+08</totfact>
</mgrwt>
</event>
<event>
 4    1  0.3858687E+006  0.4972612E+01  0.7546771E-02  0.2572035E+00
         21   -1    0    0  503  502  0.00000000000E+00  0.00000000000E+00  0.34718107301E+03  0.34718107301E+03  0.00000000000E+00 0.  1.
         21   -1    0    0  501  503 -0.00000000000E+00 -0.00000000000E+00 -0.75000932018E-01  0.75000932018E-01  0.00000000000E+00 0.  1.
          5    1    1    2  501    0 -0.14085230769E+01 -0.80803989293E+00  0.13457842717E+03  0.13467026370E+03  0.47000000000E+01 0.  1.
         -5    1    1    2    0  502  0.14085230769E+01  0.80803989293E+00  0.21252764491E+03  0.21258581025E+03  0.47000000000E+01 0.  1.
<mgrwt>
<rscale>  2 0.49726116E+01</rscale>
<asrwt>0</asrwt>
<pdfrwt beam="1">  1       21 0.53411186E-01 0.49726116E+01</pdfrwt>
<pdfrwt beam="2">  1       21 0.11538883E-04 0.49726116E+01</pdfrwt>
<totfact> 0.24973442E+09</totfact>
</mgrwt>
</event>
<event>
 4    1  0.3858687E+006  0.5240248E+01  0.7546771E-02  0.2526221E+00
         21   -1    0    0  503  502  0.00000000000E+00  0.00000000000E+00  0.34980248509E+01  0.34980248509E+01  0.00000000000E+00 0. -1.
         21   -1    0    0  501  503 -0.00000000000E+00 -0.00000000000E+00 -0.84798930464E+01  0.84798930464E+01  0.00000000000E+00 0.  1.
          5    1    1    2  501    0 -0.14741459400E+01  0.17880412900E+01 -0.41229345693E+01  0.66677422993E+01  0.47000000000E+01 0.  1.
         -5    1    1    2    0  502  0.14741459400E+01 -0.17880412900E+01 -0.85893362617E+00  0.53101755980E+01  0.47000000000E+01 0. -1.
<mgrwt>
<rscale>  2 0.52402479E+01</rscale>
<asrwt>0</asrwt>
<pdfrwt beam="1">  1       21 0.53815767E-03 0.52402479E+01</pdfrwt>
<pdfrwt beam="2">  1       21 0.13045989E-02 0.52402479E+01</pdfrwt>
<totfact> 0.45295448E+09</totfact>
</mgrwt>
</event>
<event>
 4    1  0.3858687E+006  0.6177954E+01  0.7546771E-02  0.2392822E+00
         21   -1    0    0  503  502  0.00000000000E+00  0.00000000000E+00  0.84694316511E+00  0.84694316511E+00  0.00000000000E+00 0. -1.
         21   -1    0    0  501  503 -0.00000000000E+00 -0.00000000000E+00 -0.53159875727E+02  0.53159875727E+02  0.00000000000E+00 0.  1.
          5    1    1    2  501    0  0.30445709126E+01  0.26091584289E+01 -0.36694111216E+02  0.37210548473E+02  0.47000000000E+01 0.  1.
         -5    1    1    2    0  502 -0.30445709126E+01 -0.26091584289E+01 -0.15618821346E+02  0.16796270419E+02  0.47000000000E+01 0. -1.
<mgrwt>
<rscale>  2 0.61779543E+01</rscale>
<asrwt>0</asrwt>
<pdfrwt beam="1">  1       21 0.13029890E-03 0.61779543E+01</pdfrwt>
<pdfrwt beam="2">  1       21 0.81784452E-02 0.61779543E+01</pdfrwt>
<totfact> 0.25226180E+09</totfact>
</mgrwt>
</event>
<event>
 4    1  0.3858687E+006  0.5266713E+01  0.7546771E-02  0.2521908E+00
         21   -1    0    0  501  502  0.00000000000E+00  0.00000000000E+00  0.76507478977E-01  0.76507478977E-01  0.00000000000E+00 0.  1.
         21   -1    0    0  502  503 -0.00000000000E+00 -0.00000000000E+00 -0.39375429559E+03  0.39375429559E+03  0.00000000000E+00 0.  1.
          5    1    1    2  501    0  0.23579742197E+01 -0.29701980882E+00 -0.14141068293E+03  0.14150872591E+03  0.47000000000E+01 0.  1.
         -5    1    1    2    0  503 -0.23579742197E+01  0.29701980882E+00 -0.25226710518E+03  0.25232207716E+03  0.47000000000E+01 0.  1.
<mgrwt>
<rscale>  2 0.52667127E+01</rscale>
<asrwt>0</asrwt>
<pdfrwt beam="1">  1       21 0.11770488E-04 0.52667127E+01</pdfrwt>
<pdfrwt beam="2">  1       21 0.60577037E-01 0.52667127E+01</pdfrwt>
<totfact> 0.20323288E+09</totfact>
</mgrwt>
</event>
<event>
 4    1  0.3858687E+006  0.4922864E+01  0.7546771E-02  0.2581022E+00
         21   -1    0    0  503  502  0.00000000000E+00  0.00000000000E+00  0.60709029966E+03  0.60709029966E+03  0.00000000000E+00 0.  1.
         21   -1    0    0  501  503 -0.00000000000E+00 -0.00000000000E+00 -0.10288291192E+00  0.10288291192E+00  0.00000000000E+00 0.  1.
          5    1    1    2  501    0  0.77660249070E-01 -0.14623800523E+01  0.65990066784E+02  0.66173435007E+02  0.47000000000E+01 0.  1.
         -5    1    1    2    0  502 -0.77660249070E-01  0.14623800523E+01  0.54099734997E+03  0.54101974757E+03  0.47000000000E+01 0.  1.
<mgrwt>
<rscale>  2 0.49228637E+01</rscale>
<asrwt>0</asrwt>
<pdfrwt beam="1">  1       21 0.93395639E-01 0.49228637E+01</pdfrwt>
<pdfrwt beam="2">  1       21 0.15828626E-04 0.49228637E+01</pdfrwt>
<totfact> 0.57111872E+08</totfact>
</mgrwt>
</event>
<event>
 4    1  0.3858687E+006  0.6851060E+01  0.7546771E-02  0.2316276E+00
         21   -1    0    0  501  502  0.00000000000E+00  0.00000000000E+00  0.75461002382E-01  0.75461002382E-01  0.00000000000E+00 0.  1.
         21   -1    0    0  502  503 -0.00000000000E+00 -0.00000000000E+00 -0.68850859224E+03  0.68850859224E+03  0.00000000000E+00 0. -1.
          5    1    1    2  501    0 -0.49342794277E+01  0.70703989110E+00 -0.23721275483E+03  0.23731166864E+03  0.47000000000E+01 0.  1.
         -5    1    1    2    0  503  0.49342794277E+01 -0.70703989110E+00 -0.45122037641E+03  0.45127238460E+03  0.47000000000E+01 0. -1.
<mgrwt>
<rscale>  2 0.68510597E+01</rscale>
<asrwt>0</asrwt>
<pdfrwt beam="1">  1       21 0.11610053E-04 0.68510597E+01</pdfrwt>
<pdfrwt beam="2">  1       21 0.10591830E+00 0.68510597E+01</pdfrwt>
<totfact> 0.84118949E+08</totfact>
</mgrwt>
</event>
<event>
 4    1  0.3858687E+006  0.4777059E+01  0.7546771E-02  0.2608291E+00
         21   -1    0    0  503  502  0.00000000000E+00  0.00000000000E+00  0.57596480427E+01  0.57596480427E+01  0.00000000000E+00 0.  1.
         21   -1    0    0  501  503 -0.00000000000E+00 -0.00000000000E+00 -0.17187578578E+02  0.17187578578E+02  0.00000000000E+00 0.  1.
          5    1    1    2  501    0 -0.38590614184E+00  0.76247612967E+00 -0.15778613069E+02  0.16485900757E+02  0.47000000000E+01 0.  1.
         -5    1    1    2    0  502  0.38590614184E+00 -0.76247612967E+00  0.43506825340E+01  0.64613258632E+01  0.47000000000E+01 0.  1.
<mgrwt>
<rscale>  2 0.47770591E+01</rscale>
<asrwt>0</asrwt>
<pdfrwt beam="1">  1       21 0.88609970E-03 0.47770591E+01</pdfrwt>
<pdfrwt beam="2">  1       21 0.26442428E-02 0.47770591E+01</pdfrwt>
<totfact> 0.76234006E+08</totfact>
</mgrwt>
</event>
<event>
 4    1  0.3858687E+006  0.4974718E+01  0.7546771E-02  0.2571658E+00
         21   -1    0    0  501  502  0.00000000000E+00  0.00000000000E+00  0.83922080151E+01  0.83922080151E+01  0.00000000000E+00 0. -1.
         21   -1    0    0  502  503 -0.00000000000E+00 -0.00000000000E+00 -0.55261471130E+01  0.55261471130E+01  0.00000000000E+00 0.  1.
          5    1    1    2  501    0 -0.11254017654E+01  0.11795279823E+01  0.61855552794E+01  0.79378151596E+01  0.47000000000E+01 0. -1.
         -5    1    1    2    0  503  0.11254017654E+01 -0.11795279823E+01 -0.33194943773E+01  0.59805399685E+01  0.47000000000E+01 0.  1.
<mgrwt>
<rscale>  2 0.49747176E+01</rscale>
<asrwt>0</asrwt>
<pdfrwt beam="1">  1       21 0.12911089E-02 0.49747176E+01</pdfrwt>
<pdfrwt beam="2">  1       21 0.85017648E-03 0.49747176E+01</pdfrwt>
<totfact> 0.23138864E+09</totfact>
</mgrwt>
</event>
<event>
 4    1  0.3858687E+006  0.4943381E+01  0.7546771E-02  0.2577297E+00
         21   -1    0    0  503  502  0.00000000000E+00  0.00000000000E+00  0.67152390356E+03  0.67152390356E+03  0.00000000000E+00 0. -1.
         21   -1    0    0  501  503 -0.00000000000E+00 -0.00000000000E+00 -0.37469251882E-01  0.37469251882E-01  0.00000000000E+00 0. -1.
          5    1    1    2  501    0 -0.41498058710E+00 -0.14747212380E+01  0.27876581252E+03  0.27880963979E+03  0.47000000000E+01 0. -1.
         -5    1    1    2    0  502  0.41498058710E+00  0.14747212380E+01  0.39272062179E+03  0.39275173302E+03  0.47000000000E+01 0. -1.
<mgrwt>
<rscale>  2 0.49433806E+01</rscale>
<asrwt>0</asrwt>
<pdfrwt beam="1">  1       21 0.10330173E+00 0.49433806E+01</pdfrwt>
<pdfrwt beam="2">  1       21 0.57650381E-05 0.49433806E+01</pdfrwt>
<totfact> 0.17943528E+09</totfact>
</mgrwt>
</event>
<event>
 4    1  0.3858687E+006  0.5403429E+01  0.7546771E-02  0.2500204E+00
         21   -1    0    0  503  502  0.00000000000E+00  0.00000000000E+00  0.58159744922E+00  0.58159744922E+00  0.00000000000E+00 0.  1.
         21   -1    0    0  501  503 -0.00000000000E+00 -0.00000000000E+00 -0.51483666789E+02  0.51483666789E+02  0.00000000000E+00 0.  1.
          5    1    1    2  501    0  0.17472368887E+01 -0.20135061828E+01 -0.21342740214E+02  0.22016121451E+02  0.47000000000E+01 0.  1.
         -5    1    1    2    0  502 -0.17472368887E+01  0.20135061828E+01 -0.29559329126E+02  0.30049142787E+02  0.47000000000E+01 0.  1.
<mgrwt>
<rscale>  2 0.54034289E+01</rscale>
<asrwt>0</asrwt>
<pdfrwt beam="1">  1       21 0.89476511E-04 0.54034289E+01</pdfrwt>
<pdfrwt beam="2">  1       21 0.79205659E-02 0.54034289E+01</pdfrwt>
<totfact> 0.38940834E+09</totfact>
</mgrwt>
</event>
<event>
 4    1  0.3858687E+006  0.4973981E+01  0.7546771E-02  0.2571790E+00
         21   -1    0    0  501  502  0.00000000000E+00  0.00000000000E+00  0.47809392286E+02  0.47809392286E+02  0.00000000000E+00 0. -1.
         21   -1    0    0  502  503 -0.00000000000E+00 -0.00000000000E+00 -0.62224107289E+00  0.62224107289E+00  0.00000000000E+00 0. -1.
          5    1    1    2  501    0 -0.50412107827E+00  0.15480154418E+01  0.33529677640E+02  0.33896604144E+02  0.47000000000E+01 0. -1.
         -5    1    1    2    0  503  0.50412107827E+00 -0.15480154418E+01  0.13657473573E+02  0.14535029214E+02  0.47000000000E+01 0. -1.
<mgrwt>
<rscale>  2 0.49739813E+01</rscale>
<asrwt>0</asrwt>
<pdfrwt beam="1">  1       21 0.73552883E-02 0.49739813E+01</pdfrwt>
<pdfrwt beam="2">  1       21 0.95729433E-04 0.49739813E+01</pdfrwt>
<totfact> 0.36617870E+09</totfact>
</mgrwt>
</event>
<event>
 4    1  0.3858687E+006  0.4969763E+01  0.7546771E-02  0.2572546E+00
         21   -1    0    0  501  502  0.00000000000E+00  0.00000000000E+00  0.15252157052E+02  0.15252157052E+02  0.00000000000E+00 0. -1.
         21   -1    0    0  502  503 -0.00000000000E+00 -0.00000000000E+00 -0.17004984517E+01  0.17004984517E+01  0.00000000000E+00 0. -1.
          5    1    1    2  501    0 -0.11278273313E+01 -0.11560903659E+01  0.49241449751E+01  0.69961234380E+01  0.47000000000E+01 0. -1.
         -5    1    1    2    0  503  0.11278273313E+01  0.11560903659E+01  0.86275136255E+01  0.99565320660E+01  0.47000000000E+01 0. -1.
<mgrwt>
<rscale>  2 0.49697625E+01</rscale>
<asrwt>0</asrwt>
<pdfrwt beam="1">  1       21 0.23464856E-02 0.49697625E+01</pdfrwt>
<pdfrwt beam="2">  1       21 0.26161516E-03 0.49697625E+01</pdfrwt>
<totfact> 0.50026103E+09</totfact>
</mgrwt>
</event>
<event>
 4    1  0.3858687E+006  0.5754466E+01  0.7546771E-02  0.2448519E+00
         21   -1    0    0  503  502  0.00000000000E+00  0.00000000000E+00  0.10453486516E+04  0.10453486516E+04  0.00000000000E+00 0.  1.
         21   -1    0    0  501  503 -0.00000000000E+00 -0.00000000000E+00 -0.31811662568E-01  0.31811662568E-01  0.00000000000E+00 0. -1.
          5    1    1    2  501    0 -0.30738150499E+01 -0.12552040402E+01  0.48869527271E+03  0.48872915142E+03  0.47000000000E+01 0. -1.
         -5    1    1    2    0  502  0.30738150499E+01  0.12552040402E+01  0.55662156727E+03  0.55665131189E+03  0.47000000000E+01 0.  1.
<mgrwt>
<rscale>  2 0.57544658E+01</rscale>
<asrwt>0</asrwt>
<pdfrwt beam="1">  1       21 0.16079536E+00 0.57544658E+01</pdfrwt>
<pdfrwt beam="2">  1       21 0.48949392E-05 0.57544658E+01</pdfrwt>
<totfact> 0.99185725E+08</totfact>
</mgrwt>
</event>
<event>
 4    1  0.3858687E+006  0.5743764E+01  0.7546771E-02  0.2450016E+00
         21   -1    0    0  501  502  0.00000000000E+00  0.00000000000E+00  0.15442277777E+02  0.15442277777E+02  0.00000000000E+00 0. -1.
         21   -1    0    0  502  503 -0.00000000000E+00 -0.00000000000E+00 -0.37584919356E+01  0.37584919356E+01  0.00000000000E+00 0. -1.
          5    1    1    2  501    0  0.18075151162E+01 -0.27629174013E+01  0.12148852882E+02  0.13438208579E+02  0.47000000000E+01 0. -1.
         -5    1    1    2    0  503 -0.18075151162E+01  0.27629174013E+01 -0.46506704106E+00  0.57625611332E+01  0.47000000000E+01 0. -1.
<mgrwt>
<rscale>  2 0.57437639E+01</rscale>
<asrwt>0</asrwt>
<pdfrwt beam="1">  1       21 0.23757350E-02 0.57437639E+01</pdfrwt>
<pdfrwt beam="2">  1       21 0.57822954E-03 0.57437639E+01</pdfrwt>
<totfact> 0.19063967E+09</totfact>
</mgrwt>
</event>
<event>
 4    1  0.3858687E+006  0.4981488E+01  0.7546771E-02  0.2570448E+00
         21   -1    0    0  503  502  0.00000000000E+00  0.00000000000E+00  0.16388226551E+01  0.16388226551E+01  0.00000000000E+00 0.  1.
         21   -1    0    0  501  503 -0.00000000000E+00 -0.00000000000E+00 -0.16315672218E+02  0.16315672218E+02  0.00000000000E+00 0.  1.
          5    1    1    2  501    0  0.13791104046E+01  0.90734516783E+00 -0.97460846917E+01  0.10945382021E+02  0.47000000000E+01 0.  1.
         -5    1    1    2    0  502 -0.13791104046E+01 -0.90734516783E+00 -0.49307648708E+01  0.70091128521E+01  0.47000000000E+01 0.  1.
<mgrwt>
<rscale>  2 0.49814878E+01</rscale>
<asrwt>0</asrwt>
<pdfrwt beam="1">  1       21 0.25212657E-03 0.49814878E+01</pdfrwt>
<pdfrwt beam="2">  1       21 0.25101034E-02 0.49814878E+01</pdfrwt>
<totfact> 0.47892048E+09</totfact>
</mgrwt>
</event>
<event>
 4    1  0.3858687E+006  0.7276523E+01  0.7546771E-02  0.2273987E+00
         21   -1    0    0  503  502  0.00000000000E+00  0.00000000000E+00  0.11731117758E+02  0.11731117758E+02  0.00000000000E+00 0.  1.
         21   -1    0    0  501  503 -0.00000000000E+00 -0.00000000000E+00 -0.15473840301E+03  0.15473840301E+03  0.00000000000E+00 0. -1.
          5    1    1    2  501    0 -0.31545538510E+01  0.45723707352E+01 -0.15351551374E+03  0.15368786791E+03  0.47000000000E+01 0. -1.
         -5    1    1    2    0  502  0.31545538510E+01 -0.45723707352E+01  0.10508228481E+02  0.12781652865E+02  0.47000000000E+01 0.  1.
<mgrwt>
<rscale>  2 0.72765228E+01</rscale>
<asrwt>0</asrwt>
<pdfrwt beam="1">  1       21 0.18047873E-02 0.72765228E+01</pdfrwt>
<pdfrwt beam="2">  1       21 0.23805909E-01 0.72765228E+01</pdfrwt>
<totfact> 0.13037773E+07</totfact>
</mgrwt>
</event>
<event>
 4    1  0.3858687E+006  0.7451895E+01  0.7546771E-02  0.2257712E+00
         21   -1    0    0  501  502  0.00000000000E+00  0.00000000000E+00  0.29303305125E+01  0.29303305125E+01  0.00000000000E+00 0.  1.
         21   -1    0    0  502  503 -0.00000000000E+00 -0.00000000000E+00 -0.19966864100E+02  0.19966864100E+02  0.00000000000E+00 0. -1.
          5    1    1    2  501    0 -0.50639805556E+01 -0.27922833633E+01 -0.59350716555E+01  0.95265849602E+01  0.47000000000E+01 0.  1.
         -5    1    1    2    0  503  0.50639805556E+01  0.27922833633E+01 -0.11101461932E+02  0.13370609653E+02  0.47000000000E+01 0. -1.
<mgrwt>
<rscale>  2 0.74518954E+01</rscale>
<asrwt>0</asrwt>
<pdfrwt beam="1">  1       21 0.45082009E-03 0.74518954E+01</pdfrwt>
<pdfrwt beam="2">  1       21 0.30718252E-02 0.74518954E+01</pdfrwt>
<totfact> 0.22932106E+09</totfact>
</mgrwt>
</event>
<event>
 4    1  0.3858687E+006  0.5191513E+01  0.7546771E-02  0.2534261E+00
         21   -1    0    0  501  502  0.00000000000E+00  0.00000000000E+00  0.18471111422E+02  0.18471111422E+02  0.00000000000E+00 0. -1.
         21   -1    0    0  502  503 -0.00000000000E+00 -0.00000000000E+00 -0.17348255640E+01  0.17348255640E+01  0.00000000000E+00 0. -1.
          5    1    1    2  501    0  0.15343678810E+01  0.15835153552E+01  0.12395626031E+02  0.13438874595E+02  0.47000000000E+01 0. -1.
         -5    1    1    2    0  503 -0.15343678810E+01 -0.15835153552E+01  0.43406598272E+01  0.67670623914E+01  0.47000000000E+01 0. -1.
<mgrwt>
<rscale>  2 0.51915129E+01</rscale>
<asrwt>0</asrwt>
<pdfrwt beam="1">  1       21 0.28417093E-02 0.51915129E+01</pdfrwt>
<pdfrwt beam="2">  1       21 0.26689625E-03 0.51915129E+01</pdfrwt>
<totfact> 0.38744267E+09</totfact>
</mgrwt>
</event>
<event>
 4    1  0.3858687E+006  0.5180163E+01  0.7546771E-02  0.2536152E+00
         21   -1    0    0  503  502  0.00000000000E+00  0.00000000000E+00  0.63045157314E+00  0.63045157314E+00  0.00000000000E+00 0.  1.
         21   -1    0    0  501  503 -0.00000000000E+00 -0.00000000000E+00 -0.43255739894E+02  0.43255739894E+02  0.00000000000E+00 0.  1.
          5    1    1    2  501    0 -0.95633072367E+00  0.19569170389E+01 -0.24088969743E+02  0.24639654138E+02  0.47000000000E+01 0.  1.
         -5    1    1    2    0  502  0.95633072367E+00 -0.19569170389E+01 -0.18536318578E+02  0.19246537330E+02  0.47000000000E+01 0.  1.
<mgrwt>
<rscale>  2 0.51801634E+01</rscale>
<asrwt>0</asrwt>
<pdfrwt beam="1">  1       21 0.96992537E-04 0.51801634E+01</pdfrwt>
<pdfrwt beam="2">  1       21 0.66547301E-02 0.51801634E+01</pdfrwt>
<totfact> 0.43510160E+09</totfact>
</mgrwt>
</event>
<event>
 4    1  0.3858687E+006  0.5357014E+01  0.7546771E-02  0.2507467E+00
         21   -1    0    0  503  502  0.00000000000E+00  0.00000000000E+00  0.22342752458E+01  0.22342752458E+01  0.00000000000E+00 0. -1.
         21   -1    0    0  501  503 -0.00000000000E+00 -0.00000000000E+00 -0.35089975667E+02  0.35089975667E+02  0.00000000000E+00 0. -1.
          5    1    1    2  501    0 -0.18327714246E+01 -0.18023742638E+01 -0.31286960201E+02  0.31742266502E+02  0.47000000000E+01 0. -1.
         -5    1    1    2    0  502  0.18327714246E+01  0.18023742638E+01 -0.15687402202E+01  0.55819844106E+01  0.47000000000E+01 0. -1.
<mgrwt>
<rscale>  2 0.53570145E+01</rscale>
<asrwt>0</asrwt>
<pdfrwt beam="1">  1       21 0.34373465E-03 0.53570145E+01</pdfrwt>
<pdfrwt beam="2">  1       21 0.53984578E-02 0.53570145E+01</pdfrwt>
<totfact> 0.11122527E+09</totfact>
</mgrwt>
</event>
<event>
 4    1  0.3858687E+006  0.5579433E+01  0.7546771E-02  0.2473602E+00
         21   -1    0    0  501  502  0.00000000000E+00  0.00000000000E+00  0.26385462150E+04  0.26385462150E+04  0.00000000000E+00 0. -1.
         21   -1    0    0  502  503 -0.00000000000E+00 -0.00000000000E+00 -0.12062902427E-01  0.12062902427E-01  0.00000000000E+00 0. -1.
          5    1    1    2  501    0 -0.13366767767E+01 -0.26932070242E+01  0.11238339553E+04  0.11238478051E+04  0.47000000000E+01 0. -1.
         -5    1    1    2    0  503  0.13366767767E+01  0.26932070242E+01  0.15147001969E+04  0.15147104728E+04  0.47000000000E+01 0. -1.
<mgrwt>
<rscale>  2 0.55794327E+01</rscale>
<asrwt>0</asrwt>
<pdfrwt beam="1">  1       21 0.40546846E+00 0.55794327E+01</pdfrwt>
<pdfrwt beam="2">  1       21 0.18579445E-05 0.55794327E+01</pdfrwt>
<totfact> 0.33252247E+08</totfact>
</mgrwt>
</event>
<event>
 4    1  0.3858687E+006  0.7939017E+01  0.7546771E-02  0.2215594E+00
         21   -1    0    0  503  502  0.00000000000E+00  0.00000000000E+00  0.11367083895E+04  0.11367083895E+04  0.00000000000E+00 0. -1.
         21   -1    0    0  501  503 -0.00000000000E+00 -0.00000000000E+00 -0.55480690075E-01  0.55480690075E-01  0.00000000000E+00 0.  1.
          5    1    1    2  501    0 -0.31303698262E+01  0.55802134442E+01  0.58216204915E+03  0.58221617933E+03  0.47000000000E+01 0. -1.
         -5    1    1    2    0  502  0.31303698262E+01 -0.55802134442E+01  0.55449085967E+03  0.55454769088E+03  0.47000000000E+01 0.  1.
<mgrwt>
<rscale>  2 0.79390174E+01</rscale>
<asrwt>0</asrwt>
<pdfrwt beam="1">  1       21 0.17485956E+00 0.79390174E+01</pdfrwt>
<pdfrwt beam="2">  1       21 0.85364012E-05 0.79390174E+01</pdfrwt>
<totfact> 0.46757110E+08</totfact>
</mgrwt>
</event>
<event>
 4    1  0.3858687E+006  0.8041936E+01  0.7546771E-02  0.2207226E+00
         21   -1    0    0  501  502  0.00000000000E+00  0.00000000000E+00  0.17566926085E+02  0.17566926085E+02  0.00000000000E+00 0.  1.
         21   -1    0    0  502  503 -0.00000000000E+00 -0.00000000000E+00 -0.36847681205E+01  0.36847681205E+01  0.00000000000E+00 0. -1.
          5    1    1    2  501    0 -0.51520259863E+01 -0.40049172925E+01  0.72572663183E+01  0.10832388873E+02  0.47000000000E+01 0.  1.
         -5    1    1    2    0  503  0.51520259863E+01  0.40049172925E+01  0.66248916458E+01  0.10419305332E+02  0.47000000000E+01 0. -1.
<mgrwt>
<rscale>  2 0.80419360E+01</rscale>
<asrwt>0</asrwt>
<pdfrwt beam="1">  1       21 0.27026040E-02 0.80419360E+01</pdfrwt>
<pdfrwt beam="2">  1       21 0.56688741E-03 0.80419360E+01</pdfrwt>
<totfact> 0.21211999E+09</totfact>
</mgrwt>
</event>
<event>
 4    1  0.3858687E+006  0.8086239E+01  0.7546771E-02  0.2203677E+00
         21   -1    0    0  503  502  0.00000000000E+00  0.00000000000E+00  0.32701179629E+02  0.32701179629E+02  0.00000000000E+00 0.  1.
         21   -1    0    0  501  503 -0.00000000000E+00 -0.00000000000E+00 -0.62385691928E+01  0.62385691928E+01  0.00000000000E+00 0.  1.
          5    1    1    2  501    0  0.50722533739E+01 -0.41915998670E+01 -0.28179150918E+01  0.85631716787E+01  0.47000000000E+01 0.  1.
         -5    1    1    2    0  502 -0.50722533739E+01  0.41915998670E+01  0.29280525528E+02  0.30376577143E+02  0.47000000000E+01 0.  1.
<mgrwt>
<rscale>  2 0.80862392E+01</rscale>
<asrwt>0</asrwt>
<pdfrwt beam="1">  1       21 0.50309506E-02 0.80862392E+01</pdfrwt>
<pdfrwt beam="2">  1       21 0.95977990E-03 0.80862392E+01</pdfrwt>
<totfact> 0.39745289E+08</totfact>
</mgrwt>
</event>
<event>
 4    1  0.3858687E+006  0.5137262E+01  0.7546771E-02  0.2543365E+00
         21   -1    0    0  501  502  0.00000000000E+00  0.00000000000E+00  0.38847044650E-01  0.38847044650E-01  0.00000000000E+00 0. -1.
         21   -1    0    0  502  503 -0.00000000000E+00 -0.00000000000E+00 -0.68193884993E+03  0.68193884993E+03  0.00000000000E+00 0. -1.
          5    1    1    2  501    0  0.77038194834E+00 -0.19256086180E+01 -0.32001529028E+03  0.32005652230E+03  0.47000000000E+01 0. -1.
         -5    1    1    2    0  503 -0.77038194834E+00  0.19256086180E+01 -0.36188471261E+03  0.36192117467E+03  0.47000000000E+01 0. -1.
<mgrwt>
<rscale>  2 0.51372616E+01</rscale>
<asrwt>0</asrwt>
<pdfrwt beam="1">  1       21 0.59758231E-05 0.51372616E+01</pdfrwt>
<pdfrwt beam="2">  1       21 0.10492500E+00 0.51372616E+01</pdfrwt>
<totfact> 0.17077518E+09</totfact>
</mgrwt>
</event>
<event>
 4    1  0.3858687E+006  0.6095274E+01  0.7546771E-02  0.2403186E+00
         21   -1    0    0  503  502  0.00000000000E+00  0.00000000000E+00  0.10509634960E+03  0.10509634960E+03  0.00000000000E+00 0. -1.
         21   -1    0    0  501  503 -0.00000000000E+00 -0.00000000000E+00 -0.22546699728E+01  0.22546699728E+01  0.00000000000E+00 0. -1.
          5    1    1    2  501    0 -0.31571432181E+00  0.38681639391E+01  0.21324895364E+01  0.64575443797E+01  0.47000000000E+01 0. -1.
         -5    1    1    2    0  502  0.31571432181E+00 -0.38681639391E+01  0.10070919009E+03  0.10089347519E+03  0.47000000000E+01 0. -1.
<mgrwt>
<rscale>  2 0.60952742E+01</rscale>
<asrwt>0</asrwt>
<pdfrwt beam="1">  1       21 0.16168665E-01 0.60952742E+01</pdfrwt>
<pdfrwt beam="2">  1       21 0.34687239E-03 0.60952742E+01</pdfrwt>
<totfact> 0.22777464E+08</totfact>
</mgrwt>
</event>
<event>
 4    1  0.3858687E+006  0.5722625E+01  0.7546771E-02  0.2452986E+00
         21   -1    0    0  503  502  0.00000000000E+00  0.00000000000E+00  0.81366998266E+01  0.81366998266E+01  0.00000000000E+00 0.  1.
         21   -1    0    0  501  503 -0.00000000000E+00 -0.00000000000E+00 -0.32686564646E+02  0.32686564646E+02  0.00000000000E+00 0.  1.
          5    1    1    2  501    0 -0.31892582779E+01 -0.69790106073E+00 -0.31388629662E+02  0.31906026176E+02  0.47000000000E+01 0.  1.
         -5    1    1    2    0  502  0.31892582779E+01  0.69790106073E+00  0.68387648433E+01  0.89172382964E+01  0.47000000000E+01 0.  1.
<mgrwt>
<rscale>  2 0.57226248E+01</rscale>
<asrwt>0</asrwt>
<pdfrwt beam="1">  1       21 0.12518000E-02 0.57226248E+01</pdfrwt>
<pdfrwt beam="2">  1       21 0.50287022E-02 0.57226248E+01</pdfrwt>
<totfact> 0.21583206E+08</totfact>
</mgrwt>
</event>
<event>
 4    1  0.3858687E+006  0.7184347E+01  0.7546771E-02  0.2282801E+00
         21   -1    0    0  503  502  0.00000000000E+00  0.00000000000E+00  0.65944959176E+00  0.65944959176E+00  0.00000000000E+00 0. -1.
         21   -1    0    0  501  503 -0.00000000000E+00 -0.00000000000E+00 -0.13528526325E+03  0.13528526325E+03  0.00000000000E+00 0. -1.
          5    1    1    2  501    0  0.24184470526E+01  0.48657940863E+01 -0.11143989356E+03  0.11167123495E+03  0.47000000000E+01 0. -1.
         -5    1    1    2    0  502 -0.24184470526E+01 -0.48657940863E+01 -0.23185920098E+02  0.24273477893E+02  0.47000000000E+01 0. -1.
<mgrwt>
<rscale>  2 0.71843468E+01</rscale>
<asrwt>0</asrwt>
<pdfrwt beam="1">  1       21 0.10145382E-03 0.71843468E+01</pdfrwt>
<pdfrwt beam="2">  1       21 0.20813110E-01 0.71843468E+01</pdfrwt>
<totfact> 0.90990421E+08</totfact>
</mgrwt>
</event>
<event>
 4    1  0.3858687E+006  0.1631972E+02  0.7546771E-02  0.1830278E+00
         21   -1    0    0  501  502  0.00000000000E+00  0.00000000000E+00  0.76292132671E+01  0.76292132671E+01  0.00000000000E+00 0.  1.
         21   -1    0    0  502  503 -0.00000000000E+00 -0.00000000000E+00 -0.81592856725E+02  0.81592856725E+02  0.00000000000E+00 0. -1.
          5    1    1    2  501    0  0.12511898526E+02 -0.93645980907E+01 -0.32378276336E+01  0.16637813255E+02  0.47000000000E+01 0.  1.
         -5    1    1    2    0  503 -0.12511898526E+02  0.93645980907E+01 -0.70725815825E+02  0.72584256738E+02  0.47000000000E+01 0. -1.
<mgrwt>
<rscale>  2 0.16319721E+02</rscale>
<asrwt>0</asrwt>
<pdfrwt beam="1">  1       21 0.11737251E-02 0.16319721E+02</pdfrwt>
<pdfrwt beam="2">  1       21 0.12552747E-01 0.16319721E+02</pdfrwt>
<totfact> 0.96607312E+07</totfact>
</mgrwt>
</event>
<event>
 4    1  0.3858687E+006  0.5513470E+01  0.7546771E-02  0.2483403E+00
         21   -1    0    0  503  502  0.00000000000E+00  0.00000000000E+00  0.37732251040E+02  0.37732251040E+02  0.00000000000E+00 0.  1.
         21   -1    0    0  501  503 -0.00000000000E+00 -0.00000000000E+00 -0.61142834595E+01  0.61142834595E+01  0.00000000000E+00 0. -1.
          5    1    1    2  501    0 -0.26123592578E+01 -0.12181662721E+01 -0.46189553527E+01  0.71925724542E+01  0.47000000000E+01 0. -1.
         -5    1    1    2    0  502  0.26123592578E+01  0.12181662721E+01  0.36236922933E+02  0.36653962046E+02  0.47000000000E+01 0.  1.
<mgrwt>
<rscale>  2 0.55134699E+01</rscale>
<asrwt>0</asrwt>
<pdfrwt beam="1">  1       21 0.58049615E-02 0.55134699E+01</pdfrwt>
<pdfrwt beam="2">  1       21 0.94065902E-03 0.55134699E+01</pdfrwt>
<totfact> 0.25386158E+08</totfact>
</mgrwt>
</event>
<event>
 4    1  0.3858687E+006  0.4737820E+01  0.7546771E-02  0.2615877E+00
         21   -1    0    0  501  502  0.00000000000E+00  0.00000000000E+00  0.23568300416E+01  0.23568300416E+01  0.00000000000E+00 0. -1.
         21   -1    0    0  502  503 -0.00000000000E+00 -0.00000000000E+00 -0.23881980540E+02  0.23881980540E+02  0.00000000000E+00 0. -1.
          5    1    1    2  501    0  0.59231812546E+00  0.78107090660E-01 -0.59019699994E+00  0.47744396507E+01  0.47000000000E+01 0. -1.
         -5    1    1    2    0  503 -0.59231812546E+00 -0.78107090660E-01 -0.20934953499E+02  0.21464370931E+02  0.47000000000E+01 0. -1.
<mgrwt>
<rscale>  2 0.47378203E+01</rscale>
<asrwt>0</asrwt>
<pdfrwt beam="1">  1       21 0.36258926E-03 0.47378203E+01</pdfrwt>
<pdfrwt beam="2">  1       21 0.36741507E-02 0.47378203E+01</pdfrwt>
<totfact> 0.16099366E+09</totfact>
</mgrwt>
</event>
<event>
 4    1  0.3858687E+006  0.4967402E+01  0.7546771E-02  0.2572969E+00
         21   -1    0    0  503  502  0.00000000000E+00  0.00000000000E+00  0.59638926517E+02  0.59638926517E+02  0.00000000000E+00 0. -1.
         21   -1    0    0  501  503 -0.00000000000E+00 -0.00000000000E+00 -0.44137834547E+00  0.44137834547E+00  0.00000000000E+00 0. -1.
          5    1    1    2  501    0  0.31294998079E+00  0.15770673793E+01  0.22081793092E+02  0.22633618035E+02  0.47000000000E+01 0. -1.
         -5    1    1    2    0  502 -0.31294998079E+00 -0.15770673793E+01  0.37115755079E+02  0.37446686827E+02  0.47000000000E+01 0. -1.
<mgrwt>
<rscale>  2 0.49674017E+01</rscale>
<asrwt>0</asrwt>
<pdfrwt beam="1">  1       21 0.91752131E-02 0.49674017E+01</pdfrwt>
<pdfrwt beam="2">  1       21 0.67904408E-04 0.49674017E+01</pdfrwt>
<totfact> 0.41427702E+09</totfact>
</mgrwt>
</event>
<event>
 4    1  0.3858687E+006  0.4830907E+01  0.7546771E-02  0.2598054E+00
         21   -1    0    0  501  502  0.00000000000E+00  0.00000000000E+00  0.27406318179E+03  0.27406318179E+03  0.00000000000E+00 0.  1.
         21   -1    0    0  502  503 -0.00000000000E+00 -0.00000000000E+00 -0.14833241545E+00  0.14833241545E+00  0.00000000000E+00 0.  1.
          5    1    1    2  501    0  0.52738327709E+00  0.98464584185E+00  0.22643639204E+03  0.22648791867E+03  0.47000000000E+01 0.  1.
         -5    1    1    2    0  503 -0.52738327709E+00 -0.98464584185E+00  0.47478457331E+02  0.47723595538E+02  0.47000000000E+01 0.  1.
<mgrwt>
<rscale>  2 0.48309068E+01</rscale>
<asrwt>0</asrwt>
<pdfrwt beam="1">  1       21 0.42163161E-01 0.48309068E+01</pdfrwt>
<pdfrwt beam="2">  1       21 0.22820591E-04 0.48309068E+01</pdfrwt>
<totfact> 0.14973411E+09</totfact>
</mgrwt>
</event>
<event>
 4    1  0.3858687E+006  0.5722553E+01  0.7546771E-02  0.2452996E+00
         21   -1    0    0  503  502  0.00000000000E+00  0.00000000000E+00  0.11992949338E+03  0.11992949338E+03  0.00000000000E+00 0. -1.
         21   -1    0    0  501  503 -0.00000000000E+00 -0.00000000000E+00 -0.42637780183E+01  0.42637780183E+01  0.00000000000E+00 0. -1.
          5    1    1    2  501    0  0.19445025011E+00 -0.32588033198E+01 -0.22425120499E+01  0.61462566063E+01  0.47000000000E+01 0. -1.
         -5    1    1    2    0  502 -0.19445025011E+00  0.32588033198E+01  0.11790822741E+03  0.11804701479E+03  0.47000000000E+01 0. -1.
<mgrwt>
<rscale>  2 0.57225528E+01</rscale>
<asrwt>0</asrwt>
<pdfrwt beam="1">  1       21 0.18450689E-01 0.57225528E+01</pdfrwt>
<pdfrwt beam="2">  1       21 0.65596594E-03 0.57225528E+01</pdfrwt>
<totfact> 0.73182378E+07</totfact>
</mgrwt>
</event>
<event>
 4    1  0.3858687E+006  0.1034353E+02  0.7546771E-02  0.2055948E+00
         21   -1    0    0  503  502  0.00000000000E+00  0.00000000000E+00  0.52593887936E+01  0.52593887936E+01  0.00000000000E+00 0.  1.
         21   -1    0    0  501  503 -0.00000000000E+00 -0.00000000000E+00 -0.20889683254E+02  0.20889683254E+02  0.00000000000E+00 0. -1.
          5    1    1    2  501    0 -0.31837742475E+01 -0.86465158232E+01 -0.99313712014E+01  0.14339483543E+02  0.47000000000E+01 0.  1.
         -5    1    1    2    0  502  0.31837742475E+01  0.86465158232E+01 -0.56989232594E+01  0.11809588505E+02  0.47000000000E+01 0. -1.
<mgrwt>
<rscale>  2 0.10343532E+02</rscale>
<asrwt>0</asrwt>
<pdfrwt beam="1">  1       21 0.80913676E-03 0.10343532E+02</pdfrwt>
<pdfrwt beam="2">  1       21 0.32137973E-02 0.10343532E+02</pdfrwt>
<totfact> 0.11569519E+09</totfact>
</mgrwt>
</event>
<event>
 4    1  0.3858687E+006  0.5952959E+01  0.7546771E-02  0.2421586E+00
         21   -1    0    0  501  502  0.00000000000E+00  0.00000000000E+00  0.58232852319E+01  0.58232852319E+01  0.00000000000E+00 0. -1.
         21   -1    0    0  502  503 -0.00000000000E+00 -0.00000000000E+00 -0.62647614558E+01  0.62647614558E+01  0.00000000000E+00 0. -1.
          5    1    1    2  501    0 -0.55332670338E+00  0.36113088419E+01  0.80159498139E+00  0.60066859837E+01  0.47000000000E+01 0. -1.
         -5    1    1    2    0  503  0.55332670338E+00 -0.36113088419E+01 -0.12430712053E+01  0.60813607041E+01  0.47000000000E+01 0. -1.
<mgrwt>
<rscale>  2 0.59529591E+01</rscale>
<asrwt>0</asrwt>
<pdfrwt beam="1">  1       21 0.89589004E-03 0.59529591E+01</pdfrwt>
<pdfrwt beam="2">  1       21 0.96380945E-03 0.59529591E+01</pdfrwt>
<totfact> 0.38542051E+09</totfact>
</mgrwt>
</event>
<event>
 4    1  0.3858687E+006  0.4989470E+01  0.7546771E-02  0.2569025E+00
         21   -1    0    0  503  502  0.00000000000E+00  0.00000000000E+00  0.10389497209E+01  0.10389497209E+01  0.00000000000E+00 0. -1.
         21   -1    0    0  501  503 -0.00000000000E+00 -0.00000000000E+00 -0.42491707014E+02  0.42491707014E+02  0.00000000000E+00 0. -1.
          5    1    1    2  501    0 -0.16683376414E+01  0.14650060287E+00 -0.35099564913E+02  0.35452422626E+02  0.47000000000E+01 0. -1.
         -5    1    1    2    0  502  0.16683376414E+01 -0.14650060287E+00 -0.63531923796E+01  0.80782341093E+01  0.47000000000E+01 0. -1.
<mgrwt>
<rscale>  2 0.49894702E+01</rscale>
<asrwt>0</asrwt>
<pdfrwt beam="1">  1       21 0.15983840E-03 0.49894702E+01</pdfrwt>
<pdfrwt beam="2">  1       21 0.65371864E-02 0.49894702E+01</pdfrwt>
<totfact> 0.22091226E+09</totfact>
</mgrwt>
</event>
<event>
 4    1  0.3858687E+006  0.7792588E+01  0.7546771E-02  0.2227806E+00
         21   -1    0    0  503  502  0.00000000000E+00  0.00000000000E+00  0.16312829004E+02  0.16312829004E+02  0.00000000000E+00 0. -1.
         21   -1    0    0  501  503 -0.00000000000E+00 -0.00000000000E+00 -0.52711575009E+01  0.52711575009E+01  0.00000000000E+00 0. -1.
          5    1    1    2  501    0 -0.13582184064E+01 -0.60654494805E+01 -0.32877505314E+00  0.77995209901E+01  0.47000000000E+01 0. -1.
         -5    1    1    2    0  502  0.13582184064E+01  0.60654494805E+01  0.11370446556E+02  0.13784465515E+02  0.47000000000E+01 0. -1.
<mgrwt>
<rscale>  2 0.77925884E+01</rscale>
<asrwt>0</asrwt>
<pdfrwt beam="1">  1       21 0.25096660E-02 0.77925884E+01</pdfrwt>
<pdfrwt beam="2">  1       21 0.81094731E-03 0.77925884E+01</pdfrwt>
<totfact> 0.13913360E+09</totfact>
</mgrwt>
</event>
<event>
 4    1  0.3858687E+006  0.6532340E+01  0.7546771E-02  0.2350893E+00
         21   -1    0    0  501  502  0.00000000000E+00  0.00000000000E+00  0.43509137706E+02  0.43509137706E+02  0.00000000000E+00 0. -1.
         21   -1    0    0  502  503 -0.00000000000E+00 -0.00000000000E+00 -0.14938826974E+01  0.14938826974E+01  0.00000000000E+00 0.  1.
          5    1    1    2  501    0  0.45163445704E+01 -0.42906276657E+00  0.34195339858E+02  0.34813685975E+02  0.47000000000E+01 0. -1.
         -5    1    1    2    0  503 -0.45163445704E+01  0.42906276657E+00  0.78199151499E+01  0.10189334428E+02  0.47000000000E+01 0.  1.
<mgrwt>
<rscale>  2 0.65323398E+01</rscale>
<asrwt>0</asrwt>
<pdfrwt beam="1">  1       21 0.66937125E-02 0.65323398E+01</pdfrwt>
<pdfrwt beam="2">  1       21 0.22982814E-03 0.65323398E+01</pdfrwt>
<totfact> 0.16519658E+09</totfact>
</mgrwt>
</event>
<event>
 4    1  0.3858687E+006  0.6202180E+01  0.7546771E-02  0.2389830E+00
         21   -1    0    0  503  502  0.00000000000E+00  0.00000000000E+00  0.41925384784E+01  0.41925384784E+01  0.00000000000E+00 0.  1.
         21   -1    0    0  501  503 -0.00000000000E+00 -0.00000000000E+00 -0.11748875144E+02  0.11748875144E+02  0.00000000000E+00 0. -1.
          5    1    1    2  501    0 -0.39662770615E+01  0.80354572758E+00 -0.75088001370E+01  0.97390512352E+01  0.47000000000E+01 0. -1.
         -5    1    1    2    0  502  0.39662770615E+01 -0.80354572758E+00 -0.47536529034E-01  0.62023623876E+01  0.47000000000E+01 0.  1.
<mgrwt>
<rscale>  2 0.62021802E+01</rscale>
<asrwt>0</asrwt>
<pdfrwt beam="1">  1       21 0.64500592E-03 0.62021802E+01</pdfrwt>
<pdfrwt beam="2">  1       21 0.18075192E-02 0.62021802E+01</pdfrwt>
<totfact> 0.25921814E+09</totfact>
</mgrwt>
</event>
<event>
 4    1  0.3858687E+006  0.9600707E+01  0.7546771E-02  0.2098450E+00
         21   -1    0    0  501  502  0.00000000000E+00  0.00000000000E+00  0.23376421933E+03  0.23376421933E+03  0.00000000000E+00 0.  1.
         21   -1    0    0  502  503 -0.00000000000E+00 -0.00000000000E+00 -0.15965991945E+01  0.15965991945E+01  0.00000000000E+00 0. -1.
          5    1    1    2  501    0  0.25523111823E+01 -0.79730344956E+01  0.21820414552E+03  0.21841525289E+03  0.47000000000E+01 0.  1.
         -5    1    1    2    0  503 -0.25523111823E+01  0.79730344956E+01  0.13963474615E+02  0.16945565637E+02  0.47000000000E+01 0. -1.
<mgrwt>
<rscale>  2 0.96007068E+01</rscale>
<asrwt>0</asrwt>
<pdfrwt beam="1">  1       21 0.35963699E-01 0.96007068E+01</pdfrwt>
<pdfrwt beam="2">  1       21 0.24563083E-03 0.96007068E+01</pdfrwt>
<totfact> 0.12440007E+08</totfact>
</mgrwt>
</event>
<event>
 4    1  0.3858687E+006  0.6082226E+01  0.7546771E-02  0.2404843E+00
         21   -1    0    0  503  502  0.00000000000E+00  0.00000000000E+00  0.15324670124E+02  0.15324670124E+02  0.00000000000E+00 0.  1.
         21   -1    0    0  501  503 -0.00000000000E+00 -0.00000000000E+00 -0.21137863409E+02  0.21137863409E+02  0.00000000000E+00 0.  1.
          5    1    1    2  501    0 -0.32309105565E+01 -0.21129817108E+01 -0.20065291283E+02  0.20966864072E+02  0.47000000000E+01 0.  1.
         -5    1    1    2    0  502  0.32309105565E+01  0.21129817108E+01  0.14252097998E+02  0.15495669462E+02  0.47000000000E+01 0.  1.
<mgrwt>
<rscale>  2 0.60822261E+01</rscale>
<asrwt>0</asrwt>
<pdfrwt beam="1">  1       21 0.23576416E-02 0.60822261E+01</pdfrwt>
<pdfrwt beam="2">  1       21 0.32519790E-02 0.60822261E+01</pdfrwt>
<totfact> 0.17302728E+08</totfact>
</mgrwt>
</event>
<event>
 4    1  0.3858687E+006  0.5223400E+01  0.7546771E-02  0.2528986E+00
         21   -1    0    0  503  502  0.00000000000E+00  0.00000000000E+00  0.78175232003E+00  0.78175232003E+00  0.00000000000E+00 0. -1.
         21   -1    0    0  501  503 -0.00000000000E+00 -0.00000000000E+00 -0.42873348225E+02  0.42873348225E+02  0.00000000000E+00 0. -1.
          5    1    1    2  501    0  0.20524318344E+01  0.99067441374E+00 -0.30458305006E+02  0.30902948987E+02  0.47000000000E+01 0. -1.
         -5    1    1    2    0  502 -0.20524318344E+01 -0.99067441374E+00 -0.11633290899E+02  0.12752151558E+02  0.47000000000E+01 0. -1.
<mgrwt>
<rscale>  2 0.52234004E+01</rscale>
<asrwt>0</asrwt>
<pdfrwt beam="1">  1       21 0.12026956E-03 0.52234004E+01</pdfrwt>
<pdfrwt beam="2">  1       21 0.65959012E-02 0.52234004E+01</pdfrwt>
<totfact> 0.33366264E+09</totfact>
</mgrwt>
</event>
<event>
 4    1  0.3858687E+006  0.9069390E+01  0.7546771E-02  0.2132171E+00
         21   -1    0    0  503  502  0.00000000000E+00  0.00000000000E+00  0.29907675853E+02  0.29907675853E+02  0.00000000000E+00 0.  1.
         21   -1    0    0  501  503 -0.00000000000E+00 -0.00000000000E+00 -0.74565278728E+01  0.74565278728E+01  0.00000000000E+00 0.  1.
          5    1    1    2  501    0  0.65018986356E+00  0.77292355779E+01 -0.36165419355E+01  0.97638724412E+01  0.47000000000E+01 0.  1.
         -5    1    1    2    0  502 -0.65018986356E+00 -0.77292355779E+01  0.26067689916E+02  0.27600331285E+02  0.47000000000E+01 0.  1.
<mgrwt>
<rscale>  2 0.90693897E+01</rscale>
<asrwt>0</asrwt>
<pdfrwt beam="1">  1       21 0.46011808E-02 0.90693897E+01</pdfrwt>
<pdfrwt beam="2">  1       21 0.11471581E-02 0.90693897E+01</pdfrwt>
<totfact> 0.37637994E+08</totfact>
</mgrwt>
</event>
<event>
 4    1  0.3858687E+006  0.1592603E+02  0.7546771E-02  0.1841058E+00
         21   -1    0    0  503  502  0.00000000000E+00  0.00000000000E+00  0.13710540630E+01  0.13710540630E+01  0.00000000000E+00 0. -1.
         21   -1    0    0  501  503 -0.00000000000E+00 -0.00000000000E+00 -0.20064576538E+03  0.20064576538E+03  0.00000000000E+00 0.  1.
          5    1    1    2  501    0  0.40891320727E+01 -0.14656996719E+02 -0.71427153343E+02  0.73181123171E+02  0.47000000000E+01 0. -1.
         -5    1    1    2    0  502 -0.40891320727E+01  0.14656996719E+02 -0.12784755797E+03  0.12883569627E+03  0.47000000000E+01 0.  1.
<mgrwt>
<rscale>  2 0.15926034E+02</rscale>
<asrwt>0</asrwt>
<pdfrwt beam="1">  1       21 0.21093126E-03 0.15926034E+02</pdfrwt>
<pdfrwt beam="2">  1       21 0.30868599E-01 0.15926034E+02</pdfrwt>
<totfact> 0.24883065E+08</totfact>
</mgrwt>
</event>
<event>
 4    1  0.3858687E+006  0.5928629E+01  0.7546771E-02  0.2424806E+00
         21   -1    0    0  503  502  0.00000000000E+00  0.00000000000E+00  0.11389526187E+01  0.11389526187E+01  0.00000000000E+00 0. -1.
         21   -1    0    0  501  503 -0.00000000000E+00 -0.00000000000E+00 -0.95125928288E+02  0.95125928288E+02  0.00000000000E+00 0. -1.
          5    1    1    2  501    0 -0.33958541451E+01 -0.12356456363E+01 -0.86555387450E+02  0.86758191211E+02  0.47000000000E+01 0. -1.
         -5    1    1    2    0  502  0.33958541451E+01  0.12356456363E+01 -0.74315882187E+01  0.95066896954E+01  0.47000000000E+01 0. -1.
<mgrwt>
<rscale>  2 0.59286293E+01</rscale>
<asrwt>0</asrwt>
<pdfrwt beam="1">  1       21 0.17522346E-03 0.59286293E+01</pdfrwt>
<pdfrwt beam="2">  1       21 0.14634760E-01 0.59286293E+01</pdfrwt>
<totfact> 0.66497115E+08</totfact>
</mgrwt>
</event>
<event>
 4    1  0.3858687E+006  0.6265028E+01  0.7546771E-02  0.2382155E+00
         21   -1    0    0  503  502  0.00000000000E+00  0.00000000000E+00  0.34732898842E+03  0.34732898842E+03  0.00000000000E+00 0.  1.
         21   -1    0    0  501  503 -0.00000000000E+00 -0.00000000000E+00 -0.19364868393E+00  0.19364868393E+00  0.00000000000E+00 0.  1.
          5    1    1    2  501    0  0.34846523674E+01  0.22400385326E+01  0.61436624094E+02  0.61755237469E+02  0.47000000000E+01 0.  1.
         -5    1    1    2    0  502 -0.34846523674E+01 -0.22400385326E+01  0.28569871564E+03  0.28576739963E+03  0.47000000000E+01 0.  1.
<mgrwt>
<rscale>  2 0.62650279E+01</rscale>
<asrwt>0</asrwt>
<pdfrwt beam="1">  1       21 0.53434730E-01 0.62650279E+01</pdfrwt>
<pdfrwt beam="2">  1       21 0.29792383E-04 0.62650279E+01</pdfrwt>
<totfact> 0.84765671E+08</totfact>
</mgrwt>
</event>
<event>
 4    1  0.3858687E+006  0.6615057E+01  0.7546771E-02  0.2341645E+00
         21   -1    0    0  503  502  0.00000000000E+00  0.00000000000E+00  0.17236960011E+02  0.17236960011E+02  0.00000000000E+00 0. -1.
         21   -1    0    0  501  503 -0.00000000000E+00 -0.00000000000E+00 -0.30416860720E+01  0.30416860720E+01  0.00000000000E+00 0. -1.
          5    1    1    2  501    0 -0.33020361931E+01 -0.32810885616E+01  0.11220908139E+02  0.13025657935E+02  0.47000000000E+01 0. -1.
         -5    1    1    2    0  502  0.33020361931E+01  0.32810885616E+01  0.29743658003E+01  0.72529881486E+01  0.47000000000E+01 0. -1.
<mgrwt>
<rscale>  2 0.66150575E+01</rscale>
<asrwt>0</asrwt>
<pdfrwt beam="1">  1       21 0.26518399E-02 0.66150575E+01</pdfrwt>
<pdfrwt beam="2">  1       21 0.46795171E-03 0.66150575E+01</pdfrwt>
<totfact> 0.24618339E+09</totfact>
</mgrwt>
</event>
<event>
 4    1  0.3858687E+006  0.8831750E+01  0.7546771E-02  0.2148285E+00
         21   -1    0    0  503  502  0.00000000000E+00  0.00000000000E+00  0.12450659129E+04  0.12450659129E+04  0.00000000000E+00 0.  1.
         21   -1    0    0  501  503 -0.00000000000E+00 -0.00000000000E+00 -0.65828843589E-01  0.65828843589E-01  0.00000000000E+00 0. -1.
          5    1    1    2  501    0 -0.74140980809E+01  0.97003311207E+00  0.75936972844E+03  0.75942108496E+03  0.47000000000E+01 0.  1.
         -5    1    1    2    0  502  0.74140980809E+01 -0.97003311207E+00  0.48563035564E+03  0.48571065681E+03  0.47000000000E+01 0. -1.
<mgrwt>
<rscale>  2 0.88317504E+01</rscale>
<asrwt>0</asrwt>
<pdfrwt beam="1">  1       21 0.19152974E+00 0.88317504E+01</pdfrwt>
<pdfrwt beam="2">  1       21 0.10128512E-04 0.88317504E+01</pdfrwt>
<totfact> 0.31682720E+08</totfact>
</mgrwt>
</event>
<event>
 4    1  0.3858687E+006  0.6195394E+01  0.7546771E-02  0.2390666E+00
         21   -1    0    0  503  502  0.00000000000E+00  0.00000000000E+00  0.12083761740E+01  0.12083761740E+01  0.00000000000E+00 0. -1.
         21   -1    0    0  501  503 -0.00000000000E+00 -0.00000000000E+00 -0.32272150663E+02  0.32272150663E+02  0.00000000000E+00 0.  1.
          5    1    1    2  501    0  0.25577625132E+01 -0.31226204626E+01 -0.17632413034E+02  0.18689165231E+02  0.47000000000E+01 0.  1.
         -5    1    1    2    0  502 -0.25577625132E+01  0.31226204626E+01 -0.13431361454E+02  0.14791361606E+02  0.47000000000E+01 0.  1.
<mgrwt>
<rscale>  2 0.61953941E+01</rscale>
<asrwt>0</asrwt>
<pdfrwt beam="1">  1       21 0.18590405E-03 0.61953941E+01</pdfrwt>
<pdfrwt beam="2">  1       21 0.49649456E-02 0.61953941E+01</pdfrwt>
<totfact> 0.33048768E+09</totfact>
</mgrwt>
</event>
<event>
 4    1  0.3858687E+006  0.5386260E+01  0.7546771E-02  0.2502878E+00
         21   -1    0    0  501  502  0.00000000000E+00  0.00000000000E+00  0.33708094575E+01  0.33708094575E+01  0.00000000000E+00 0.  1.
         21   -1    0    0  502  503 -0.00000000000E+00 -0.00000000000E+00 -0.94038866594E+01  0.94038866594E+01  0.00000000000E+00 0. -1.
          5    1    1    2  501    0 -0.94185606686E+00 -0.24565629142E+01 -0.11569074054E+01  0.55091041873E+01  0.47000000000E+01 0.  1.
         -5    1    1    2    0  503  0.94185606686E+00  0.24565629142E+01 -0.48761697965E+01  0.72655919295E+01  0.47000000000E+01 0.  1.
<mgrwt>
<rscale>  2 0.53862598E+01</rscale>
<asrwt>0</asrwt>
<pdfrwt beam="1">  1       21 0.51858607E-03 0.53862598E+01</pdfrwt>
<pdfrwt beam="2">  1       21 0.14467518E-02 0.53862598E+01</pdfrwt>
<totfact> 0.42370242E+09</totfact>
</mgrwt>
</event>
<event>
 4    1  0.3858687E+006  0.6871396E+01  0.7546771E-02  0.2314157E+00
         21   -1    0    0  503  502  0.00000000000E+00  0.00000000000E+00  0.57684119386E+03  0.57684119386E+03  0.00000000000E+00 0. -1.
         21   -1    0    0  501  503 -0.00000000000E+00 -0.00000000000E+00 -0.97228138385E-01  0.97228138385E-01  0.00000000000E+00 0.  1.
          5    1    1    2  501    0  0.32408317266E+01  0.38240151396E+01  0.17365823982E+03  0.17379413207E+03  0.47000000000E+01 0.  1.
         -5    1    1    2    0  502 -0.32408317266E+01 -0.38240151396E+01  0.40308572590E+03  0.40314428993E+03  0.47000000000E+01 0. -1.
<mgrwt>
<rscale>  2 0.68713959E+01</rscale>
<asrwt>0</asrwt>
<pdfrwt beam="1">  1       21 0.88742059E-01 0.68713959E+01</pdfrwt>
<pdfrwt beam="2">  1       21 0.14958637E-04 0.68713959E+01</pdfrwt>
<totfact> 0.86011342E+08</totfact>
</mgrwt>
</event>
<event>
 4    1  0.3858687E+006  0.7864874E+01  0.7546771E-02  0.2221731E+00
         21   -1    0    0  503  502  0.00000000000E+00  0.00000000000E+00  0.19492970790E+01  0.19492970790E+01  0.00000000000E+00 0. -1.
         21   -1    0    0  501  503 -0.00000000000E+00 -0.00000000000E+00 -0.37297360042E+02  0.37297360042E+02  0.00000000000E+00 0.  1.
          5    1    1    2  501    0 -0.62840084867E+01 -0.52675913801E+00 -0.25253825140E+02  0.26450178110E+02  0.47000000000E+01 0.  1.
         -5    1    1    2    0  502  0.62840084867E+01  0.52675913801E+00 -0.10094237823E+02  0.12796479011E+02  0.47000000000E+01 0. -1.
<mgrwt>
<rscale>  2 0.78648737E+01</rscale>
<asrwt>0</asrwt>
<pdfrwt beam="1">  1       21 0.29989188E-03 0.78648737E+01</pdfrwt>
<pdfrwt beam="2">  1       21 0.57380550E-02 0.78648737E+01</pdfrwt>
<totfact> 0.16560543E+09</totfact>
</mgrwt>
</event>
<event>
 4    1  0.3858687E+006  0.4731506E+01  0.7546771E-02  0.2617108E+00
         21   -1    0    0  503  502  0.00000000000E+00  0.00000000000E+00  0.17354576258E+01  0.17354576258E+01  0.00000000000E+00 0.  1.
         21   -1    0    0  501  503 -0.00000000000E+00 -0.00000000000E+00 -0.64708180032E+02  0.64708180032E+02  0.00000000000E+00 0.  1.
          5    1    1    2  501    0  0.30956563313E+00 -0.44868813907E+00 -0.61212848198E+02  0.61395439053E+02  0.47000000000E+01 0.  1.
         -5    1    1    2    0  502 -0.30956563313E+00  0.44868813907E+00 -0.17598742077E+01  0.50481986049E+01  0.47000000000E+01 0.  1.
<mgrwt>
<rscale>  2 0.47315063E+01</rscale>
<asrwt>0</asrwt>
<pdfrwt beam="1">  1       21 0.26699347E-03 0.47315063E+01</pdfrwt>
<pdfrwt beam="2">  1       21 0.99551050E-02 0.47315063E+01</pdfrwt>
<totfact> 0.56286747E+08</totfact>
</mgrwt>
</event>
<event>
 4    1  0.3858687E+006  0.5720899E+01  0.7546771E-02  0.2453229E+00
         21   -1    0    0  503  502  0.00000000000E+00  0.00000000000E+00  0.29124176040E+02  0.29124176040E+02  0.00000000000E+00 0. -1.
         21   -1    0    0  501  503 -0.00000000000E+00 -0.00000000000E+00 -0.28422604288E+01  0.28422604288E+01  0.00000000000E+00 0. -1.
          5    1    1    2  501    0  0.17410328023E+01 -0.27581688072E+01  0.71280294468E+00  0.57651347275E+01  0.47000000000E+01 0. -1.
         -5    1    1    2    0  502 -0.17410328023E+01  0.27581688072E+01  0.25569112667E+02  0.26201301742E+02  0.47000000000E+01 0. -1.
<mgrwt>
<rscale>  2 0.57208994E+01</rscale>
<asrwt>0</asrwt>
<pdfrwt beam="1">  1       21 0.44806423E-02 0.57208994E+01</pdfrwt>
<pdfrwt beam="2">  1       21 0.43727085E-03 0.57208994E+01</pdfrwt>
<totfact> 0.11122862E+09</totfact>
</mgrwt>
</event>
<event>
 4    1  0.3858687E+006  0.2149400E+02  0.7546771E-02  0.1717153E+00
         21   -1    0    0  503  502  0.00000000000E+00  0.00000000000E+00  0.30095394249E+03  0.30095394249E+03  0.00000000000E+00 0.  1.
         21   -1    0    0  501  503 -0.00000000000E+00 -0.00000000000E+00 -0.15355150266E+01  0.15355150266E+01  0.00000000000E+00 0. -1.
          5    1    1    2  501    0  0.20440252013E+02 -0.47008473861E+01  0.15222077203E+03  0.15373078841E+03  0.47000000000E+01 0.  1.
         -5    1    1    2    0  502 -0.20440252013E+02  0.47008473861E+01  0.14719765543E+03  0.14875866910E+03  0.47000000000E+01 0.  1.
<mgrwt>
<rscale>  2 0.21493996E+02</rscale>
<asrwt>0</asrwt>
<pdfrwt beam="1">  1       21 0.46300560E-01 0.21493996E+02</pdfrwt>
<pdfrwt beam="2">  1       21 0.23623332E-03 0.21493996E+02</pdfrwt>
<totfact> 0.10966983E+08</totfact>
</mgrwt>
</event>
<event>
 4    1  0.3858687E+006  0.6999849E+01  0.7546771E-02  0.2301009E+00
         21   -1    0    0  503  502  0.00000000000E+00  0.00000000000E+00  0.77111976943E+02  0.77111976943E+02  0.00000000000E+00 0.  1.
         21   -1    0    0  501  503 -0.00000000000E+00 -0.00000000000E+00 -0.10663928434E+01  0.10663928434E+01  0.00000000000E+00 0.  1.
          5    1    1    2  501    0  0.15365786707E+01 -0.49544740188E+01  0.13172762308E+02  0.14917089316E+02  0.47000000000E+01 0.  1.
         -5    1    1    2    0  502 -0.15365786707E+01  0.49544740188E+01  0.62872821791E+02  0.63261280471E+02  0.47000000000E+01 0.  1.
<mgrwt>
<rscale>  2 0.69998491E+01</rscale>
<asrwt>0</asrwt>
<pdfrwt beam="1">  1       21 0.11863377E-01 0.69998491E+01</pdfrwt>
<pdfrwt beam="2">  1       21 0.16406050E-03 0.69998491E+01</pdfrwt>
<totfact> 0.11437558E+09</totfact>
</mgrwt>
</event>
<event>
 4    1  0.3858687E+006  0.5680532E+01  0.7546771E-02  0.2458955E+00
         21   -1    0    0  503  502  0.00000000000E+00  0.00000000000E+00  0.86872903209E-01  0.86872903209E-01  0.00000000000E+00 0. -1.
         21   -1    0    0  501  503 -0.00000000000E+00 -0.00000000000E+00 -0.39483545965E+03  0.39483545965E+03  0.00000000000E+00 0. -1.
          5    1    1    2  501    0 -0.31392297190E+01 -0.56893053601E+00 -0.24543602902E+03  0.24550175720E+03  0.47000000000E+01 0. -1.
         -5    1    1    2    0  502  0.31392297190E+01  0.56893053601E+00 -0.14931255772E+03  0.14942057535E+03  0.47000000000E+01 0. -1.
<mgrwt>
<rscale>  2 0.56805321E+01</rscale>
<asrwt>0</asrwt>
<pdfrwt beam="1">  1       21 0.13365393E-04 0.56805321E+01</pdfrwt>
<pdfrwt beam="2">  1       21 0.60742413E-01 0.56805321E+01</pdfrwt>
<totfact> 0.18144998E+09</totfact>
</mgrwt>
</event>
<event>
 4    1  0.3858687E+006  0.6213353E+01  0.7546771E-02  0.2388456E+00
         21   -1    0    0  503  502  0.00000000000E+00  0.00000000000E+00  0.12987395642E+02  0.12987395642E+02  0.00000000000E+00 0. -1.
         21   -1    0    0  501  503 -0.00000000000E+00 -0.00000000000E+00 -0.68310402730E+01  0.68310402730E+01  0.00000000000E+00 0.  1.
          5    1    1    2  501    0  0.37546417362E+01  0.15551268774E+01 -0.43692167218E+01  0.75957757296E+01  0.47000000000E+01 0.  1.
         -5    1    1    2    0  502 -0.37546417362E+01 -0.15551268774E+01  0.10525572091E+02  0.12222660186E+02  0.47000000000E+01 0. -1.
<mgrwt>
<rscale>  2 0.62133529E+01</rscale>
<asrwt>0</asrwt>
<pdfrwt beam="1">  1       21 0.19980609E-02 0.62133529E+01</pdfrwt>
<pdfrwt beam="2">  1       21 0.10509293E-02 0.62133529E+01</pdfrwt>
<totfact> 0.11305893E+09</totfact>
</mgrwt>
</event>
<event>
 4    1  0.3858687E+006  0.4758047E+01  0.7546771E-02  0.2611953E+00
         21   -1    0    0  503  502  0.00000000000E+00  0.00000000000E+00  0.55850805072E+01  0.55850805072E+01  0.00000000000E+00 0. -1.
         21   -1    0    0  501  503 -0.00000000000E+00 -0.00000000000E+00 -0.45052888101E+01  0.45052888101E+01  0.00000000000E+00 0. -1.
          5    1    1    2  501    0  0.12101595265E+00  0.73100226166E+00 -0.10577972202E+01  0.48742121544E+01  0.47000000000E+01 0. -1.
         -5    1    1    2    0  502 -0.12101595265E+00 -0.73100226166E+00  0.21375889173E+01  0.52161571628E+01  0.47000000000E+01 0. -1.
<mgrwt>
<rscale>  2 0.47580468E+01</rscale>
<asrwt>0</asrwt>
<pdfrwt beam="1">  1       21 0.85924315E-03 0.47580468E+01</pdfrwt>
<pdfrwt beam="2">  1       21 0.69312136E-03 0.47580468E+01</pdfrwt>
<totfact> 0.51649474E+09</totfact>
</mgrwt>
</event>
<event>
 4    1  0.3858687E+006  0.9166357E+01  0.7546771E-02  0.2125786E+00
         21   -1    0    0  503  502  0.00000000000E+00  0.00000000000E+00  0.58073407703E+01  0.58073407703E+01  0.00000000000E+00 0. -1.
         21   -1    0    0  501  503 -0.00000000000E+00 -0.00000000000E+00 -0.16277704941E+02  0.16277704941E+02  0.00000000000E+00 0.  1.
          5    1    1    2  501    0 -0.58427660779E+01  0.52720185517E+01 -0.89168519575E+01  0.12787976536E+02  0.47000000000E+01 0.  1.
         -5    1    1    2    0  502  0.58427660779E+01 -0.52720185517E+01 -0.15535122129E+01  0.92970691751E+01  0.47000000000E+01 0. -1.
<mgrwt>
<rscale>  2 0.91663567E+01</rscale>
<asrwt>0</asrwt>
<pdfrwt beam="1">  1       21 0.89343704E-03 0.91663567E+01</pdfrwt>
<pdfrwt beam="2">  1       21 0.25042623E-02 0.91663567E+01</pdfrwt>
<totfact> 0.13533890E+09</totfact>
</mgrwt>
</event>
<event>
 4    1  0.3858687E+006  0.1123409E+02  0.7546771E-02  0.2010884E+00
         21   -1    0    0  501  502  0.00000000000E+00  0.00000000000E+00  0.44989876619E+00  0.44989876619E+00  0.00000000000E+00 0.  1.
         21   -1    0    0  502  503 -0.00000000000E+00 -0.00000000000E+00 -0.32637434370E+03  0.32637434370E+03  0.00000000000E+00 0. -1.
          5    1    1    2  501    0  0.91965669040E+01 -0.44201843330E+01 -0.10170967132E+03  0.10232820780E+03  0.47000000000E+01 0.  1.
         -5    1    1    2    0  503 -0.91965669040E+01  0.44201843330E+01 -0.22421477362E+03  0.22449603467E+03  0.47000000000E+01 0. -1.
<mgrwt>
<rscale>  2 0.11234094E+02</rscale>
<asrwt>0</asrwt>
<pdfrwt beam="1">  1       21 0.69215200E-04 0.11234094E+02</pdfrwt>
<pdfrwt beam="2">  1       21 0.50211434E-01 0.11234094E+02</pdfrwt>
<totfact> 0.42188527E+08</totfact>
</mgrwt>
</event>
<event>
 4    1  0.3858687E+006  0.4949638E+01  0.7546771E-02  0.2576166E+00
         21   -1    0    0  501  502  0.00000000000E+00  0.00000000000E+00  0.23416671610E+01  0.23416671610E+01  0.00000000000E+00 0. -1.
         21   -1    0    0  502  503 -0.00000000000E+00 -0.00000000000E+00 -0.10464233220E+02  0.10464233220E+02  0.00000000000E+00 0. -1.
          5    1    1    2  501    0 -0.15518516420E+01 -0.25922334502E-01 -0.41512324732E+01  0.64600036016E+01  0.47000000000E+01 0. -1.
         -5    1    1    2    0  503  0.15518516420E+01  0.25922334502E-01 -0.39713335862E+01  0.63458967798E+01  0.47000000000E+01 0. -1.
<mgrwt>
<rscale>  2 0.49496379E+01</rscale>
<asrwt>0</asrwt>
<pdfrwt beam="1">  1       21 0.36025649E-03 0.49496379E+01</pdfrwt>
<pdfrwt beam="2">  1       21 0.16098820E-02 0.49496379E+01</pdfrwt>
<totfact> 0.55000746E+09</totfact>
</mgrwt>
</event>
<event>
 4    1  0.3858687E+006  0.6294838E+01  0.7546771E-02  0.2378560E+00
         21   -1    0    0  501  502  0.00000000000E+00  0.00000000000E+00  0.93598664115E+02  0.93598664115E+02  0.00000000000E+00 0. -1.
         21   -1    0    0  502  503 -0.00000000000E+00 -0.00000000000E+00 -0.43698100012E+00  0.43698100012E+00  0.00000000000E+00 0. -1.
          5    1    1    2  501    0 -0.76496264880E-01 -0.41867814098E+01  0.54885003525E+02  0.55244806111E+02  0.47000000000E+01 0. -1.
         -5    1    1    2    0  503  0.76496264880E-01  0.41867814098E+01  0.38276679590E+02  0.38790839004E+02  0.47000000000E+01 0. -1.
<mgrwt>
<rscale>  2 0.62948384E+01</rscale>
<asrwt>0</asrwt>
<pdfrwt beam="1">  1       21 0.14399779E-01 0.62948384E+01</pdfrwt>
<pdfrwt beam="2">  1       21 0.67227921E-04 0.62948384E+01</pdfrwt>
<totfact> 0.26010950E+09</totfact>
</mgrwt>
</event>
<event>
 4    1  0.3858687E+006  0.9964281E+01  0.7546771E-02  0.2077026E+00
         21   -1    0    0  503  502  0.00000000000E+00  0.00000000000E+00  0.31895321849E+03  0.31895321849E+03  0.00000000000E+00 0.  1.
         21   -1    0    0  501  503 -0.00000000000E+00 -0.00000000000E+00 -0.32853522423E+00  0.32853522423E+00  0.00000000000E+00 0. -1.
          5    1    1    2  501    0  0.87775691091E+01 -0.38881379965E+00  0.12273689818E+03  0.12314070436E+03  0.47000000000E+01 0. -1.
         -5    1    1    2    0  502 -0.87775691091E+01  0.38881379965E+00  0.19588778509E+03  0.19614104935E+03  0.47000000000E+01 0.  1.
<mgrwt>
<rscale>  2 0.99642810E+01</rscale>
<asrwt>0</asrwt>
<pdfrwt beam="1">  1       21 0.49069478E-01 0.99642810E+01</pdfrwt>
<pdfrwt beam="2">  1       21 0.50544136E-04 0.99642810E+01</pdfrwt>
<totfact> 0.64009867E+08</totfact>
</mgrwt>
</event>
<event>
 4    1  0.3858687E+006  0.1292962E+02  0.7546771E-02  0.1938718E+00
         21   -1    0    0  501  502  0.00000000000E+00  0.00000000000E+00  0.35444985238E+01  0.35444985238E+01  0.00000000000E+00 0. -1.
         21   -1    0    0  502  503 -0.00000000000E+00 -0.00000000000E+00 -0.28784247753E+03  0.28784247753E+03  0.00000000000E+00 0. -1.
          5    1    1    2  501    0 -0.11036405907E+02  0.48252288486E+01 -0.89255242806E+01  0.15711144849E+02  0.47000000000E+01 0. -1.
         -5    1    1    2    0  503  0.11036405907E+02 -0.48252288486E+01 -0.27537245473E+03  0.27567583121E+03  0.47000000000E+01 0. -1.
<mgrwt>
<rscale>  2 0.12929621E+02</rscale>
<asrwt>0</asrwt>
<pdfrwt beam="1">  1       21 0.54530743E-03 0.12929621E+02</pdfrwt>
<pdfrwt beam="2">  1       21 0.44283461E-01 0.12929621E+02</pdfrwt>
<totfact> 0.30668809E+07</totfact>
</mgrwt>
</event>
<event>
 4    1  0.3858687E+006  0.7157862E+01  0.7546771E-02  0.2285367E+00
         21   -1    0    0  501  502  0.00000000000E+00  0.00000000000E+00  0.19520342327E+04  0.19520342327E+04  0.00000000000E+00 0. -1.
         21   -1    0    0  502  503 -0.00000000000E+00 -0.00000000000E+00 -0.41243617310E-01  0.41243617310E-01  0.00000000000E+00 0.  1.
          5    1    1    2  501    0  0.29092395342E+01 -0.45476713212E+01  0.15645490994E+04  0.15645654730E+04  0.47000000000E+01 0. -1.
         -5    1    1    2    0  503 -0.29092395342E+01  0.45476713212E+01  0.38744388965E+03  0.38751000325E+03  0.47000000000E+01 0.  1.
<mgrwt>
<rscale>  2 0.71578620E+01</rscale>
<asrwt>0</asrwt>
<pdfrwt beam="1">  1       21 0.30023898E+00 0.71578620E+01</pdfrwt>
<pdfrwt beam="2">  1       21 0.63467354E-05 0.71578620E+01</pdfrwt>
<totfact> 0.18029756E+08</totfact>
</mgrwt>
</event>
<event>
 4    1  0.3858687E+006  0.4876807E+01  0.7546771E-02  0.2589483E+00
         21   -1    0    0  501  502  0.00000000000E+00  0.00000000000E+00  0.54850066294E+00  0.54850066294E+00  0.00000000000E+00 0. -1.
         21   -1    0    0  502  503 -0.00000000000E+00 -0.00000000000E+00 -0.83758598317E+02  0.83758598317E+02  0.00000000000E+00 0. -1.
          5    1    1    2  501    0 -0.12654688366E+01 -0.30304937005E+00 -0.12329837778E+02  0.13259266568E+02  0.47000000000E+01 0. -1.
         -5    1    1    2    0  503  0.12654688366E+01  0.30304937005E+00 -0.70880259876E+02  0.71047832411E+02  0.47000000000E+01 0. -1.
<mgrwt>
<rscale>  2 0.48768074E+01</rscale>
<asrwt>0</asrwt>
<pdfrwt beam="1">  1       21 0.84384688E-04 0.48768074E+01</pdfrwt>
<pdfrwt beam="2">  1       21 0.12885943E-01 0.48768074E+01</pdfrwt>
<totfact> 0.18210252E+09</totfact>
</mgrwt>
</event>
<event>
 4    1  0.3858687E+006  0.7486828E+01  0.7546771E-02  0.2254544E+00
         21   -1    0    0  503  502  0.00000000000E+00  0.00000000000E+00  0.13679147175E+04  0.13679147175E+04  0.00000000000E+00 0.  1.
         21   -1    0    0  501  503 -0.00000000000E+00 -0.00000000000E+00 -0.40981556782E-01  0.40981556782E-01  0.00000000000E+00 0. -1.
          5    1    1    2  501    0 -0.41674723669E+01 -0.40736678911E+01  0.67647130160E+03  0.67651273047E+03  0.47000000000E+01 0.  1.
         -5    1    1    2    0  502  0.41674723669E+01  0.40736678911E+01  0.69140243436E+03  0.69144296861E+03  0.47000000000E+01 0.  1.
<mgrwt>
<rscale>  2 0.74868282E+01</rscale>
<asrwt>0</asrwt>
<pdfrwt beam="1">  1       21 0.21041185E+00 0.74868282E+01</pdfrwt>
<pdfrwt beam="2">  1       21 0.63059505E-05 0.74868282E+01</pdfrwt>
<totfact> 0.44725782E+08</totfact>
</mgrwt>
</event>
<event>
 4    1  0.3858687E+006  0.5275218E+01  0.7546771E-02  0.2520530E+00
         21   -1    0    0  503  502  0.00000000000E+00  0.00000000000E+00  0.30163884606E+01  0.30163884606E+01  0.00000000000E+00 0. -1.
         21   -1    0    0  501  503 -0.00000000000E+00 -0.00000000000E+00 -0.96971526695E+01  0.96971526695E+01  0.00000000000E+00 0. -1.
          5    1    1    2  501    0  0.16031021729E+01 -0.17798829017E+01 -0.47421973189E+01  0.70934022255E+01  0.47000000000E+01 0. -1.
         -5    1    1    2    0  502 -0.16031021729E+01  0.17798829017E+01 -0.19385668900E+01  0.56201389047E+01  0.47000000000E+01 0. -1.
<mgrwt>
<rscale>  2 0.52752175E+01</rscale>
<asrwt>0</asrwt>
<pdfrwt beam="1">  1       21 0.46405977E-03 0.52752175E+01</pdfrwt>
<pdfrwt beam="2">  1       21 0.14918696E-02 0.52752175E+01</pdfrwt>
<totfact> 0.46292921E+09</totfact>
</mgrwt>
</event>
<event>
 4    1  0.3858687E+006  0.1421129E+02  0.7546771E-02  0.1893136E+00
         21   -1    0    0  501  502  0.00000000000E+00  0.00000000000E+00  0.46004059459E+03  0.46004059459E+03  0.00000000000E+00 0. -1.
         21   -1    0    0  502  503 -0.00000000000E+00 -0.00000000000E+00 -0.18195678817E+01  0.18195678817E+01  0.00000000000E+00 0. -1.
          5    1    1    2  501    0 -0.86135059785E+01 -0.10279992893E+02  0.43026247041E+03  0.43049710124E+03  0.47000000000E+01 0. -1.
         -5    1    1    2    0  503  0.86135059785E+01  0.10279992893E+02  0.27958556306E+02  0.31363061232E+02  0.47000000000E+01 0. -1.
<mgrwt>
<rscale>  2 0.14211289E+02</rscale>
<asrwt>0</asrwt>
<pdfrwt beam="1">  1       21 0.70775384E-01 0.14211289E+02</pdfrwt>
<pdfrwt beam="2">  1       21 0.27993389E-03 0.14211289E+02</pdfrwt>
<totfact> 0.33309771E+07</totfact>
</mgrwt>
</event>
<event>
 4    1  0.3858687E+006  0.7390005E+01  0.7546771E-02  0.2263384E+00
         21   -1    0    0  501  502  0.00000000000E+00  0.00000000000E+00  0.54209518266E+00  0.54209518266E+00  0.00000000000E+00 0.  1.
         21   -1    0    0  502  503 -0.00000000000E+00 -0.00000000000E+00 -0.12736325006E+03  0.12736325006E+03  0.00000000000E+00 0.  1.
          5    1    1    2  501    0  0.42087765837E+01 -0.38481641878E+01 -0.34172782948E+02  0.34962712457E+02  0.47000000000E+01 0.  1.
         -5    1    1    2    0  503 -0.42087765837E+01  0.38481641878E+01 -0.92648371925E+02  0.92942632781E+02  0.47000000000E+01 0.  1.
<mgrwt>
<rscale>  2 0.73900046E+01</rscale>
<asrwt>0</asrwt>
<pdfrwt beam="1">  1       21 0.83399194E-04 0.73900046E+01</pdfrwt>
<pdfrwt beam="2">  1       21 0.19594361E-01 0.73900046E+01</pdfrwt>
<totfact> 0.13360044E+09</totfact>
</mgrwt>
</event>
<event>
 4    1  0.3858687E+006  0.6664989E+01  0.7546771E-02  0.2336154E+00
         21   -1    0    0  503  502  0.00000000000E+00  0.00000000000E+00  0.47723782070E+00  0.47723782070E+00  0.00000000000E+00 0. -1.
         21   -1    0    0  501  503 -0.00000000000E+00 -0.00000000000E+00 -0.12901419524E+03  0.12901419524E+03  0.00000000000E+00 0.  1.
          5    1    1    2  501    0 -0.46522558775E+01  0.82981187375E+00 -0.98437805806E+02  0.98663183024E+02  0.47000000000E+01 0.  1.
         -5    1    1    2    0  502  0.46522558775E+01 -0.82981187375E+00 -0.30099151614E+02  0.30828250038E+02  0.47000000000E+01 0. -1.
<mgrwt>
<rscale>  2 0.66649886E+01</rscale>
<asrwt>0</asrwt>
<pdfrwt beam="1">  1       21 0.73421281E-04 0.66649886E+01</pdfrwt>
<pdfrwt beam="2">  1       21 0.19848317E-01 0.66649886E+01</pdfrwt>
<totfact> 0.14443566E+09</totfact>
</mgrwt>
</event>
<event>
 4    1  0.3858687E+006  0.6348401E+01  0.7546771E-02  0.2372170E+00
         21   -1    0    0  503  502  0.00000000000E+00  0.00000000000E+00  0.70768385201E+02  0.70768385201E+02  0.00000000000E+00 0. -1.
         21   -1    0    0  501  503 -0.00000000000E+00 -0.00000000000E+00 -0.14288406404E+01  0.14288406404E+01  0.00000000000E+00 0.  1.
          5    1    1    2  501    0 -0.39771815497E+01  0.15473256145E+01  0.66746259594E+01  0.92115591153E+01  0.47000000000E+01 0.  1.
         -5    1    1    2    0  502  0.39771815497E+01 -0.15473256145E+01  0.62664918601E+02  0.62985666726E+02  0.47000000000E+01 0. -1.
<mgrwt>
<rscale>  2 0.63484006E+01</rscale>
<asrwt>0</asrwt>
<pdfrwt beam="1">  1       21 0.10887441E-01 0.63484006E+01</pdfrwt>
<pdfrwt beam="2">  1       21 0.21982169E-03 0.63484006E+01</pdfrwt>
<totfact> 0.81609457E+08</totfact>
</mgrwt>
</event>
<event>
 4    1  0.3858687E+006  0.5754017E+01  0.7546771E-02  0.2448582E+00
         21   -1    0    0  503  502  0.00000000000E+00  0.00000000000E+00  0.75176054124E-01  0.75176054124E-01  0.00000000000E+00 0. -1.
         21   -1    0    0  501  503 -0.00000000000E+00 -0.00000000000E+00 -0.55502814035E+03  0.55502814035E+03  0.00000000000E+00 0.  1.
          5    1    1    2  501    0 -0.28883818041E+01 -0.16358354202E+01 -0.15135112919E+03  0.15146046683E+03  0.47000000000E+01 0.  1.
         -5    1    1    2    0  502  0.28883818041E+01  0.16358354202E+01 -0.40360183511E+03  0.40364284957E+03  0.47000000000E+01 0. -1.
<mgrwt>
<rscale>  2 0.57540166E+01</rscale>
<asrwt>0</asrwt>
<pdfrwt beam="1">  1       21 0.11565677E-04 0.57540166E+01</pdfrwt>
<pdfrwt beam="2">  1       21 0.85387980E-01 0.57540166E+01</pdfrwt>
<totfact> 0.11611937E+09</totfact>
</mgrwt>
</event>
<event>
 4    1  0.3858687E+006  0.8844047E+01  0.7546771E-02  0.2147435E+00
         21   -1    0    0  503  502  0.00000000000E+00  0.00000000000E+00  0.68491158594E+02  0.68491158594E+02  0.00000000000E+00 0.  1.
         21   -1    0    0  501  503 -0.00000000000E+00 -0.00000000000E+00 -0.59997522135E+01  0.59997522135E+01  0.00000000000E+00 0. -1.
          5    1    1    2  501    0 -0.67550108037E+01 -0.32399056607E+01 -0.22681330505E+01  0.91302566877E+01  0.47000000000E+01 0. -1.
         -5    1    1    2    0  502  0.67550108037E+01  0.32399056607E+01  0.64759539431E+02  0.65360654120E+02  0.47000000000E+01 0.  1.
<mgrwt>
<rscale>  2 0.88440466E+01</rscale>
<asrwt>0</asrwt>
<pdfrwt beam="1">  1       21 0.10537101E-01 0.88440466E+01</pdfrwt>
<pdfrwt beam="2">  1       21 0.92303885E-03 0.88440466E+01</pdfrwt>
<totfact> 0.14105666E+08</totfact>
</mgrwt>
</event>
<event>
 4    1  0.3858687E+006  0.5954344E+01  0.7546771E-02  0.2421404E+00
         21   -1    0    0  501  502  0.00000000000E+00  0.00000000000E+00  0.69021382434E+01  0.69021382434E+01  0.00000000000E+00 0.  1.
         21   -1    0    0  502  503 -0.00000000000E+00 -0.00000000000E+00 -0.56003176318E+01  0.56003176318E+01  0.00000000000E+00 0.  1.
          5    1    1    2  501    0 -0.18773661260E+01  0.31368309806E+01 -0.11477082448E+01  0.60639464367E+01  0.47000000000E+01 0.  1.
         -5    1    1    2    0  503  0.18773661260E+01 -0.31368309806E+01  0.24495288564E+01  0.64385094385E+01  0.47000000000E+01 0.  1.
<mgrwt>
<rscale>  2 0.59543440E+01</rscale>
<asrwt>0</asrwt>
<pdfrwt beam="1">  1       21 0.10618674E-02 0.59543440E+01</pdfrwt>
<pdfrwt beam="2">  1       21 0.86158734E-03 0.59543440E+01</pdfrwt>
<totfact> 0.35522399E+09</totfact>
</mgrwt>
</event>
<event>
 4    1  0.3858687E+006  0.5685370E+01  0.7546771E-02  0.2458265E+00
         21   -1    0    0  501  502  0.00000000000E+00  0.00000000000E+00  0.24508099884E+01  0.24508099884E+01  0.00000000000E+00 0. -1.
         21   -1    0    0  502  503 -0.00000000000E+00 -0.00000000000E+00 -0.13407856443E+02  0.13407856443E+02  0.00000000000E+00 0.  1.
          5    1    1    2  501    0  0.31833759977E+01 -0.31551980437E+00 -0.64918675693E+01  0.86294715960E+01  0.47000000000E+01 0.  1.
         -5    1    1    2    0  503 -0.31833759977E+01  0.31551980437E+00 -0.44651788853E+01  0.72291948354E+01  0.47000000000E+01 0. -1.
<mgrwt>
<rscale>  2 0.56853703E+01</rscale>
<asrwt>0</asrwt>
<pdfrwt beam="1">  1       21 0.37704769E-03 0.56853703E+01</pdfrwt>
<pdfrwt beam="2">  1       21 0.20627472E-02 0.56853703E+01</pdfrwt>
<totfact> 0.41792610E+09</totfact>
</mgrwt>
</event>
<event>
 4    1  0.3858687E+006  0.9049751E+01  0.7546771E-02  0.2133477E+00
         21   -1    0    0  503  502  0.00000000000E+00  0.00000000000E+00  0.10740141794E+04  0.10740141794E+04  0.00000000000E+00 0. -1.
         21   -1    0    0  501  503 -0.00000000000E+00 -0.00000000000E+00 -0.41365293071E+00  0.41365293071E+00  0.00000000000E+00 0.  1.
          5    1    1    2  501    0 -0.27302706420E+00 -0.77287414680E+01  0.51622390798E+02  0.52409629078E+02  0.47000000000E+01 0.  1.
         -5    1    1    2    0  502  0.27302706420E+00  0.77287414680E+01  0.10219781357E+04  0.10220182033E+04  0.47000000000E+01 0. -1.
<mgrwt>
<rscale>  2 0.90497507E+01</rscale>
<asrwt>0</asrwt>
<pdfrwt beam="1">  1       21 0.16523072E+00 0.90497507E+01</pdfrwt>
<pdfrwt beam="2">  1       21 0.63639772E-04 0.90497507E+01</pdfrwt>
<totfact> 0.37154172E+07</totfact>
</mgrwt>
</event>
<event>
 4    1  0.3858687E+006  0.2906463E+02  0.7546771E-02  0.1608664E+00
         21   -1    0    0  501  502  0.00000000000E+00  0.00000000000E+00  0.89442703121E+01  0.89442703121E+01  0.00000000000E+00 0.  1.
         21   -1    0    0  502  503 -0.00000000000E+00 -0.00000000000E+00 -0.19260267902E+03  0.19260267902E+03  0.00000000000E+00 0. -1.
          5    1    1    2  501    0 -0.10316261029E+02  0.26762613329E+02 -0.19888536479E+02  0.35217986840E+02  0.47000000000E+01 0.  1.
         -5    1    1    2    0  503  0.10316261029E+02 -0.26762613329E+02 -0.16376987223E+03  0.16632896249E+03  0.47000000000E+01 0. -1.
<mgrwt>
<rscale>  2 0.29064630E+02</rscale>
<asrwt>0</asrwt>
<pdfrwt beam="1">  1       21 0.13760416E-02 0.29064630E+02</pdfrwt>
<pdfrwt beam="2">  1       21 0.29631182E-01 0.29064630E+02</pdfrwt>
<totfact> 0.19800083E+07</totfact>
</mgrwt>
</event>
<event>
 4    1  0.3858687E+006  0.5677933E+01  0.7546771E-02  0.2459326E+00
         21   -1    0    0  503  502  0.00000000000E+00  0.00000000000E+00  0.34654332836E+02  0.34654332836E+02  0.00000000000E+00 0.  1.
         21   -1    0    0  501  503 -0.00000000000E+00 -0.00000000000E+00 -0.20171488299E+01  0.20171488299E+01  0.00000000000E+00 0.  1.
          5    1    1    2  501    0 -0.17947262116E+00 -0.31806773000E+01  0.28595513848E+01  0.63573542163E+01  0.47000000000E+01 0.  1.
         -5    1    1    2    0  502  0.17947262116E+00  0.31806773000E+01  0.29777632622E+02  0.30314127450E+02  0.47000000000E+01 0.  1.
<mgrwt>
<rscale>  2 0.56779326E+01</rscale>
<asrwt>0</asrwt>
<pdfrwt beam="1">  1       21 0.53314354E-02 0.56779326E+01</pdfrwt>
<pdfrwt beam="2">  1       21 0.31033061E-03 0.56779326E+01</pdfrwt>
<totfact> 0.13705715E+09</totfact>
</mgrwt>
</event>
<event>
 4    1  0.3858687E+006  0.6369189E+01  0.7546771E-02  0.2369715E+00
         21   -1    0    0  503  502  0.00000000000E+00  0.00000000000E+00  0.12497177952E+00  0.12497177952E+00  0.00000000000E+00 0.  1.
         21   -1    0    0  501  503 -0.00000000000E+00 -0.00000000000E+00 -0.34798131641E+03  0.34798131641E+03  0.00000000000E+00 0.  1.
          5    1    1    2  501    0  0.21363313069E+01  0.37299681784E+01 -0.21903931239E+03  0.21913189395E+03  0.47000000000E+01 0.  1.
         -5    1    1    2    0  502 -0.21363313069E+01 -0.37299681784E+01 -0.12881703224E+03  0.12897439423E+03  0.47000000000E+01 0.  1.
<mgrwt>
<rscale>  2 0.63691894E+01</rscale>
<asrwt>0</asrwt>
<pdfrwt beam="1">  1       21 0.19226659E-04 0.63691894E+01</pdfrwt>
<pdfrwt beam="2">  1       21 0.53534943E-01 0.63691894E+01</pdfrwt>
<totfact> 0.15346230E+09</totfact>
</mgrwt>
</event>
<event>
 4    1  0.3858687E+006  0.7183082E+01  0.7546771E-02  0.2282923E+00
         21   -1    0    0  501  502  0.00000000000E+00  0.00000000000E+00  0.17953152591E+01  0.17953152591E+01  0.00000000000E+00 0. -1.
         21   -1    0    0  502  503 -0.00000000000E+00 -0.00000000000E+00 -0.28744806384E+02  0.28744806384E+02  0.00000000000E+00 0.  1.
          5    1    1    2  501    0  0.45886128858E+01 -0.29071106186E+01 -0.13269434719E+02  0.15088888565E+02  0.47000000000E+01 0. -1.
         -5    1    1    2    0  503 -0.45886128858E+01  0.29071106186E+01 -0.13680056405E+02  0.15451233078E+02  0.47000000000E+01 0. -1.
<mgrwt>
<rscale>  2 0.71830815E+01</rscale>
<asrwt>0</asrwt>
<pdfrwt beam="1">  1       21 0.27620238E-03 0.71830815E+01</pdfrwt>
<pdfrwt beam="2">  1       21 0.44222774E-02 0.71830815E+01</pdfrwt>
<totfact> 0.25705837E+09</totfact>
</mgrwt>
</event>
<event>
 4    1  0.3858687E+006  0.4944629E+01  0.7546771E-02  0.2577071E+00
         21   -1    0    0  503  502  0.00000000000E+00  0.00000000000E+00  0.77573024486E+03  0.77573024486E+03  0.00000000000E+00 0. -1.
         21   -1    0    0  501  503 -0.00000000000E+00 -0.00000000000E+00 -0.34085050134E-01  0.34085050134E-01  0.00000000000E+00 0. -1.
          5    1    1    2  501    0 -0.10531324193E+01  0.11181518801E+01  0.28139763391E+03  0.28144107326E+03  0.47000000000E+01 0. -1.
         -5    1    1    2    0  502  0.10531324193E+01 -0.11181518801E+01  0.49429852591E+03  0.49432325665E+03  0.47000000000E+01 0. -1.
<mgrwt>
<rscale>  2 0.49446286E+01</rscale>
<asrwt>0</asrwt>
<pdfrwt beam="1">  1       21 0.11932898E+00 0.49446286E+01</pdfrwt>
<pdfrwt beam="2">  1       21 0.52444752E-05 0.49446286E+01</pdfrwt>
<totfact> 0.15212646E+09</totfact>
</mgrwt>
</event>
<event>
 4    1  0.3858687E+006  0.1104987E+02  0.7546771E-02  0.2019740E+00
         21   -1    0    0  503  502  0.00000000000E+00  0.00000000000E+00  0.14859290765E+01  0.14859290765E+01  0.00000000000E+00 0.  1.
         21   -1    0    0  501  503 -0.00000000000E+00 -0.00000000000E+00 -0.86252348468E+02  0.86252348468E+02  0.00000000000E+00 0.  1.
          5    1    1    2  501    0 -0.33897096062E+01 -0.94084826462E+01 -0.32839944142E+02  0.34649121319E+02  0.47000000000E+01 0.  1.
         -5    1    1    2    0  502  0.33897096062E+01  0.94084826462E+01 -0.51926475250E+02  0.53089156226E+02  0.47000000000E+01 0.  1.
<mgrwt>
<rscale>  2 0.11049872E+02</rscale>
<asrwt>0</asrwt>
<pdfrwt beam="1">  1       21 0.22860443E-03 0.11049872E+02</pdfrwt>
<pdfrwt beam="2">  1       21 0.13269595E-01 0.11049872E+02</pdfrwt>
<totfact> 0.79753998E+08</totfact>
</mgrwt>
</event>
<event>
 4    1  0.3858687E+006  0.4901773E+01  0.7546771E-02  0.2584880E+00
         21   -1    0    0  503  502  0.00000000000E+00  0.00000000000E+00  0.85299036220E+00  0.85299036220E+00  0.00000000000E+00 0. -1.
         21   -1    0    0  501  503 -0.00000000000E+00 -0.00000000000E+00 -0.28933887052E+02  0.28933887052E+02  0.00000000000E+00 0. -1.
          5    1    1    2  501    0 -0.13853523637E+01  0.13483536579E+00 -0.11617981476E+02  0.12609713531E+02  0.47000000000E+01 0. -1.
         -5    1    1    2    0  502  0.13853523637E+01 -0.13483536579E+00 -0.16462915213E+02  0.17177163883E+02  0.47000000000E+01 0. -1.
<mgrwt>
<rscale>  2 0.49017733E+01</rscale>
<asrwt>0</asrwt>
<pdfrwt beam="1">  1       21 0.13122931E-03 0.49017733E+01</pdfrwt>
<pdfrwt beam="2">  1       21 0.44513665E-02 0.49017733E+01</pdfrwt>
<totfact> 0.49579415E+09</totfact>
</mgrwt>
</event>
<event>
 4    1  0.3858687E+006  0.7918405E+01  0.7546771E-02  0.2217291E+00
         21   -1    0    0  503  502  0.00000000000E+00  0.00000000000E+00  0.79904622604E+02  0.79904622604E+02  0.00000000000E+00 0. -1.
         21   -1    0    0  501  503 -0.00000000000E+00 -0.00000000000E+00 -0.22886554372E+01  0.22886554372E+01  0.00000000000E+00 0.  1.
          5    1    1    2  501    0  0.62882207847E+01 -0.10341293716E+01  0.54934600134E+01  0.96373879819E+01  0.47000000000E+01 0.  1.
         -5    1    1    2    0  502 -0.62882207847E+01  0.10341293716E+01  0.72122507154E+02  0.72555890060E+02  0.47000000000E+01 0. -1.
<mgrwt>
<rscale>  2 0.79184054E+01</rscale>
<asrwt>0</asrwt>
<pdfrwt beam="1">  1       21 0.12293017E-01 0.79184054E+01</pdfrwt>
<pdfrwt beam="2">  1       21 0.35210090E-03 0.79184054E+01</pdfrwt>
<totfact> 0.40806244E+08</totfact>
</mgrwt>
</event>
<event>
 4    1  0.3858687E+006  0.4730325E+01  0.7546771E-02  0.2617339E+00
         21   -1    0    0  501  502  0.00000000000E+00  0.00000000000E+00  0.25807023789E+00  0.25807023789E+00  0.00000000000E+00 0. -1.
         21   -1    0    0  502  503 -0.00000000000E+00 -0.00000000000E+00 -0.92220248552E+02  0.92220248552E+02  0.00000000000E+00 0. -1.
          5    1    1    2  501    0  0.10536769506E+00 -0.52428456299E+00 -0.34673244401E+02  0.34994426041E+02  0.47000000000E+01 0. -1.
         -5    1    1    2    0  503 -0.10536769506E+00  0.52428456299E+00 -0.57288933912E+02  0.57483892748E+02  0.47000000000E+01 0. -1.
<mgrwt>
<rscale>  2 0.47303252E+01</rscale>
<asrwt>0</asrwt>
<pdfrwt beam="1">  1       21 0.39703051E-04 0.47303252E+01</pdfrwt>
<pdfrwt beam="2">  1       21 0.14187753E-01 0.47303252E+01</pdfrwt>
<totfact> 0.41274935E+09</totfact>
</mgrwt>
</event>
<event>
 4    1  0.3858687E+006  0.7727953E+01  0.7546771E-02  0.2233315E+00
         21   -1    0    0  503  502  0.00000000000E+00  0.00000000000E+00  0.14496481511E+01  0.14496481511E+01  0.00000000000E+00 0. -1.
         21   -1    0    0  501  503 -0.00000000000E+00 -0.00000000000E+00 -0.68230768110E+02  0.68230768110E+02  0.00000000000E+00 0.  1.
          5    1    1    2  501    0  0.54522306376E+01 -0.28114838010E+01 -0.55320796706E+02  0.55857961010E+02  0.47000000000E+01 0.  1.
         -5    1    1    2    0  502 -0.54522306376E+01  0.28114838010E+01 -0.11460323253E+02  0.13822455250E+02  0.47000000000E+01 0. -1.
<mgrwt>
<rscale>  2 0.77279532E+01</rscale>
<asrwt>0</asrwt>
<pdfrwt beam="1">  1       21 0.22302277E-03 0.77279532E+01</pdfrwt>
<pdfrwt beam="2">  1       21 0.10497042E-01 0.77279532E+01</pdfrwt>
<totfact> 0.97279170E+08</totfact>
</mgrwt>
</event>
<event>
 4    1  0.3858687E+006  0.7554133E+01  0.7546771E-02  0.2248508E+00
         21   -1    0    0  501  502  0.00000000000E+00  0.00000000000E+00  0.38724183106E+01  0.38724183106E+01  0.00000000000E+00 0. -1.
         21   -1    0    0  502  503 -0.00000000000E+00 -0.00000000000E+00 -0.15359241232E+02  0.15359241232E+02  0.00000000000E+00 0.  1.
          5    1    1    2  501    0  0.10367918936E+01  0.58223695041E+01 -0.76800246087E+01  0.10772543899E+02  0.47000000000E+01 0.  1.
         -5    1    1    2    0  503 -0.10367918936E+01 -0.58223695041E+01 -0.38067983127E+01  0.84591156433E+01  0.47000000000E+01 0.  1.
<mgrwt>
<rscale>  2 0.75541329E+01</rscale>
<asrwt>0</asrwt>
<pdfrwt beam="1">  1       21 0.59575667E-03 0.75541329E+01</pdfrwt>
<pdfrwt beam="2">  1       21 0.23629602E-02 0.75541329E+01</pdfrwt>
<totfact> 0.23012027E+09</totfact>
</mgrwt>
</event>
<event>
 4    1  0.3858687E+006  0.5611128E+01  0.7546771E-02  0.2468962E+00
         21   -1    0    0  501  502  0.00000000000E+00  0.00000000000E+00  0.58793202055E+01  0.58793202055E+01  0.00000000000E+00 0. -1.
         21   -1    0    0  502  503 -0.00000000000E+00 -0.00000000000E+00 -0.14056570534E+03  0.14056570534E+03  0.00000000000E+00 0. -1.
          5    1    1    2  501    0  0.11794249538E+01 -0.28290845406E+01  0.44709873818E+01  0.71745725118E+01  0.47000000000E+01 0. -1.
         -5    1    1    2    0  503 -0.11794249538E+01  0.28290845406E+01 -0.13915737251E+03  0.13927045303E+03  0.47000000000E+01 0. -1.
<mgrwt>
<rscale>  2 0.56111285E+01</rscale>
<asrwt>0</asrwt>
<pdfrwt beam="1">  1       21 0.90451079E-03 0.56111285E+01</pdfrwt>
<pdfrwt beam="2">  1       21 0.21625493E-01 0.56111285E+01</pdfrwt>
<totfact> 0.35749080E+07</totfact>
</mgrwt>
</event>
<event>
 4    1  0.3858687E+006  0.4958475E+01  0.7546771E-02  0.2574573E+00
         21   -1    0    0  503  502  0.00000000000E+00  0.00000000000E+00  0.16169138677E+02  0.16169138677E+02  0.00000000000E+00 0. -1.
         21   -1    0    0  501  503 -0.00000000000E+00 -0.00000000000E+00 -0.26756298243E+01  0.26756298243E+01  0.00000000000E+00 0. -1.
          5    1    1    2  501    0  0.53788618136E+00  0.14856502464E+01  0.55593626598E+00  0.49895433990E+01  0.47000000000E+01 0. -1.
         -5    1    1    2    0  502 -0.53788618136E+00 -0.14856502464E+01  0.12937572586E+02  0.13855225102E+02  0.47000000000E+01 0. -1.
<mgrwt>
<rscale>  2 0.49584754E+01</rscale>
<asrwt>0</asrwt>
<pdfrwt beam="1">  1       21 0.24875597E-02 0.49584754E+01</pdfrwt>
<pdfrwt beam="2">  1       21 0.41163537E-03 0.49584754E+01</pdfrwt>
<totfact> 0.24792415E+09</totfact>
</mgrwt>
</event>
<event>
 4    1  0.3858687E+006  0.5052275E+01  0.7546771E-02  0.2557963E+00
         21   -1    0    0  503  502  0.00000000000E+00  0.00000000000E+00  0.44631696794E+01  0.44631696794E+01  0.00000000000E+00 0. -1.
         21   -1    0    0  501  503 -0.00000000000E+00 -0.00000000000E+00 -0.63959240850E+01  0.63959240850E+01  0.00000000000E+00 0. -1.
          5    1    1    2  501    0  0.15160795117E+01 -0.10662966058E+01 -0.27325674726E+01  0.57439020300E+01  0.47000000000E+01 0. -1.
         -5    1    1    2    0  502 -0.15160795117E+01  0.10662966058E+01  0.79981306699E+00  0.51151917344E+01  0.47000000000E+01 0. -1.
<mgrwt>
<rscale>  2 0.50522753E+01</rscale>
<asrwt>0</asrwt>
<pdfrwt beam="1">  1       21 0.68664149E-03 0.50522753E+01</pdfrwt>
<pdfrwt beam="2">  1       21 0.98398831E-03 0.50522753E+01</pdfrwt>
<totfact> 0.46230931E+09</totfact>
</mgrwt>
</event>
<event>
 4    1  0.3858687E+006  0.5107488E+01  0.7546771E-02  0.2548432E+00
         21   -1    0    0  503  502  0.00000000000E+00  0.00000000000E+00  0.18543988368E+02  0.18543988368E+02  0.00000000000E+00 0.  1.
         21   -1    0    0  501  503 -0.00000000000E+00 -0.00000000000E+00 -0.75756244282E+02  0.75756244282E+02  0.00000000000E+00 0.  1.
          5    1    1    2  501    0  0.59431907053E-01  0.19982257125E+01 -0.75316422953E+02  0.75489403260E+02  0.47000000000E+01 0.  1.
         -5    1    1    2    0  502 -0.59431907053E-01 -0.19982257125E+01  0.18104167039E+02  0.18810829389E+02  0.47000000000E+01 0.  1.
<mgrwt>
<rscale>  2 0.51074884E+01</rscale>
<asrwt>0</asrwt>
<pdfrwt beam="1">  1       21 0.28529214E-02 0.51074884E+01</pdfrwt>
<pdfrwt beam="2">  1       21 0.11654806E-01 0.51074884E+01</pdfrwt>
<totfact> 0.17481062E+07</totfact>
</mgrwt>
</event>
<event>
 4    1  0.3858687E+006  0.1011625E+02  0.7546771E-02  0.2068431E+00
         21   -1    0    0  503  502  0.00000000000E+00  0.00000000000E+00  0.23986560484E+01  0.23986560484E+01  0.00000000000E+00 0. -1.
         21   -1    0    0  501  503 -0.00000000000E+00 -0.00000000000E+00 -0.43537608735E+02  0.43537608735E+02  0.00000000000E+00 0.  1.
          5    1    1    2  501    0 -0.79954883530E+01 -0.40398864411E+01 -0.23821233444E+02  0.25880295193E+02  0.47000000000E+01 0.  1.
         -5    1    1    2    0  502  0.79954883530E+01  0.40398864411E+01 -0.17317719243E+02  0.20055969591E+02  0.47000000000E+01 0. -1.
<mgrwt>
<rscale>  2 0.10116250E+02</rscale>
<asrwt>0</asrwt>
<pdfrwt beam="1">  1       21 0.36902400E-03 0.10116250E+02</pdfrwt>
<pdfrwt beam="2">  1       21 0.66980939E-02 0.10116250E+02</pdfrwt>
<totfact> 0.11438778E+09</totfact>
</mgrwt>
</event>
<event>
 4    1  0.3858687E+006  0.4776111E+01  0.7546771E-02  0.2608473E+00
         21   -1    0    0  501  502  0.00000000000E+00  0.00000000000E+00  0.25924366035E+00  0.25924366035E+00  0.00000000000E+00 0.  1.
         21   -1    0    0  502  503 -0.00000000000E+00 -0.00000000000E+00 -0.10076717029E+03  0.10076717029E+03  0.00000000000E+00 0.  1.
          5    1    1    2  501    0 -0.70114942844E+00  0.47919591578E+00 -0.32267854707E+02  0.32619406595E+02  0.47000000000E+01 0.  1.
         -5    1    1    2    0  503  0.70114942844E+00 -0.47919591578E+00 -0.68240071927E+02  0.68407007359E+02  0.47000000000E+01 0.  1.
<mgrwt>
<rscale>  2 0.47761113E+01</rscale>
<asrwt>0</asrwt>
<pdfrwt beam="1">  1       21 0.39883596E-04 0.47761113E+01</pdfrwt>
<pdfrwt beam="2">  1       21 0.15502659E-01 0.47761113E+01</pdfrwt>
<totfact> 0.36130003E+09</totfact>
</mgrwt>
</event>
<event>
 4    1  0.3858687E+006  0.8593977E+01  0.7546771E-02  0.2165115E+00
         21   -1    0    0  503  502  0.00000000000E+00  0.00000000000E+00  0.16403473230E+02  0.16403473230E+02  0.00000000000E+00 0. -1.
         21   -1    0    0  501  503 -0.00000000000E+00 -0.00000000000E+00 -0.46964812869E+01  0.46964812869E+01  0.00000000000E+00 0.  1.
          5    1    1    2  501    0 -0.28990593229E+01  0.65849753408E+01  0.79976615290E+01  0.11739635221E+02  0.47000000000E+01 0. -1.
         -5    1    1    2    0  502  0.28990593229E+01 -0.65849753408E+01  0.37093304145E+01  0.93603192959E+01  0.47000000000E+01 0.  1.
<mgrwt>
<rscale>  2 0.85939773E+01</rscale>
<asrwt>0</asrwt>
<pdfrwt beam="1">  1       21 0.25236112E-02 0.85939773E+01</pdfrwt>
<pdfrwt beam="2">  1       21 0.72253559E-03 0.85939773E+01</pdfrwt>
<totfact> 0.17394434E+09</totfact>
</mgrwt>
</event>
<event>
 4    1  0.3858687E+006  0.2140211E+02  0.7546771E-02  0.1718802E+00
         21   -1    0    0  503  502  0.00000000000E+00  0.00000000000E+00  0.15321310798E+02  0.15321310798E+02  0.00000000000E+00 0.  1.
         21   -1    0    0  501  503 -0.00000000000E+00 -0.00000000000E+00 -0.33359137101E+02  0.33359137101E+02  0.00000000000E+00 0. -1.
          5    1    1    2  501    0  0.19526164727E+02 -0.73952118696E+01 -0.16861045447E+02  0.27246011104E+02  0.47000000000E+01 0. -1.
         -5    1    1    2    0  502 -0.19526164727E+02  0.73952118696E+01 -0.11767808559E+01  0.21434436795E+02  0.47000000000E+01 0.  1.
<mgrwt>
<rscale>  2 0.21402109E+02</rscale>
<asrwt>0</asrwt>
<pdfrwt beam="1">  1       21 0.23571247E-02 0.21402109E+02</pdfrwt>
<pdfrwt beam="2">  1       21 0.51321750E-02 0.21402109E+02</pdfrwt>
<totfact> 0.15628494E+08</totfact>
</mgrwt>
</event>
<event>
 4    1  0.3858687E+006  0.8816972E+01  0.7546771E-02  0.2149310E+00
         21   -1    0    0  503  502  0.00000000000E+00  0.00000000000E+00  0.42228687604E+01  0.42228687604E+01  0.00000000000E+00 0. -1.
         21   -1    0    0  501  503 -0.00000000000E+00 -0.00000000000E+00 -0.25303696928E+02  0.25303696928E+02  0.00000000000E+00 0.  1.
          5    1    1    2  501    0  0.33992009561E+01 -0.66403630755E+01 -0.18246734565E+02  0.20265298201E+02  0.47000000000E+01 0.  1.
         -5    1    1    2    0  502 -0.33992009561E+01  0.66403630755E+01 -0.28340936027E+01  0.92612674868E+01  0.47000000000E+01 0. -1.
<mgrwt>
<rscale>  2 0.88169716E+01</rscale>
<asrwt>0</asrwt>
<pdfrwt beam="1">  1       21 0.64967213E-03 0.88169716E+01</pdfrwt>
<pdfrwt beam="2">  1       21 0.38928764E-02 0.88169716E+01</pdfrwt>
<totfact> 0.10787758E+09</totfact>
</mgrwt>
</event>
<event>
 4    1  0.3858687E+006  0.7066141E+01  0.7546771E-02  0.2294377E+00
         21   -1    0    0  503  502  0.00000000000E+00  0.00000000000E+00  0.70806383401E-01  0.70806383401E-01  0.00000000000E+00 0. -1.
         21   -1    0    0  501  503 -0.00000000000E+00 -0.00000000000E+00 -0.71710027712E+03  0.71710027712E+03  0.00000000000E+00 0. -1.
          5    1    1    2  501    0 -0.31962921110E+01 -0.41981028009E+01 -0.40477159647E+03  0.40483326896E+03  0.47000000000E+01 0. -1.
         -5    1    1    2    0  502  0.31962921110E+01  0.41981028009E+01 -0.31225787426E+03  0.31233781454E+03  0.47000000000E+01 0. -1.
<mgrwt>
<rscale>  2 0.70661411E+01</rscale>
<asrwt>0</asrwt>
<pdfrwt beam="1">  1       21 0.10893313E-04 0.70661411E+01</pdfrwt>
<pdfrwt beam="2">  1       21 0.11032288E+00 0.70661411E+01</pdfrwt>
<totfact> 0.85793508E+08</totfact>
</mgrwt>
</event>
<event>
 4    1  0.3858687E+006  0.4904759E+01  0.7546771E-02  0.2584332E+00
         21   -1    0    0  503  502  0.00000000000E+00  0.00000000000E+00  0.39836342407E+00  0.39836342407E+00  0.00000000000E+00 0.  1.
         21   -1    0    0  501  503 -0.00000000000E+00 -0.00000000000E+00 -0.86272165321E+02  0.86272165321E+02  0.00000000000E+00 0.  1.
          5    1    1    2  501    0 -0.13991285598E+01  0.95402962477E-01 -0.66673420224E+02  0.66853583501E+02  0.47000000000E+01 0.  1.
         -5    1    1    2    0  502  0.13991285598E+01 -0.95402962477E-01 -0.19200381673E+02  0.19816945245E+02  0.47000000000E+01 0.  1.
<mgrwt>
<rscale>  2 0.49047592E+01</rscale>
<asrwt>0</asrwt>
<pdfrwt beam="1">  1       21 0.61286622E-04 0.49047592E+01</pdfrwt>
<pdfrwt beam="2">  1       21 0.13272654E-01 0.49047592E+01</pdfrwt>
<totfact> 0.26724721E+09</totfact>
</mgrwt>
</event>
<event>
 4    1  0.3858687E+006  0.5022032E+01  0.7546771E-02  0.2563260E+00
         21   -1    0    0  501  502  0.00000000000E+00  0.00000000000E+00  0.55393526188E+01  0.55393526188E+01  0.00000000000E+00 0. -1.
         21   -1    0    0  502  503 -0.00000000000E+00 -0.00000000000E+00 -0.51836426685E+01  0.51836426685E+01  0.00000000000E+00 0. -1.
          5    1    1    2  501    0  0.12646429203E+01  0.12375306885E+01  0.20479001421E+01  0.54235319592E+01  0.47000000000E+01 0. -1.
         -5    1    1    2    0  503 -0.12646429203E+01 -0.12375306885E+01 -0.16921901917E+01  0.52994633281E+01  0.47000000000E+01 0. -1.
<mgrwt>
<rscale>  2 0.50220319E+01</rscale>
<asrwt>0</asrwt>
<pdfrwt beam="1">  1       21 0.85220809E-03 0.50220319E+01</pdfrwt>
<pdfrwt beam="2">  1       21 0.79748349E-03 0.50220319E+01</pdfrwt>
<totfact> 0.45610020E+09</totfact>
</mgrwt>
</event>
<event>
 4    1  0.3858687E+006  0.9603999E+01  0.7546771E-02  0.2098251E+00
         21   -1    0    0  503  502  0.00000000000E+00  0.00000000000E+00  0.46162867959E+01  0.46162867959E+01  0.00000000000E+00 0. -1.
         21   -1    0    0  501  503 -0.00000000000E+00 -0.00000000000E+00 -0.22831499120E+02  0.22831499120E+02  0.00000000000E+00 0.  1.
          5    1    1    2  501    0  0.78620349023E+01 -0.28870738724E+01 -0.13957039504E+02  0.16942129148E+02  0.47000000000E+01 0.  1.
         -5    1    1    2    0  502 -0.78620349023E+01  0.28870738724E+01 -0.42581728192E+01  0.10505656767E+02  0.47000000000E+01 0. -1.
<mgrwt>
<rscale>  2 0.96039986E+01</rscale>
<asrwt>0</asrwt>
<pdfrwt beam="1">  1       21 0.71019798E-03 0.96039986E+01</pdfrwt>
<pdfrwt beam="2">  1       21 0.35125383E-02 0.96039986E+01</pdfrwt>
<totfact> 0.11693803E+09</totfact>
</mgrwt>
</event>
<event>
 4    1  0.3858687E+006  0.9698665E+01  0.7546771E-02  0.2092554E+00
         21   -1    0    0  501  502  0.00000000000E+00  0.00000000000E+00  0.15557815069E+03  0.15557815069E+03  0.00000000000E+00 0.  1.
         21   -1    0    0  502  503 -0.00000000000E+00 -0.00000000000E+00 -0.22786484789E+01  0.22786484789E+01  0.00000000000E+00 0. -1.
          5    1    1    2  501    0 -0.74118091061E+01  0.41278562129E+01  0.14430123764E+03  0.14462680006E+03  0.47000000000E+01 0.  1.
         -5    1    1    2    0  503  0.74118091061E+01 -0.41278562129E+01  0.89982645717E+01  0.13229999110E+02  0.47000000000E+01 0. -1.
<mgrwt>
<rscale>  2 0.96986654E+01</rscale>
<asrwt>0</asrwt>
<pdfrwt beam="1">  1       21 0.23935092E-01 0.96986654E+01</pdfrwt>
<pdfrwt beam="2">  1       21 0.35056143E-03 0.96986654E+01</pdfrwt>
<totfact> 0.15359658E+08</totfact>
</mgrwt>
</event>
<event>
 4    1  0.3858687E+006  0.1761627E+02  0.7546771E-02  0.1797358E+00
         21   -1    0    0  503  502  0.00000000000E+00  0.00000000000E+00  0.15054641100E+02  0.15054641100E+02  0.00000000000E+00 0.  1.
         21   -1    0    0  501  503 -0.00000000000E+00 -0.00000000000E+00 -0.20693372135E+02  0.20693372135E+02  0.00000000000E+00 0. -1.
          5    1    1    2  501    0 -0.15459754106E+02  0.70170410217E+01 -0.17107595406E+01  0.17699140090E+02  0.47000000000E+01 0.  1.
         -5    1    1    2    0  502  0.15459754106E+02 -0.70170410217E+01 -0.39279714951E+01  0.18048873145E+02  0.47000000000E+01 0. -1.
<mgrwt>
<rscale>  2 0.17616267E+02</rscale>
<asrwt>0</asrwt>
<pdfrwt beam="1">  1       21 0.23160986E-02 0.17616267E+02</pdfrwt>
<pdfrwt beam="2">  1       21 0.31835957E-02 0.17616267E+02</pdfrwt>
<totfact> 0.31704016E+08</totfact>
</mgrwt>
</event>
<event>
 4    1  0.3858687E+006  0.9483346E+01  0.7546771E-02  0.2105641E+00
         21   -1    0    0  501  502  0.00000000000E+00  0.00000000000E+00  0.49028617223E+01  0.49028617223E+01  0.00000000000E+00 0. -1.
         21   -1    0    0  502  503 -0.00000000000E+00 -0.00000000000E+00 -0.63307842428E+02  0.63307842428E+02  0.00000000000E+00 0. -1.
          5    1    1    2  501    0  0.47009654344E+01  0.67634886572E+01 -0.45965107641E+00  0.94944791297E+01  0.47000000000E+01 0. -1.
         -5    1    1    2    0  503 -0.47009654344E+01 -0.67634886572E+01 -0.57945329629E+02  0.58716225021E+02  0.47000000000E+01 0. -1.
<mgrwt>
<rscale>  2 0.94833462E+01</rscale>
<asrwt>0</asrwt>
<pdfrwt beam="1">  1       21 0.75428639E-03 0.94833462E+01</pdfrwt>
<pdfrwt beam="2">  1       21 0.97396685E-02 0.94833462E+01</pdfrwt>
<totfact> 0.22150549E+08</totfact>
</mgrwt>
</event>
<event>
 4    1  0.3858687E+006  0.8813259E+01  0.7546771E-02  0.2149568E+00
         21   -1    0    0  501  502  0.00000000000E+00  0.00000000000E+00  0.88970819515E+01  0.88970819515E+01  0.00000000000E+00 0. -1.
         21   -1    0    0  502  503 -0.00000000000E+00 -0.00000000000E+00 -0.90545397229E+01  0.90545397229E+01  0.00000000000E+00 0.  1.
          5    1    1    2  501    0 -0.45422115903E+01  0.59120088570E+01  0.16199968424E+01  0.89609109261E+01  0.47000000000E+01 0. -1.
         -5    1    1    2    0  503  0.45422115903E+01 -0.59120088570E+01 -0.17774546138E+01  0.89907107483E+01  0.47000000000E+01 0.  1.
<mgrwt>
<rscale>  2 0.88132590E+01</rscale>
<asrwt>0</asrwt>
<pdfrwt beam="1">  1       21 0.13687818E-02 0.88132590E+01</pdfrwt>
<pdfrwt beam="2">  1       21 0.13930061E-02 0.88132590E+01</pdfrwt>
<totfact> 0.16835314E+09</totfact>
</mgrwt>
</event>
<event>
 4    1  0.3858687E+006  0.5141117E+01  0.7546771E-02  0.2542713E+00
         21   -1    0    0  503  502  0.00000000000E+00  0.00000000000E+00  0.40553969761E+01  0.40553969761E+01  0.00000000000E+00 0. -1.
         21   -1    0    0  501  503 -0.00000000000E+00 -0.00000000000E+00 -0.88248909873E+02  0.88248909873E+02  0.00000000000E+00 0.  1.
          5    1    1    2  501    0 -0.10580972936E+01 -0.17948589141E+01 -0.86511971070E+02  0.86664596155E+02  0.47000000000E+01 0.  1.
         -5    1    1    2    0  502  0.10580972936E+01  0.17948589141E+01  0.23184581732E+01  0.56397106934E+01  0.47000000000E+01 0. -1.
<mgrwt>
<rscale>  2 0.51411174E+01</rscale>
<asrwt>0</asrwt>
<pdfrwt beam="1">  1       21 0.62390721E-03 0.51411174E+01</pdfrwt>
<pdfrwt beam="2">  1       21 0.13576756E-01 0.51411174E+01</pdfrwt>
<totfact> 0.11789635E+08</totfact>
</mgrwt>
</event>
<event>
 4    1  0.3858687E+006  0.5484443E+01  0.7546771E-02  0.2487779E+00
         21   -1    0    0  503  502  0.00000000000E+00  0.00000000000E+00  0.79317208515E+01  0.79317208515E+01  0.00000000000E+00 0. -1.
         21   -1    0    0  501  503 -0.00000000000E+00 -0.00000000000E+00 -0.47020792177E+01  0.47020792177E+01  0.00000000000E+00 0.  1.
          5    1    1    2  501    0  0.28191105570E+01  0.20427885552E+00 -0.11638531706E+01  0.56065736762E+01  0.47000000000E+01 0.  1.
         -5    1    1    2    0  502 -0.28191105570E+01 -0.20427885552E+00  0.43934948044E+01  0.70272263931E+01  0.47000000000E+01 0. -1.
<mgrwt>
<rscale>  2 0.54844429E+01</rscale>
<asrwt>0</asrwt>
<pdfrwt beam="1">  1       21 0.12202647E-02 0.54844429E+01</pdfrwt>
<pdfrwt beam="2">  1       21 0.72339680E-03 0.54844429E+01</pdfrwt>
<totfact> 0.34561204E+09</totfact>
</mgrwt>
</event>
<event>
 4    1  0.3858687E+006  0.5512801E+01  0.7546771E-02  0.2483503E+00
         21   -1    0    0  501  502  0.00000000000E+00  0.00000000000E+00  0.13940536739E+02  0.13940536739E+02  0.00000000000E+00 0. -1.
         21   -1    0    0  502  503 -0.00000000000E+00 -0.00000000000E+00 -0.21835924697E+01  0.21835924697E+01  0.00000000000E+00 0.  1.
          5    1    1    2  501    0 -0.13360725831E+01 -0.25526236368E+01  0.55534538533E+01  0.78250768098E+01  0.47000000000E+01 0.  1.
         -5    1    1    2    0  503  0.13360725831E+01  0.25526236368E+01  0.62034904160E+01  0.82990523989E+01  0.47000000000E+01 0. -1.
<mgrwt>
<rscale>  2 0.55128012E+01</rscale>
<asrwt>0</asrwt>
<pdfrwt beam="1">  1       21 0.21446979E-02 0.55128012E+01</pdfrwt>
<pdfrwt beam="2">  1       21 0.33593731E-03 0.55128012E+01</pdfrwt>
<totfact> 0.44987564E+09</totfact>
</mgrwt>
</event>
<event>
 4    1  0.3858687E+006  0.5665110E+01  0.7546771E-02  0.2461161E+00
         21   -1    0    0  503  502  0.00000000000E+00  0.00000000000E+00  0.12733476566E+02  0.12733476566E+02  0.00000000000E+00 0. -1.
         21   -1    0    0  501  503 -0.00000000000E+00 -0.00000000000E+00 -0.37341413096E+01  0.37341413096E+01  0.00000000000E+00 0. -1.
          5    1    1    2  501    0  0.10812331619E+01  0.29722733420E+01 -0.19460384553E+00  0.56684516957E+01  0.47000000000E+01 0. -1.
         -5    1    1    2    0  502 -0.10812331619E+01 -0.29722733420E+01  0.91939391021E+01  0.10799166180E+02  0.47000000000E+01 0. -1.
<mgrwt>
<rscale>  2 0.56651102E+01</rscale>
<asrwt>0</asrwt>
<pdfrwt beam="1">  1       21 0.19589964E-02 0.56651102E+01</pdfrwt>
<pdfrwt beam="2">  1       21 0.57448329E-03 0.56651102E+01</pdfrwt>
<totfact> 0.25058918E+09</totfact>
</mgrwt>
</event>
<event>
 4    1  0.3858687E+006  0.6156182E+01  0.7546771E-02  0.2395529E+00
         21   -1    0    0  503  502  0.00000000000E+00  0.00000000000E+00  0.22146184947E+03  0.22146184947E+03  0.00000000000E+00 0.  1.
         21   -1    0    0  501  503 -0.00000000000E+00 -0.00000000000E+00 -0.17134148953E+00  0.17134148953E+00  0.00000000000E+00 0.  1.
          5    1    1    2  501    0 -0.11145583460E+01 -0.38165874589E+01  0.11454628454E+03  0.11471159437E+03  0.47000000000E+01 0.  1.
         -5    1    1    2    0  502  0.11145583460E+01  0.38165874589E+01  0.10674422344E+03  0.10692159659E+03  0.47000000000E+01 0.  1.
<mgrwt>
<rscale>  2 0.61561823E+01</rscale>
<asrwt>0</asrwt>
<pdfrwt beam="1">  1       21 0.34070825E-01 0.61561823E+01</pdfrwt>
<pdfrwt beam="2">  1       21 0.26360406E-04 0.61561823E+01</pdfrwt>
<totfact> 0.21821342E+09</totfact>
</mgrwt>
</event>
<event>
 4    1  0.3858687E+006  0.5752738E+01  0.7546771E-02  0.2448760E+00
         21   -1    0    0  503  502  0.00000000000E+00  0.00000000000E+00  0.45059740927E+00  0.45059740927E+00  0.00000000000E+00 0. -1.
         21   -1    0    0  501  503 -0.00000000000E+00 -0.00000000000E+00 -0.74112329104E+02  0.74112329104E+02  0.00000000000E+00 0. -1.
          5    1    1    2  501    0  0.27586696242E+01  0.18422106912E+01 -0.40369294586E+02  0.40777125250E+02  0.47000000000E+01 0.  1.
         -5    1    1    2    0  502 -0.27586696242E+01 -0.18422106912E+01 -0.33292437109E+02  0.33785801263E+02  0.47000000000E+01 0.  1.
<mgrwt>
<rscale>  2 0.57527383E+01</rscale>
<asrwt>0</asrwt>
<pdfrwt beam="1">  1       21 0.69322698E-04 0.57527383E+01</pdfrwt>
<pdfrwt beam="2">  1       21 0.11401894E-01 0.57527383E+01</pdfrwt>
<totfact> 0.33291660E+09</totfact>
</mgrwt>
</event>
<event>
 4    1  0.3858687E+006  0.6418679E+01  0.7546771E-02  0.2363921E+00
         21   -1    0    0  503  502  0.00000000000E+00  0.00000000000E+00  0.42686066897E+01  0.42686066897E+01  0.00000000000E+00 0.  1.
         21   -1    0    0  501  503 -0.00000000000E+00 -0.00000000000E+00 -0.13790121435E+02  0.13790121435E+02  0.00000000000E+00 0.  1.
          5    1    1    2  501    0 -0.29913471990E+01 -0.31876767684E+01 -0.97071533180E+01  0.11637365113E+02  0.47000000000E+01 0.  1.
         -5    1    1    2    0  502  0.29913471990E+01  0.31876767684E+01  0.18563857244E+00  0.64213630114E+01  0.47000000000E+01 0.  1.
<mgrwt>
<rscale>  2 0.64186791E+01</rscale>
<asrwt>0</asrwt>
<pdfrwt beam="1">  1       21 0.65670873E-03 0.64186791E+01</pdfrwt>
<pdfrwt beam="2">  1       21 0.21215571E-02 0.64186791E+01</pdfrwt>
<totfact> 0.20663395E+09</totfact>
</mgrwt>
</event>
<event>
 4    1  0.3858687E+006  0.6945538E+01  0.7546771E-02  0.2306520E+00
         21   -1    0    0  501  502  0.00000000000E+00  0.00000000000E+00  0.15180288203E+04  0.15180288203E+04  0.00000000000E+00 0. -1.
         21   -1    0    0  502  503 -0.00000000000E+00 -0.00000000000E+00 -0.34542368091E-01  0.34542368091E-01  0.00000000000E+00 0.  1.
          5    1    1    2  501    0  0.50258717259E+01  0.94398573058E+00  0.97370699808E+03  0.97373176933E+03  0.47000000000E+01 0.  1.
         -5    1    1    2    0  503 -0.50258717259E+01 -0.94398573058E+00  0.54428727986E+03  0.54433159335E+03  0.47000000000E+01 0. -1.
<mgrwt>
<rscale>  2 0.69455378E+01</rscale>
<asrwt>0</asrwt>
<pdfrwt beam="1">  1       21 0.23348948E+00 0.69455378E+01</pdfrwt>
<pdfrwt beam="2">  1       21 0.53154263E-05 0.69455378E+01</pdfrwt>
<totfact> 0.42627882E+08</totfact>
</mgrwt>
</event>
<event>
 4    1  0.3858687E+006  0.6637185E+01  0.7546771E-02  0.2339203E+00
         21   -1    0    0  501  502  0.00000000000E+00  0.00000000000E+00  0.41252369328E+02  0.41252369328E+02  0.00000000000E+00 0.  1.
         21   -1    0    0  502  503 -0.00000000000E+00 -0.00000000000E+00 -0.37067236801E+01  0.37067236801E+01  0.00000000000E+00 0.  1.
          5    1    1    2  501    0  0.25736091966E+01  0.39164723837E+01  0.37739881577E+02  0.38319066816E+02  0.47000000000E+01 0.  1.
         -5    1    1    2    0  503 -0.25736091966E+01 -0.39164723837E+01 -0.19423592923E+00  0.66400261916E+01  0.47000000000E+01 0.  1.
<mgrwt>
<rscale>  2 0.66371847E+01</rscale>
<asrwt>0</asrwt>
<pdfrwt beam="1">  1       21 0.63465180E-02 0.66371847E+01</pdfrwt>
<pdfrwt beam="2">  1       21 0.57026521E-03 0.66371847E+01</pdfrwt>
<totfact> 0.51382070E+08</totfact>
</mgrwt>
</event>
<event>
 4    1  0.3858687E+006  0.9496136E+01  0.7546771E-02  0.2104851E+00
         21   -1    0    0  503  502  0.00000000000E+00  0.00000000000E+00  0.34771723288E+01  0.34771723288E+01  0.00000000000E+00 0. -1.
         21   -1    0    0  501  503 -0.00000000000E+00 -0.00000000000E+00 -0.79192537453E+02  0.79192537453E+02  0.00000000000E+00 0.  1.
          5    1    1    2  501    0  0.82376410342E+01  0.47735787916E+00 -0.71755314484E+02  0.72380948854E+02  0.47000000000E+01 0.  1.
         -5    1    1    2    0  502 -0.82376410342E+01 -0.47735787916E+00 -0.39600506405E+01  0.10288760928E+02  0.47000000000E+01 0. -1.
<mgrwt>
<rscale>  2 0.94961361E+01</rscale>
<asrwt>0</asrwt>
<pdfrwt beam="1">  1       21 0.53494967E-03 0.94961361E+01</pdfrwt>
<pdfrwt beam="2">  1       21 0.12183465E-01 0.94961361E+01</pdfrwt>
<totfact> 0.25382374E+08</totfact>
</mgrwt>
</event>
<event>
 4    1  0.3858687E+006  0.5874553E+01  0.7546771E-02  0.2432042E+00
         21   -1    0    0  503  502  0.00000000000E+00  0.00000000000E+00  0.19131303989E+00  0.19131303989E+00  0.00000000000E+00 0. -1.
         21   -1    0    0  501  503 -0.00000000000E+00 -0.00000000000E+00 -0.20449773785E+03  0.20449773785E+03  0.00000000000E+00 0.  1.
          5    1    1    2  501    0 -0.20912546106E+01 -0.28367288403E+01 -0.13729517686E+03  0.13742079888E+03  0.47000000000E+01 0.  1.
         -5    1    1    2    0  502  0.20912546106E+01  0.28367288403E+01 -0.67011247950E+02  0.67268252008E+02  0.47000000000E+01 0. -1.
<mgrwt>
<rscale>  2 0.58745533E+01</rscale>
<asrwt>0</asrwt>
<pdfrwt beam="1">  1       21 0.29432755E-04 0.58745533E+01</pdfrwt>
<pdfrwt beam="2">  1       21 0.31461212E-01 0.58745533E+01</pdfrwt>
<totfact> 0.20790580E+09</totfact>
</mgrwt>
</event>
<event>
 4    1  0.3858687E+006  0.5540393E+01  0.7546771E-02  0.2479379E+00
         21   -1    0    0  501  502  0.00000000000E+00  0.00000000000E+00  0.17868135987E+01  0.17868135987E+01  0.00000000000E+00 0. -1.
         21   -1    0    0  502  503 -0.00000000000E+00 -0.00000000000E+00 -0.50147885519E+02  0.50147885519E+02  0.00000000000E+00 0. -1.
          5    1    1    2  501    0  0.13813944987E+01 -0.25879919722E+01 -0.31256737483E+01  0.63612726392E+01  0.47000000000E+01 0. -1.
         -5    1    1    2    0  503 -0.13813944987E+01  0.25879919722E+01 -0.45235398172E+02  0.45573426479E+02  0.47000000000E+01 0. -1.
<mgrwt>
<rscale>  2 0.55403929E+01</rscale>
<asrwt>0</asrwt>
<pdfrwt beam="1">  1       21 0.27489447E-03 0.55403929E+01</pdfrwt>
<pdfrwt beam="2">  1       21 0.77150575E-02 0.55403929E+01</pdfrwt>
<totfact> 0.91317871E+08</totfact>
</mgrwt>
</event>
<event>
 4    1  0.3858687E+006  0.8537170E+01  0.7546771E-02  0.2169246E+00
         21   -1    0    0  501  502  0.00000000000E+00  0.00000000000E+00  0.59107248321E+00  0.59107248321E+00  0.00000000000E+00 0. -1.
         21   -1    0    0  502  503 -0.00000000000E+00 -0.00000000000E+00 -0.12408262126E+03  0.12408262126E+03  0.00000000000E+00 0.  1.
          5    1    1    2  501    0 -0.92119119533E+00  0.70671543236E+01 -0.66674865929E+02  0.67219201201E+02  0.47000000000E+01 0.  1.
         -5    1    1    2    0  503  0.92119119533E+00 -0.70671543236E+01 -0.56816682846E+02  0.57454492540E+02  0.47000000000E+01 0. -1.
<mgrwt>
<rscale>  2 0.85371695E+01</rscale>
<asrwt>0</asrwt>
<pdfrwt beam="1">  1       21 0.90934192E-04 0.85371695E+01</pdfrwt>
<pdfrwt beam="2">  1       21 0.19089642E-01 0.85371695E+01</pdfrwt>
<totfact> 0.13624010E+09</totfact>
</mgrwt>
</event>
<event>
 4    1  0.3858687E+006  0.5893069E+01  0.7546771E-02  0.2429552E+00
         21   -1    0    0  503  502  0.00000000000E+00  0.00000000000E+00  0.33722201108E+02  0.33722201108E+02  0.00000000000E+00 0. -1.
         21   -1    0    0  501  503 -0.00000000000E+00 -0.00000000000E+00 -0.10632107622E+01  0.10632107622E+01  0.00000000000E+00 0. -1.
          5    1    1    2  501    0  0.31087626387E+01 -0.17244871715E+01  0.13247860594E+02  0.14499450730E+02  0.47000000000E+01 0. -1.
         -5    1    1    2    0  502 -0.31087626387E+01  0.17244871715E+01  0.19411129751E+02  0.20285961140E+02  0.47000000000E+01 0. -1.
<mgrwt>
<rscale>  2 0.58930689E+01</rscale>
<asrwt>0</asrwt>
<pdfrwt beam="1">  1       21 0.51880301E-02 0.58930689E+01</pdfrwt>
<pdfrwt beam="2">  1       21 0.16357091E-03 0.58930689E+01</pdfrwt>
<totfact> 0.35254785E+09</totfact>
</mgrwt>
</event>
<event>
 4    1  0.3858687E+006  0.6065974E+01  0.7546771E-02  0.2406915E+00
         21   -1    0    0  503  502  0.00000000000E+00  0.00000000000E+00  0.80907369068E+03  0.80907369068E+03  0.00000000000E+00 0. -1.
         21   -1    0    0  501  503 -0.00000000000E+00 -0.00000000000E+00 -0.54202677425E-01  0.54202677425E-01  0.00000000000E+00 0. -1.
          5    1    1    2  501    0 -0.38292225920E+01 -0.20759263851E+00  0.24220876826E+03  0.24228471570E+03  0.47000000000E+01 0. -1.
         -5    1    1    2    0  502  0.38292225920E+01  0.20759263851E+00  0.56681071975E+03  0.56684317766E+03  0.47000000000E+01 0. -1.
<mgrwt>
<rscale>  2 0.60659740E+01</rscale>
<asrwt>0</asrwt>
<pdfrwt beam="1">  1       21 0.12446320E+00 0.60659740E+01</pdfrwt>
<pdfrwt beam="2">  1       21 0.83395214E-05 0.60659740E+01</pdfrwt>
<totfact> 0.86603655E+08</totfact>
</mgrwt>
</event>
<event>
 4    1  0.3858687E+006  0.5179978E+01  0.7546771E-02  0.2536183E+00
         21   -1    0    0  501  502  0.00000000000E+00  0.00000000000E+00  0.93817689221E+01  0.93817689221E+01  0.00000000000E+00 0. -1.
         21   -1    0    0  502  503 -0.00000000000E+00 -0.00000000000E+00 -0.78659107898E+01  0.78659107898E+01  0.00000000000E+00 0. -1.
          5    1    1    2  501    0  0.13710759240E+01  0.16918395569E+01  0.76375781916E+01  0.92284760881E+01  0.47000000000E+01 0. -1.
         -5    1    1    2    0  503 -0.13710759240E+01 -0.16918395569E+01 -0.61217200593E+01  0.80192036238E+01  0.47000000000E+01 0. -1.
<mgrwt>
<rscale>  2 0.51799778E+01</rscale>
<asrwt>0</asrwt>
<pdfrwt beam="1">  1       21 0.14433491E-02 0.51799778E+01</pdfrwt>
<pdfrwt beam="2">  1       21 0.12101401E-02 0.51799778E+01</pdfrwt>
<totfact> 0.12573356E+09</totfact>
</mgrwt>
</event>
<event>
 4    1  0.3858687E+006  0.5381416E+01  0.7546771E-02  0.2503635E+00
         21   -1    0    0  501  502  0.00000000000E+00  0.00000000000E+00  0.95998714952E+00  0.95998714952E+00  0.00000000000E+00 0. -1.
         21   -1    0    0  502  503 -0.00000000000E+00 -0.00000000000E+00 -0.34969866344E+02  0.34969866344E+02  0.00000000000E+00 0.  1.
          5    1    1    2  501    0 -0.24885391506E+01  0.82268614846E+00 -0.10346959364E+02  0.11662727283E+02  0.47000000000E+01 0. -1.
         -5    1    1    2    0  503  0.24885391506E+01 -0.82268614846E+00 -0.23662919831E+02  0.24267126210E+02  0.47000000000E+01 0.  1.
<mgrwt>
<rscale>  2 0.53814161E+01</rscale>
<asrwt>0</asrwt>
<pdfrwt beam="1">  1       21 0.14769037E-03 0.53814161E+01</pdfrwt>
<pdfrwt beam="2">  1       21 0.53799779E-02 0.53814161E+01</pdfrwt>
<totfact> 0.35275746E+09</totfact>
</mgrwt>
</event>
<event>
 4    1  0.3858687E+006  0.5366371E+01  0.7546771E-02  0.2505994E+00
         21   -1    0    0  503  502  0.00000000000E+00  0.00000000000E+00  0.11157722822E+03  0.11157722822E+03  0.00000000000E+00 0. -1.
         21   -1    0    0  501  503 -0.00000000000E+00 -0.00000000000E+00 -0.30629427144E+00  0.30629427144E+00  0.00000000000E+00 0. -1.
          5    1    1    2  501    0  0.23944283207E+01 -0.98724286177E+00  0.33444800294E+02  0.33872593673E+02  0.47000000000E+01 0. -1.
         -5    1    1    2    0  502 -0.23944283207E+01  0.98724286177E+00  0.77826133656E+02  0.78010928820E+02  0.47000000000E+01 0. -1.
<mgrwt>
<rscale>  2 0.53663708E+01</rscale>
<asrwt>0</asrwt>
<pdfrwt beam="1">  1       21 0.17165695E-01 0.53663708E+01</pdfrwt>
<pdfrwt beam="2">  1       21 0.47122285E-04 0.53663708E+01</pdfrwt>
<totfact> 0.27635157E+09</totfact>
</mgrwt>
</event>
<event>
 4    1  0.3858687E+006  0.4828161E+01  0.7546771E-02  0.2598571E+00
         21   -1    0    0  501  502  0.00000000000E+00  0.00000000000E+00  0.42398254434E+01  0.42398254434E+01  0.00000000000E+00 0. -1.
         21   -1    0    0  502  503 -0.00000000000E+00 -0.00000000000E+00 -0.96980363021E+01  0.96980363021E+01  0.00000000000E+00 0. -1.
          5    1    1    2  501    0  0.11443803065E-01 -0.11049904942E+01  0.18569971892E+01  0.51729656401E+01  0.47000000000E+01 0. -1.
         -5    1    1    2    0  503 -0.11443803065E-01  0.11049904942E+01 -0.73152080480E+01  0.87648961054E+01  0.47000000000E+01 0. -1.
<mgrwt>
<rscale>  2 0.48281606E+01</rscale>
<asrwt>0</asrwt>
<pdfrwt beam="1">  1       21 0.65228085E-03 0.48281606E+01</pdfrwt>
<pdfrwt beam="2">  1       21 0.14920056E-02 0.48281606E+01</pdfrwt>
<totfact> 0.26427596E+09</totfact>
</mgrwt>
</event>
<event>
 4    1  0.3858687E+006  0.7170400E+01  0.7546771E-02  0.2284150E+00
         21   -1    0    0  501  502  0.00000000000E+00  0.00000000000E+00  0.74547873131E+00  0.74547873131E+00  0.00000000000E+00 0.  1.
         21   -1    0    0  502  503 -0.00000000000E+00 -0.00000000000E+00 -0.80003608588E+02  0.80003608588E+02  0.00000000000E+00 0. -1.
          5    1    1    2  501    0 -0.50285084123E+01  0.20096623058E+01 -0.24634330442E+02  0.25656673123E+02  0.47000000000E+01 0.  1.
         -5    1    1    2    0  503  0.50285084123E+01 -0.20096623058E+01 -0.54623799414E+02  0.55092414196E+02  0.47000000000E+01 0. -1.
<mgrwt>
<rscale>  2 0.71704002E+01</rscale>
<asrwt>0</asrwt>
<pdfrwt beam="1">  1       21 0.11468905E-03 0.71704002E+01</pdfrwt>
<pdfrwt beam="2">  1       21 0.12308246E-01 0.71704002E+01</pdfrwt>
<totfact> 0.17895155E+09</totfact>
</mgrwt>
</event>
<event>
 4    1  0.3858687E+006  0.5314611E+01  0.7546771E-02  0.2514196E+00
         21   -1    0    0  503  502  0.00000000000E+00  0.00000000000E+00  0.47445460798E-01  0.47445460798E-01  0.00000000000E+00 0.  1.
         21   -1    0    0  501  503 -0.00000000000E+00 -0.00000000000E+00 -0.61596758867E+03  0.61596758867E+03  0.00000000000E+00 0.  1.
          5    1    1    2  501    0  0.43740925659E+00  0.24420813881E+01 -0.36435614020E+03  0.36439489842E+03  0.47000000000E+01 0.  1.
         -5    1    1    2    0  502 -0.43740925659E+00 -0.24420813881E+01 -0.25156400301E+03  0.25162013572E+03  0.47000000000E+01 0.  1.
<mgrwt>
<rscale>  2 0.53146108E+01</rscale>
<asrwt>0</asrwt>
<pdfrwt beam="1">  1       21 0.72992993E-05 0.53146108E+01</pdfrwt>
<pdfrwt beam="2">  1       21 0.94764275E-01 0.53146108E+01</pdfrwt>
<totfact> 0.16442435E+09</totfact>
</mgrwt>
</event>
<event>
 4    1  0.3858687E+006  0.5397486E+01  0.7546771E-02  0.2501128E+00
         21   -1    0    0  501  502  0.00000000000E+00  0.00000000000E+00  0.40530183559E+02  0.40530183559E+02  0.00000000000E+00 0.  1.
         21   -1    0    0  502  503 -0.00000000000E+00 -0.00000000000E+00 -0.53314856454E+01  0.53314856454E+01  0.00000000000E+00 0. -1.
          5    1    1    2  501    0  0.19619161101E+01  0.17871045405E+01  0.38928469363E+02  0.39300872566E+02  0.47000000000E+01 0.  1.
         -5    1    1    2    0  503 -0.19619161101E+01 -0.17871045405E+01 -0.37297714499E+01  0.65607966384E+01  0.47000000000E+01 0. -1.
<mgrwt>
<rscale>  2 0.53974862E+01</rscale>
<asrwt>0</asrwt>
<pdfrwt beam="1">  1       21 0.62354127E-02 0.53974862E+01</pdfrwt>
<pdfrwt beam="2">  1       21 0.82022859E-03 0.53974862E+01</pdfrwt>
<totfact> 0.27200438E+08</totfact>
</mgrwt>
</event>
<event>
 4    1  0.3858687E+006  0.8333879E+01  0.7546771E-02  0.2184398E+00
         21   -1    0    0  501  502  0.00000000000E+00  0.00000000000E+00  0.49785645721E+00  0.49785645721E+00  0.00000000000E+00 0. -1.
         21   -1    0    0  502  503 -0.00000000000E+00 -0.00000000000E+00 -0.24939663616E+03  0.24939663616E+03  0.00000000000E+00 0. -1.
          5    1    1    2  501    0  0.66376497886E+01  0.18180058891E+01 -0.41509507432E+02  0.42337840608E+02  0.47000000000E+01 0. -1.
         -5    1    1    2    0  503 -0.66376497886E+01 -0.18180058891E+01 -0.20738927227E+03  0.20755665201E+03  0.47000000000E+01 0. -1.
<mgrwt>
<rscale>  2 0.83338791E+01</rscale>
<asrwt>0</asrwt>
<pdfrwt beam="1">  1       21 0.76593145E-04 0.83338791E+01</pdfrwt>
<pdfrwt beam="2">  1       21 0.38368791E-01 0.83338791E+01</pdfrwt>
<totfact> 0.51536591E+08</totfact>
</mgrwt>
</event>
<event>
 4    1  0.3858687E+006  0.5292670E+01  0.7546771E-02  0.2517714E+00
         21   -1    0    0  501  502  0.00000000000E+00  0.00000000000E+00  0.12212304548E+03  0.12212304548E+03  0.00000000000E+00 0.  1.
         21   -1    0    0  502  503 -0.00000000000E+00 -0.00000000000E+00 -0.24113508425E+00  0.24113508425E+00  0.00000000000E+00 0.  1.
          5    1    1    2  501    0 -0.14797442016E+01  0.19320226920E+01  0.74450530836E+02  0.74638421046E+02  0.47000000000E+01 0.  1.
         -5    1    1    2    0  503  0.14797442016E+01 -0.19320226920E+01  0.47431379559E+02  0.47725759516E+02  0.47000000000E+01 0.  1.
<mgrwt>
<rscale>  2 0.52926699E+01</rscale>
<asrwt>0</asrwt>
<pdfrwt beam="1">  1       21 0.18788111E-01 0.52926699E+01</pdfrwt>
<pdfrwt beam="2">  1       21 0.37097803E-04 0.52926699E+01</pdfrwt>
<totfact> 0.32491668E+09</totfact>
</mgrwt>
</event>
<event>
 4    1  0.3858687E+006  0.5947334E+01  0.7546771E-02  0.2422329E+00
         21   -1    0    0  503  502  0.00000000000E+00  0.00000000000E+00  0.88624025732E+02  0.88624025732E+02  0.00000000000E+00 0.  1.
         21   -1    0    0  501  503 -0.00000000000E+00 -0.00000000000E+00 -0.42782749160E+00  0.42782749160E+00  0.00000000000E+00 0.  1.
          5    1    1    2  501    0 -0.36425448506E+01 -0.11244506530E+00  0.55633914375E+02  0.55950899954E+02  0.47000000000E+01 0.  1.
         -5    1    1    2    0  502  0.36425448506E+01  0.11244506530E+00  0.32562283865E+02  0.33100953270E+02  0.47000000000E+01 0.  1.
<mgrwt>
<rscale>  2 0.59473336E+01</rscale>
<asrwt>0</asrwt>
<pdfrwt beam="1">  1       21 0.13634451E-01 0.59473336E+01</pdfrwt>
<pdfrwt beam="2">  1       21 0.65819684E-04 0.59473336E+01</pdfrwt>
<totfact> 0.27814869E+09</totfact>
</mgrwt>
</event>
<event>
 4    1  0.3858687E+006  0.5920853E+01  0.7546771E-02  0.2425840E+00
         21   -1    0    0  503  502  0.00000000000E+00  0.00000000000E+00  0.10453911689E+02  0.10453911689E+02  0.00000000000E+00 0.  1.
         21   -1    0    0  501  503 -0.00000000000E+00 -0.00000000000E+00 -0.35141249970E+01  0.35141249970E+01  0.00000000000E+00 0.  1.
          5    1    1    2  501    0 -0.43725948592E+00 -0.35742562160E+01  0.19764371764E+01  0.62420194864E+01  0.47000000000E+01 0.  1.
         -5    1    1    2    0  502  0.43725948592E+00  0.35742562160E+01  0.49633495156E+01  0.77260171997E+01  0.47000000000E+01 0.  1.
<mgrwt>
<rscale>  2 0.59208533E+01</rscale>
<asrwt>0</asrwt>
<pdfrwt beam="1">  1       21 0.16082941E-02 0.59208533E+01</pdfrwt>
<pdfrwt beam="2">  1       21 0.54063462E-03 0.59208533E+01</pdfrwt>
<totfact> 0.37611678E+09</totfact>
</mgrwt>
</event>
<event>
 4    1  0.3858687E+006  0.6353855E+01  0.7546771E-02  0.2371525E+00
         21   -1    0    0  501  502  0.00000000000E+00  0.00000000000E+00  0.15413362192E+01  0.15413362192E+01  0.00000000000E+00 0. -1.
         21   -1    0    0  502  503 -0.00000000000E+00 -0.00000000000E+00 -0.18415525022E+03  0.18415525022E+03  0.00000000000E+00 0.  1.
          5    1    1    2  501    0 -0.15057870531E+01 -0.40017602427E+01 -0.53147316416E+01  0.82835893254E+01  0.47000000000E+01 0. -1.
         -5    1    1    2    0  503  0.15057870531E+01  0.40017602427E+01 -0.17729918236E+03  0.17741299712E+03  0.47000000000E+01 0.  1.
<mgrwt>
<rscale>  2 0.63538555E+01</rscale>
<asrwt>0</asrwt>
<pdfrwt beam="1">  1       21 0.23712874E-03 0.63538555E+01</pdfrwt>
<pdfrwt beam="2">  1       21 0.28331566E-01 0.63538555E+01</pdfrwt>
<totfact> 0.15818189E+08</totfact>
</mgrwt>
</event>
<event>
 4    1  0.3858687E+006  0.4826703E+01  0.7546771E-02  0.2598846E+00
         21   -1    0    0  501  502  0.00000000000E+00  0.00000000000E+00  0.69607363359E+01  0.69607363359E+01  0.00000000000E+00 0.  1.
         21   -1    0    0  502  503 -0.00000000000E+00 -0.00000000000E+00 -0.59466719371E+01  0.59466719371E+01  0.00000000000E+00 0.  1.
          5    1    1    2  501    0  0.89845344733E+00 -0.63232933307E+00  0.47741795603E+01  0.67889505416E+01  0.47000000000E+01 0.  1.
         -5    1    1    2    0  503 -0.89845344733E+00  0.63232933307E+00 -0.37601151615E+01  0.61184577314E+01  0.47000000000E+01 0.  1.
<mgrwt>
<rscale>  2 0.48267027E+01</rscale>
<asrwt>0</asrwt>
<pdfrwt beam="1">  1       21 0.10708825E-02 0.48267027E+01</pdfrwt>
<pdfrwt beam="2">  1       21 0.91487260E-03 0.48267027E+01</pdfrwt>
<totfact> 0.26309868E+09</totfact>
</mgrwt>
</event>
<event>
 4    1  0.3858687E+006  0.4997557E+01  0.7546771E-02  0.2567587E+00
         21   -1    0    0  503  502  0.00000000000E+00  0.00000000000E+00  0.27191795390E+01  0.27191795390E+01  0.00000000000E+00 0.  1.
         21   -1    0    0  501  503 -0.00000000000E+00 -0.00000000000E+00 -0.12463599393E+02  0.12463599393E+02  0.00000000000E+00 0. -1.
          5    1    1    2  501    0  0.12922373252E+01  0.11025879529E+01 -0.87657604797E+01  0.10090299019E+02  0.47000000000E+01 0. -1.
         -5    1    1    2    0  502 -0.12922373252E+01 -0.11025879529E+01 -0.97865937438E+00  0.50924799135E+01  0.47000000000E+01 0.  1.
<mgrwt>
<rscale>  2 0.49975572E+01</rscale>
<asrwt>0</asrwt>
<pdfrwt beam="1">  1       21 0.41833532E-03 0.49975572E+01</pdfrwt>
<pdfrwt beam="2">  1       21 0.19174768E-02 0.49975572E+01</pdfrwt>
<totfact> 0.35390309E+09</totfact>
</mgrwt>
</event>
<event>
 4    1  0.3858687E+006  0.4944628E+01  0.7546771E-02  0.2577071E+00
         21   -1    0    0  503  502  0.00000000000E+00  0.00000000000E+00  0.15283621577E+01  0.15283621577E+01  0.00000000000E+00 0. -1.
         21   -1    0    0  501  503 -0.00000000000E+00 -0.00000000000E+00 -0.24031385009E+02  0.24031385009E+02  0.00000000000E+00 0. -1.
          5    1    1    2  501    0 -0.86920568155E+00  0.12664242347E+01 -0.18640942649E+02  0.19285592854E+02  0.47000000000E+01 0. -1.
         -5    1    1    2    0  502  0.86920568155E+00 -0.12664242347E+01 -0.38620802021E+01  0.62741543133E+01  0.47000000000E+01 0. -1.
<mgrwt>
<rscale>  2 0.49446283E+01</rscale>
<asrwt>0</asrwt>
<pdfrwt beam="1">  1       21 0.23513265E-03 0.49446283E+01</pdfrwt>
<pdfrwt beam="2">  1       21 0.36971360E-02 0.49446283E+01</pdfrwt>
<totfact> 0.29957649E+09</totfact>
</mgrwt>
</event>
<event>
 4    1  0.3858687E+006  0.6665806E+01  0.7546771E-02  0.2336065E+00
         21   -1    0    0  501  502  0.00000000000E+00  0.00000000000E+00  0.58189861186E+01  0.58189861186E+01  0.00000000000E+00 0. -1.
         21   -1    0    0  502  503 -0.00000000000E+00 -0.00000000000E+00 -0.55947223835E+02  0.55947223835E+02  0.00000000000E+00 0. -1.
          5    1    1    2  501    0  0.15577063006E+01  0.44627923441E+01  0.36341919753E+01  0.75921219523E+01  0.47000000000E+01 0. -1.
         -5    1    1    2    0  503 -0.15577063006E+01 -0.44627923441E+01 -0.53762429692E+02  0.54174088002E+02  0.47000000000E+01 0. -1.
<mgrwt>
<rscale>  2 0.66658056E+01</rscale>
<asrwt>0</asrwt>
<pdfrwt beam="1">  1       21 0.89522865E-03 0.66658056E+01</pdfrwt>
<pdfrwt beam="2">  1       21 0.86072651E-02 0.66658056E+01</pdfrwt>
<totfact> 0.17173891E+08</totfact>
</mgrwt>
</event>
<event>
 4    1  0.3858687E+006  0.4743041E+01  0.7546771E-02  0.2614862E+00
         21   -1    0    0  501  502  0.00000000000E+00  0.00000000000E+00  0.35260349616E+01  0.35260349616E+01  0.00000000000E+00 0. -1.
         21   -1    0    0  502  503 -0.00000000000E+00 -0.00000000000E+00 -0.32437227946E+02  0.32437227946E+02  0.00000000000E+00 0. -1.
          5    1    1    2  501    0  0.56634716944E-01  0.63500552565E+00  0.16608962437E+01  0.50254368806E+01  0.47000000000E+01 0. -1.
         -5    1    1    2    0  503 -0.56634716944E-01 -0.63500552565E+00 -0.30572089228E+02  0.30937826027E+02  0.47000000000E+01 0. -1.
<mgrwt>
<rscale>  2 0.47430412E+01</rscale>
<asrwt>0</asrwt>
<pdfrwt beam="1">  1       21 0.54246691E-03 0.47430412E+01</pdfrwt>
<pdfrwt beam="2">  1       21 0.49903429E-02 0.47430412E+01</pdfrwt>
<totfact> 0.59716443E+08</totfact>
</mgrwt>
</event>
<event>
 4    1  0.3858687E+006  0.4929475E+01  0.7546771E-02  0.2579819E+00
         21   -1    0    0  501  502  0.00000000000E+00  0.00000000000E+00  0.23902540817E+01  0.23902540817E+01  0.00000000000E+00 0. -1.
         21   -1    0    0  502  503 -0.00000000000E+00 -0.00000000000E+00 -0.23768840164E+02  0.23768840164E+02  0.00000000000E+00 0.  1.
          5    1    1    2  501    0 -0.14767787691E+01  0.16985371023E+00 -0.79463432970E+00  0.49931122092E+01  0.47000000000E+01 0. -1.
         -5    1    1    2    0  503  0.14767787691E+01 -0.16985371023E+00 -0.20583951752E+02  0.21165982036E+02  0.47000000000E+01 0.  1.
<mgrwt>
<rscale>  2 0.49294752E+01</rscale>
<asrwt>0</asrwt>
<pdfrwt beam="1">  1       21 0.36773139E-03 0.49294752E+01</pdfrwt>
<pdfrwt beam="2">  1       21 0.36567447E-02 0.49294752E+01</pdfrwt>
<totfact> 0.16544474E+09</totfact>
</mgrwt>
</event>
<event>
 4    1  0.3858687E+006  0.5205366E+01  0.7546771E-02  0.2531963E+00
         21   -1    0    0  501  502  0.00000000000E+00  0.00000000000E+00  0.61667474137E+03  0.61667474137E+03  0.00000000000E+00 0. -1.
         21   -1    0    0  502  503 -0.00000000000E+00 -0.00000000000E+00 -0.44285257509E-01  0.44285257509E-01  0.00000000000E+00 0. -1.
          5    1    1    2  501    0 -0.20422163409E+01  0.91388348374E+00  0.33559697428E+03  0.33563734145E+03  0.47000000000E+01 0. -1.
         -5    1    1    2    0  503  0.20422163409E+01 -0.91388348374E+00  0.28103348183E+03  0.28108168518E+03  0.47000000000E+01 0. -1.
<mgrwt>
<rscale>  2 0.52053656E+01</rscale>
<asrwt>0</asrwt>
<pdfrwt beam="1">  1       21 0.94866161E-01 0.52053656E+01</pdfrwt>
<pdfrwt beam="2">  1       21 0.68136104E-05 0.52053656E+01</pdfrwt>
<totfact> 0.17704261E+09</totfact>
</mgrwt>
</event>
<event>
 4    1  0.3858687E+006  0.7075564E+01  0.7546771E-02  0.2293443E+00
         21   -1    0    0  503  502  0.00000000000E+00  0.00000000000E+00  0.66043328205E+01  0.66043328205E+01  0.00000000000E+00 0. -1.
         21   -1    0    0  501  503 -0.00000000000E+00 -0.00000000000E+00 -0.83147741637E+01  0.83147741637E+01  0.00000000000E+00 0. -1.
          5    1    1    2  501    0 -0.10150574840E+01  0.51906902158E+01 -0.30720937615E+01  0.77137128992E+01  0.47000000000E+01 0. -1.
         -5    1    1    2    0  502  0.10150574840E+01 -0.51906902158E+01  0.13616524182E+01  0.72053940850E+01  0.47000000000E+01 0. -1.
<mgrwt>
<rscale>  2 0.70755640E+01</rscale>
<asrwt>0</asrwt>
<pdfrwt beam="1">  1       21 0.10160512E-02 0.70755640E+01</pdfrwt>
<pdfrwt beam="2">  1       21 0.12791960E-02 0.70755640E+01</pdfrwt>
<totfact> 0.24957270E+09</totfact>
</mgrwt>
</event>
<event>
 4    1  0.3858687E+006  0.7476583E+01  0.7546771E-02  0.2255470E+00
         21   -1    0    0  503  502  0.00000000000E+00  0.00000000000E+00  0.53485370861E+00  0.53485370861E+00  0.00000000000E+00 0. -1.
         21   -1    0    0  501  503 -0.00000000000E+00 -0.00000000000E+00 -0.11842538208E+03  0.11842538208E+03  0.00000000000E+00 0. -1.
          5    1    1    2  501    0 -0.56653383480E+01 -0.13089080237E+01 -0.79331933831E+02  0.79683467696E+02  0.47000000000E+01 0. -1.
         -5    1    1    2    0  502  0.56653383480E+01  0.13089080237E+01 -0.38558594540E+02  0.39276768091E+02  0.47000000000E+01 0. -1.
<mgrwt>
<rscale>  2 0.74765834E+01</rscale>
<asrwt>0</asrwt>
<pdfrwt beam="1">  1       21 0.82285235E-04 0.74765834E+01</pdfrwt>
<pdfrwt beam="2">  1       21 0.18219279E-01 0.74765834E+01</pdfrwt>
<totfact> 0.15445811E+09</totfact>
</mgrwt>
</event>
<event>
 4    1  0.3858687E+006  0.5085370E+01  0.7546771E-02  0.2552229E+00
         21   -1    0    0  501  502  0.00000000000E+00  0.00000000000E+00  0.49509423101E+01  0.49509423101E+01  0.00000000000E+00 0.  1.
         21   -1    0    0  502  503 -0.00000000000E+00 -0.00000000000E+00 -0.76962973848E+01  0.76962973848E+01  0.00000000000E+00 0. -1.
          5    1    1    2  501    0 -0.84116234282E+00 -0.17502657375E+01  0.22117826688E+01  0.55455357553E+01  0.47000000000E+01 0.  1.
         -5    1    1    2    0  503  0.84116234282E+00  0.17502657375E+01 -0.49571377435E+01  0.71017039397E+01  0.47000000000E+01 0. -1.
<mgrwt>
<rscale>  2 0.50853696E+01</rscale>
<asrwt>0</asrwt>
<pdfrwt beam="1">  1       21 0.76168343E-03 0.50853696E+01</pdfrwt>
<pdfrwt beam="2">  1       21 0.11840458E-02 0.50853696E+01</pdfrwt>
<totfact> 0.31121890E+09</totfact>
</mgrwt>
</event>
<event>
 4    1  0.3858687E+006  0.5613457E+01  0.7546771E-02  0.2468623E+00
         21   -1    0    0  501  502  0.00000000000E+00  0.00000000000E+00  0.50208498734E+02  0.50208498734E+02  0.00000000000E+00 0.  1.
         21   -1    0    0  502  503 -0.00000000000E+00 -0.00000000000E+00 -0.66115032385E+00  0.66115032385E+00  0.00000000000E+00 0. -1.
          5    1    1    2  501    0 -0.20569976011E+01 -0.22780821036E+01  0.19044112480E+02  0.19854196467E+02  0.47000000000E+01 0. -1.
         -5    1    1    2    0  503  0.20569976011E+01  0.22780821036E+01  0.30503235930E+02  0.31015452591E+02  0.47000000000E+01 0. -1.
<mgrwt>
<rscale>  2 0.56134568E+01</rscale>
<asrwt>0</asrwt>
<pdfrwt beam="1">  1       21 0.77243814E-02 0.56134568E+01</pdfrwt>
<pdfrwt beam="2">  1       21 0.10171547E-03 0.56134568E+01</pdfrwt>
<totfact> 0.35297690E+09</totfact>
</mgrwt>
</event>
<event>
 4    1  0.3858687E+006  0.5186407E+01  0.7546771E-02  0.2535111E+00
         21   -1    0    0  503  502  0.00000000000E+00  0.00000000000E+00  0.84546182358E+01  0.84546182358E+01  0.00000000000E+00 0. -1.
         21   -1    0    0  501  503 -0.00000000000E+00 -0.00000000000E+00 -0.11627266336E+02  0.11627266336E+02  0.00000000000E+00 0. -1.
          5    1    1    2  501    0 -0.13052498888E+01 -0.17621422968E+01 -0.10143960021E+02  0.11392925334E+02  0.47000000000E+01 0. -1.
         -5    1    1    2    0  502  0.13052498888E+01  0.17621422968E+01  0.69713119209E+01  0.86889592383E+01  0.47000000000E+01 0. -1.
<mgrwt>
<rscale>  2 0.51864075E+01</rscale>
<asrwt>0</asrwt>
<pdfrwt beam="1">  1       21 0.13007105E-02 0.51864075E+01</pdfrwt>
<pdfrwt beam="2">  1       21 0.17888102E-02 0.51864075E+01</pdfrwt>
<totfact> 0.83976863E+08</totfact>
</mgrwt>
</event>
<event>
 4    1  0.3858687E+006  0.8532512E+01  0.7546771E-02  0.2169587E+00
         21   -1    0    0  501  502  0.00000000000E+00  0.00000000000E+00  0.24816640628E+02  0.24816640628E+02  0.00000000000E+00 0.  1.
         21   -1    0    0  502  503 -0.00000000000E+00 -0.00000000000E+00 -0.21078190775E+02  0.21078190775E+02  0.00000000000E+00 0. -1.
          5    1    1    2  501    0 -0.29388415174E+01  0.64866760023E+01  0.23159923282E+02  0.24681689599E+02  0.47000000000E+01 0.  1.
         -5    1    1    2    0  503  0.29388415174E+01 -0.64866760023E+01 -0.19421473429E+02  0.21213141804E+02  0.47000000000E+01 0. -1.
<mgrwt>
<rscale>  2 0.85325116E+01</rscale>
<asrwt>0</asrwt>
<pdfrwt beam="1">  1       21 0.38179447E-02 0.85325116E+01</pdfrwt>
<pdfrwt beam="2">  1       21 0.32427986E-02 0.85325116E+01</pdfrwt>
<totfact> 0.10485294E+08</totfact>
</mgrwt>
</event>
<event>
 4    1  0.3858687E+006  0.5964765E+01  0.7546771E-02  0.2420032E+00
         21   -1    0    0  501  502  0.00000000000E+00  0.00000000000E+00  0.95227214244E+02  0.95227214244E+02  0.00000000000E+00 0.  1.
         21   -1    0    0  502  503 -0.00000000000E+00 -0.00000000000E+00 -0.39039455022E+00  0.39039455022E+00  0.00000000000E+00 0. -1.
          5    1    1    2  501    0  0.12290121916E+01  0.34609171080E+01  0.37507073117E+02  0.37978401125E+02  0.47000000000E+01 0. -1.
         -5    1    1    2    0  503 -0.12290121916E+01 -0.34609171080E+01  0.57329746577E+02  0.57639207670E+02  0.47000000000E+01 0.  1.
<mgrwt>
<rscale>  2 0.59647647E+01</rscale>
<asrwt>0</asrwt>
<pdfrwt beam="1">  1       21 0.14650322E-01 0.59647647E+01</pdfrwt>
<pdfrwt beam="2">  1       21 0.60060776E-04 0.59647647E+01</pdfrwt>
<totfact> 0.28155291E+09</totfact>
</mgrwt>
</event>
<event>
 4    1  0.3858687E+006  0.6318273E+01  0.7546771E-02  0.2375753E+00
         21   -1    0    0  501  502  0.00000000000E+00  0.00000000000E+00  0.11070516765E+02  0.11070516765E+02  0.00000000000E+00 0. -1.
         21   -1    0    0  502  503 -0.00000000000E+00 -0.00000000000E+00 -0.63423149315E+01  0.63423149315E+01  0.00000000000E+00 0. -1.
          5    1    1    2  501    0  0.36953144744E+01  0.20433379128E+01  0.80827892382E+01  0.10259242699E+02  0.47000000000E+01 0. -1.
         -5    1    1    2    0  503 -0.36953144744E+01 -0.20433379128E+01 -0.33545874045E+01  0.71535889975E+01  0.47000000000E+01 0. -1.
<mgrwt>
<rscale>  2 0.63182734E+01</rscale>
<asrwt>0</asrwt>
<pdfrwt beam="1">  1       21 0.17031564E-02 0.63182734E+01</pdfrwt>
<pdfrwt beam="2">  1       21 0.97574076E-03 0.63182734E+01</pdfrwt>
<totfact> 0.16016675E+09</totfact>
</mgrwt>
</event>
<event>
 4    1  0.3858687E+006  0.6017061E+01  0.7546771E-02  0.2413208E+00
         21   -1    0    0  503  502  0.00000000000E+00  0.00000000000E+00  0.65264143823E+01  0.65264143823E+01  0.00000000000E+00 0. -1.
         21   -1    0    0  501  503 -0.00000000000E+00 -0.00000000000E+00 -0.13574272325E+02  0.13574272325E+02  0.00000000000E+00 0.  1.
          5    1    1    2  501    0 -0.25344787214E+01  0.27733444395E+01 -0.11252410594E+02  0.12760163241E+02  0.47000000000E+01 0.  1.
         -5    1    1    2    0  502  0.25344787214E+01 -0.27733444395E+01  0.42045526507E+01  0.73405234665E+01  0.47000000000E+01 0. -1.
<mgrwt>
<rscale>  2 0.60170609E+01</rscale>
<asrwt>0</asrwt>
<pdfrwt beam="1">  1       21 0.10040638E-02 0.60170609E+01</pdfrwt>
<pdfrwt beam="2">  1       21 0.20883496E-02 0.60170609E+01</pdfrwt>
<totfact> 0.11022202E+09</totfact>
</mgrwt>
</event>
<event>
 4    1  0.3858687E+006  0.5257748E+01  0.7546771E-02  0.2523365E+00
         21   -1    0    0  501  502  0.00000000000E+00  0.00000000000E+00  0.80876361798E+02  0.80876361798E+02  0.00000000000E+00 0. -1.
         21   -1    0    0  502  503 -0.00000000000E+00 -0.00000000000E+00 -0.34183463194E+00  0.34183463194E+00  0.00000000000E+00 0. -1.
          5    1    1    2  501    0 -0.14411291821E+01  0.18646878887E+01  0.40647760095E+02  0.40986391827E+02  0.47000000000E+01 0.  1.
         -5    1    1    2    0  503  0.14411291821E+01 -0.18646878887E+01  0.39886767071E+02  0.40231804603E+02  0.47000000000E+01 0.  1.
<mgrwt>
<rscale>  2 0.52577480E+01</rscale>
<asrwt>0</asrwt>
<pdfrwt beam="1">  1       21 0.12442502E-01 0.52577480E+01</pdfrwt>
<pdfrwt beam="2">  1       21 0.52590008E-04 0.52577480E+01</pdfrwt>
<totfact> 0.38698613E+09</totfact>
</mgrwt>
</event>
<event>
 4    1  0.3858687E+006  0.5892432E+01  0.7546771E-02  0.2429637E+00
         21   -1    0    0  501  502  0.00000000000E+00  0.00000000000E+00  0.65725549896E+00  0.65725549896E+00  0.00000000000E+00 0. -1.
         21   -1    0    0  502  503 -0.00000000000E+00 -0.00000000000E+00 -0.60056387638E+02  0.60056387638E+02  0.00000000000E+00 0.  1.
          5    1    1    2  501    0 -0.25651181760E+01  0.24598629965E+01 -0.19167075901E+02  0.20052370329E+02  0.47000000000E+01 0. -1.
         -5    1    1    2    0  503  0.25651181760E+01 -0.24598629965E+01 -0.40232056238E+02  0.40661272808E+02  0.47000000000E+01 0. -1.
<mgrwt>
<rscale>  2 0.58924322E+01</rscale>
<asrwt>0</asrwt>
<pdfrwt beam="1">  1       21 0.10111623E-03 0.58924322E+01</pdfrwt>
<pdfrwt beam="2">  1       21 0.92394447E-02 0.58924322E+01</pdfrwt>
<totfact> 0.28314486E+09</totfact>
</mgrwt>
</event>
<event>
 4    1  0.3858687E+006  0.1231906E+02  0.7546771E-02  0.1962939E+00
         21   -1    0    0  501  502  0.00000000000E+00  0.00000000000E+00  0.39022744213E+02  0.39022744213E+02  0.00000000000E+00 0. -1.
         21   -1    0    0  502  503 -0.00000000000E+00 -0.00000000000E+00 -0.43886913981E+01  0.43886913981E+01  0.00000000000E+00 0. -1.
          5    1    1    2  501    0  0.11364537721E+02  0.71870378093E+00  0.24641219564E+02  0.27549028193E+02  0.47000000000E+01 0. -1.
         -5    1    1    2    0  503 -0.11364537721E+02 -0.71870378093E+00  0.99928332503E+01  0.15862407418E+02  0.47000000000E+01 0. -1.
<mgrwt>
<rscale>  2 0.12319061E+02</rscale>
<asrwt>0</asrwt>
<pdfrwt beam="1">  1       21 0.60034989E-02 0.12319061E+02</pdfrwt>
<pdfrwt beam="2">  1       21 0.67518332E-03 0.12319061E+02</pdfrwt>
<totfact> 0.63356026E+08</totfact>
</mgrwt>
</event>
<event>
 4    1  0.3858687E+006  0.6222851E+01  0.7546771E-02  0.2387291E+00
         21   -1    0    0  503  502  0.00000000000E+00  0.00000000000E+00  0.29769290764E+00  0.29769290764E+00  0.00000000000E+00 0. -1.
         21   -1    0    0  501  503 -0.00000000000E+00 -0.00000000000E+00 -0.18931268927E+03  0.18931268927E+03  0.00000000000E+00 0. -1.
          5    1    1    2  501    0 -0.39648513482E+01  0.95594517059E+00 -0.14753768761E+03  0.14766886315E+03  0.47000000000E+01 0. -1.
         -5    1    1    2    0  502  0.39648513482E+01 -0.95594517059E+00 -0.41477308751E+02  0.41941519031E+02  0.47000000000E+01 0. -1.
<mgrwt>
<rscale>  2 0.62228512E+01</rscale>
<asrwt>0</asrwt>
<pdfrwt beam="1">  1       21 0.45799053E-04 0.62228512E+01</pdfrwt>
<pdfrwt beam="2">  1       21 0.29124937E-01 0.62228512E+01</pdfrwt>
<totfact> 0.13715337E+09</totfact>
</mgrwt>
</event>
<event>
 4    1  0.3858687E+006  0.5270105E+01  0.7546771E-02  0.2521358E+00
         21   -1    0    0  501  502  0.00000000000E+00  0.00000000000E+00  0.13198221254E+02  0.13198221254E+02  0.00000000000E+00 0.  1.
         21   -1    0    0  502  503 -0.00000000000E+00 -0.00000000000E+00 -0.18895746363E+02  0.18895746363E+02  0.00000000000E+00 0.  1.
          5    1    1    2  501    0  0.22513864442E+00 -0.23734608031E+01  0.12278295567E+02  0.13361532308E+02  0.47000000000E+01 0.  1.
         -5    1    1    2    0  503 -0.22513864442E+00  0.23734608031E+01 -0.17975820676E+02  0.18732435308E+02  0.47000000000E+01 0.  1.
<mgrwt>
<rscale>  2 0.52701047E+01</rscale>
<asrwt>0</asrwt>
<pdfrwt beam="1">  1       21 0.20304956E-02 0.52701047E+01</pdfrwt>
<pdfrwt beam="2">  1       21 0.29070379E-02 0.52701047E+01</pdfrwt>
<totfact> 0.22666630E+08</totfact>
</mgrwt>
</event>
<event>
 4    1  0.3858687E+006  0.1094838E+02  0.7546771E-02  0.2024719E+00
         21   -1    0    0  501  502  0.00000000000E+00  0.00000000000E+00  0.20906546727E+04  0.20906546727E+04  0.00000000000E+00 0.  1.
         21   -1    0    0  502  503 -0.00000000000E+00 -0.00000000000E+00 -0.97728861675E-01  0.97728861675E-01  0.00000000000E+00 0.  1.
          5    1    1    2  501    0 -0.97601404807E+01 -0.15863822056E+01  0.17173581525E+04  0.17173930508E+04  0.47000000000E+01 0.  1.
         -5    1    1    2    0  503  0.97601404807E+01  0.15863822056E+01  0.37319879133E+03  0.37335935076E+03  0.47000000000E+01 0.  1.
<mgrwt>
<rscale>  2 0.10948377E+02</rscale>
<asrwt>0</asrwt>
<pdfrwt beam="1">  1       21 0.32160336E+00 0.10948377E+02</pdfrwt>
<pdfrwt beam="2">  1       21 0.15036884E-04 0.10948377E+02</pdfrwt>
<totfact> 0.50702515E+07</totfact>
</mgrwt>
</event>
<event>
 4    1  0.3858687E+006  0.7423439E+01  0.7546771E-02  0.2260310E+00
         21   -1    0    0  503  502  0.00000000000E+00  0.00000000000E+00  0.65977860848E+01  0.65977860848E+01  0.00000000000E+00 0.  1.
         21   -1    0    0  501  503 -0.00000000000E+00 -0.00000000000E+00 -0.16951790503E+02  0.16951790503E+02  0.00000000000E+00 0. -1.
          5    1    1    2  501    0 -0.26118800653E+01  0.51181571447E+01 -0.13563463872E+02  0.15462050389E+02  0.47000000000E+01 0. -1.
         -5    1    1    2    0  502  0.26118800653E+01 -0.51181571447E+01  0.32094594535E+01  0.80875261989E+01  0.47000000000E+01 0.  1.
<mgrwt>
<rscale>  2 0.74234392E+01</rscale>
<asrwt>0</asrwt>
<pdfrwt beam="1">  1       21 0.10150440E-02 0.74234392E+01</pdfrwt>
<pdfrwt beam="2">  1       21 0.26079678E-02 0.74234392E+01</pdfrwt>
<totfact> 0.92209068E+08</totfact>
</mgrwt>
</event>
<event>
 4    1  0.3858687E+006  0.6071679E+01  0.7546771E-02  0.2406187E+00
         21   -1    0    0  503  502  0.00000000000E+00  0.00000000000E+00  0.29825919536E+02  0.29825919536E+02  0.00000000000E+00 0. -1.
         21   -1    0    0  501  503 -0.00000000000E+00 -0.00000000000E+00 -0.25247418052E+01  0.25247418052E+01  0.00000000000E+00 0. -1.
          5    1    1    2  501    0 -0.38008990144E+01 -0.57310778347E+00  0.20941213689E+01  0.64226653468E+01  0.47000000000E+01 0. -1.
         -5    1    1    2    0  502  0.38008990144E+01  0.57310778347E+00  0.25207056362E+02  0.25927995994E+02  0.47000000000E+01 0. -1.
<mgrwt>
<rscale>  2 0.60716790E+01</rscale>
<asrwt>0</asrwt>
<pdfrwt beam="1">  1       21 0.45886028E-02 0.60716790E+01</pdfrwt>
<pdfrwt beam="2">  1       21 0.38842184E-03 0.60716790E+01</pdfrwt>
<totfact> 0.13288846E+09</totfact>
</mgrwt>
</event>
<event>
 4    1  0.3858687E+006  0.6345226E+01  0.7546771E-02  0.2372547E+00
         21   -1    0    0  501  502  0.00000000000E+00  0.00000000000E+00  0.28723362887E+00  0.28723362887E+00  0.00000000000E+00 0. -1.
         21   -1    0    0  502  503 -0.00000000000E+00 -0.00000000000E+00 -0.14017971041E+03  0.14017971041E+03  0.00000000000E+00 0. -1.
          5    1    1    2  501    0  0.13265069166E+01 -0.40512062615E+01 -0.69400157798E+02  0.69689624731E+02  0.47000000000E+01 0. -1.
         -5    1    1    2    0  503 -0.13265069166E+01  0.40512062615E+01 -0.70492318979E+02  0.70777319303E+02  0.47000000000E+01 0. -1.
<mgrwt>
<rscale>  2 0.63452260E+01</rscale>
<asrwt>0</asrwt>
<pdfrwt beam="1">  1       21 0.44189724E-04 0.63452260E+01</pdfrwt>
<pdfrwt beam="2">  1       21 0.21566141E-01 0.63452260E+01</pdfrwt>
<totfact> 0.24031417E+09</totfact>
</mgrwt>
</event>
<event>
 4    1  0.3858687E+006  0.6516941E+01  0.7546771E-02  0.2352636E+00
         21   -1    0    0  503  502  0.00000000000E+00  0.00000000000E+00  0.69643853144E+01  0.69643853144E+01  0.00000000000E+00 0.  1.
         21   -1    0    0  501  503 -0.00000000000E+00 -0.00000000000E+00 -0.67643541654E+01  0.67643541654E+01  0.00000000000E+00 0. -1.
          5    1    1    2  501    0 -0.43248396212E+01  0.12947115997E+01 -0.20540591639E+01  0.68329843351E+01  0.47000000000E+01 0. -1.
         -5    1    1    2    0  502  0.43248396212E+01 -0.12947115997E+01  0.22540903129E+01  0.68957551446E+01  0.47000000000E+01 0. -1.
<mgrwt>
<rscale>  2 0.65169407E+01</rscale>
<asrwt>0</asrwt>
<pdfrwt beam="1">  1       21 0.10714439E-02 0.65169407E+01</pdfrwt>
<pdfrwt beam="2">  1       21 0.10406699E-02 0.65169407E+01</pdfrwt>
<totfact> 0.29077084E+09</totfact>
</mgrwt>
</event>
<event>
 4    1  0.3858687E+006  0.6124002E+01  0.7546771E-02  0.2399559E+00
         21   -1    0    0  501  502  0.00000000000E+00  0.00000000000E+00  0.66521209621E-01  0.66521209621E-01  0.00000000000E+00 0. -1.
         21   -1    0    0  502  503 -0.00000000000E+00 -0.00000000000E+00 -0.56970163874E+03  0.56970163874E+03  0.00000000000E+00 0.  1.
          5    1    1    2  501    0 -0.69264760166E+00 -0.38644070603E+01 -0.31385939119E+03  0.31391913105E+03  0.47000000000E+01 0. -1.
         -5    1    1    2    0  503  0.69264760166E+00  0.38644070603E+01 -0.25577572634E+03  0.25584902890E+03  0.47000000000E+01 0.  1.
<mgrwt>
<rscale>  2 0.61240022E+01</rscale>
<asrwt>0</asrwt>
<pdfrwt beam="1">  1       21 0.10234276E-04 0.61240022E+01</pdfrwt>
<pdfrwt beam="2">  1       21 0.87644321E-01 0.61240022E+01</pdfrwt>
<totfact> 0.13566283E+09</totfact>
</mgrwt>
</event>
<event>
 4    1  0.3858687E+006  0.6452599E+01  0.7546771E-02  0.2359994E+00
         21   -1    0    0  501  502  0.00000000000E+00  0.00000000000E+00  0.18969830837E+03  0.18969830837E+03  0.00000000000E+00 0.  1.
         21   -1    0    0  502  503 -0.00000000000E+00 -0.00000000000E+00 -0.24648414526E+00  0.24648414526E+00  0.00000000000E+00 0. -1.
          5    1    1    2  501    0 -0.47248548275E+00 -0.43957698516E+01  0.12615802593E+03  0.12632293356E+03  0.47000000000E+01 0.  1.
         -5    1    1    2    0  503  0.47248548275E+00  0.43957698516E+01  0.63293798296E+02  0.63621858963E+02  0.47000000000E+01 0. -1.
<mgrwt>
<rscale>  2 0.64525991E+01</rscale>
<asrwt>0</asrwt>
<pdfrwt beam="1">  1       21 0.29184238E-01 0.64525991E+01</pdfrwt>
<pdfrwt beam="2">  1       21 0.37920789E-04 0.64525991E+01</pdfrwt>
<totfact> 0.18087999E+09</totfact>
</mgrwt>
</event>
<event>
 4    1  0.3858687E+006  0.6062462E+01  0.7546771E-02  0.2407364E+00
         21   -1    0    0  501  502  0.00000000000E+00  0.00000000000E+00  0.18228500013E+02  0.18228500013E+02  0.00000000000E+00 0.  1.
         21   -1    0    0  502  503 -0.00000000000E+00 -0.00000000000E+00 -0.38848464281E+01  0.38848464281E+01  0.00000000000E+00 0. -1.
          5    1    1    2  501    0  0.81480989300E+00  0.37415953971E+01  0.14840033045E+02  0.16030596747E+02  0.47000000000E+01 0.  1.
         -5    1    1    2    0  503 -0.81480989300E+00 -0.37415953971E+01 -0.49637946008E+00  0.60827496945E+01  0.47000000000E+01 0. -1.
<mgrwt>
<rscale>  2 0.60624625E+01</rscale>
<asrwt>0</asrwt>
<pdfrwt beam="1">  1       21 0.28043846E-02 0.60624625E+01</pdfrwt>
<pdfrwt beam="2">  1       21 0.59766869E-03 0.60624625E+01</pdfrwt>
<totfact> 0.15003177E+09</totfact>
</mgrwt>
</event>
<event>
 4    1  0.3858687E+006  0.6081309E+01  0.7546771E-02  0.2404960E+00
         21   -1    0    0  503  502  0.00000000000E+00  0.00000000000E+00  0.86231880873E+02  0.86231880873E+02  0.00000000000E+00 0. -1.
         21   -1    0    0  501  503 -0.00000000000E+00 -0.00000000000E+00 -0.45378288603E+00  0.45378288603E+00  0.00000000000E+00 0.  1.
          5    1    1    2  501    0  0.35394444338E+01 -0.15377434740E+01  0.32733587267E+02  0.33293693956E+02  0.47000000000E+01 0. -1.
         -5    1    1    2    0  502 -0.35394444338E+01  0.15377434740E+01  0.53044510721E+02  0.53391969803E+02  0.47000000000E+01 0.  1.
<mgrwt>
<rscale>  2 0.60813092E+01</rscale>
<asrwt>0</asrwt>
<pdfrwt beam="1">  1       21 0.13266430E-01 0.60813092E+01</pdfrwt>
<pdfrwt beam="2">  1       21 0.69812820E-04 0.60813092E+01</pdfrwt>
<totfact> 0.27338414E+09</totfact>
</mgrwt>
</event>
<event>
 4    1  0.3858687E+006  0.4904125E+01  0.7546771E-02  0.2584448E+00
         21   -1    0    0  503  502  0.00000000000E+00  0.00000000000E+00  0.31369530737E+03  0.31369530737E+03  0.00000000000E+00 0.  1.
         21   -1    0    0  501  503 -0.00000000000E+00 -0.00000000000E+00 -0.96424054421E-01  0.96424054421E-01  0.00000000000E+00 0.  1.
          5    1    1    2  501    0 -0.13218556434E+01 -0.46167436769E+00  0.22781721141E+03  0.22786998981E+03  0.47000000000E+01 0.  1.
         -5    1    1    2    0  502  0.13218556434E+01  0.46167436769E+00  0.85781671914E+02  0.85921741614E+02  0.47000000000E+01 0.  1.
<mgrwt>
<rscale>  2 0.49041254E+01</rscale>
<asrwt>0</asrwt>
<pdfrwt beam="1">  1       21 0.48259999E-01 0.49041254E+01</pdfrwt>
<pdfrwt beam="2">  1       21 0.14834721E-04 0.49041254E+01</pdfrwt>
<totfact> 0.21189433E+09</totfact>
</mgrwt>
</event>
<event>
 4    1  0.3858687E+006  0.4790375E+01  0.7546771E-02  0.2605741E+00
         21   -1    0    0  503  502  0.00000000000E+00  0.00000000000E+00  0.34196844746E+01  0.34196844746E+01  0.00000000000E+00 0.  1.
         21   -1    0    0  501  503 -0.00000000000E+00 -0.00000000000E+00 -0.20262298044E+02  0.20262298044E+02  0.00000000000E+00 0.  1.
          5    1    1    2  501    0  0.41442641154E+00  0.82821805382E+00 -0.18105035889E+02  0.18728054328E+02  0.47000000000E+01 0.  1.
         -5    1    1    2    0  502 -0.41442641154E+00 -0.82821805382E+00  0.12624223198E+01  0.49539281897E+01  0.47000000000E+01 0.  1.
<mgrwt>
<rscale>  2 0.47903752E+01</rscale>
<asrwt>0</asrwt>
<pdfrwt beam="1">  1       21 0.52610532E-03 0.47903752E+01</pdfrwt>
<pdfrwt beam="2">  1       21 0.31172765E-02 0.47903752E+01</pdfrwt>
<totfact> 0.12399303E+09</totfact>
</mgrwt>
</event>
<event>
 4    1  0.3858687E+006  0.6604223E+01  0.7546771E-02  0.2342845E+00
         21   -1    0    0  503  502  0.00000000000E+00  0.00000000000E+00  0.44193805195E+02  0.44193805195E+02  0.00000000000E+00 0. -1.
         21   -1    0    0  501  503 -0.00000000000E+00 -0.00000000000E+00 -0.11420967863E+01  0.11420967863E+01  0.00000000000E+00 0. -1.
          5    1    1    2  501    0  0.42743179427E+01  0.18044290308E+01  0.13170325402E+02  0.14733405214E+02  0.47000000000E+01 0. -1.
         -5    1    1    2    0  502 -0.42743179427E+01 -0.18044290308E+01  0.29881383007E+02  0.30602496768E+02  0.47000000000E+01 0. -1.
<mgrwt>
<rscale>  2 0.66042227E+01</rscale>
<asrwt>0</asrwt>
<pdfrwt beam="1">  1       21 0.67990457E-02 0.66042227E+01</pdfrwt>
<pdfrwt beam="2">  1       21 0.17570723E-03 0.66042227E+01</pdfrwt>
<totfact> 0.23497336E+09</totfact>
</mgrwt>
</event>
<event>
 4    1  0.3858687E+006  0.2626922E+02  0.7546771E-02  0.1643413E+00
         21   -1    0    0  501  502  0.00000000000E+00  0.00000000000E+00  0.17782880768E+02  0.17782880768E+02  0.00000000000E+00 0. -1.
         21   -1    0    0  502  503 -0.00000000000E+00 -0.00000000000E+00 -0.40817325711E+02  0.40817325711E+02  0.00000000000E+00 0.  1.
          5    1    1    2  501    0  0.25762044095E+02  0.20734593692E+01 -0.18022273880E+02  0.31857095058E+02  0.47000000000E+01 0.  1.
         -5    1    1    2    0  503 -0.25762044095E+02 -0.20734593692E+01 -0.50121710622E+01  0.26743111421E+02  0.47000000000E+01 0. -1.
<mgrwt>
<rscale>  2 0.26269224E+02</rscale>
<asrwt>0</asrwt>
<pdfrwt beam="1">  1       21 0.27358278E-02 0.26269224E+02</pdfrwt>
<pdfrwt beam="2">  1       21 0.62795886E-02 0.26269224E+02</pdfrwt>
<totfact> 0.95229252E+07</totfact>
</mgrwt>
</event>
<event>
 4    1  0.3858687E+006  0.7016742E+01  0.7546771E-02  0.2299309E+00
         21   -1    0    0  501  502  0.00000000000E+00  0.00000000000E+00  0.79029411759E+00  0.79029411759E+00  0.00000000000E+00 0. -1.
         21   -1    0    0  502  503 -0.00000000000E+00 -0.00000000000E+00 -0.62410061535E+02  0.62410061535E+02  0.00000000000E+00 0.  1.
          5    1    1    2  501    0 -0.54516557047E+00 -0.51814538459E+01 -0.32141891521E+02  0.32898873233E+02  0.47000000000E+01 0. -1.
         -5    1    1    2    0  503  0.54516557047E+00  0.51814538459E+01 -0.29477875896E+02  0.30301482420E+02  0.47000000000E+01 0. -1.
<mgrwt>
<rscale>  2 0.70167421E+01</rscale>
<asrwt>0</asrwt>
<pdfrwt beam="1">  1       21 0.12158371E-03 0.70167421E+01</pdfrwt>
<pdfrwt beam="2">  1       21 0.96015478E-02 0.70167421E+01</pdfrwt>
<totfact> 0.23973184E+09</totfact>
</mgrwt>
</event>
<event>
 4    1  0.3858687E+006  0.3255235E+02  0.7546771E-02  0.1571476E+00
         21   -1    0    0  501  502  0.00000000000E+00  0.00000000000E+00  0.43012473543E+02  0.43012473543E+02  0.00000000000E+00 0.  1.
         21   -1    0    0  502  503 -0.00000000000E+00 -0.00000000000E+00 -0.32992705500E+02  0.32992705500E+02  0.00000000000E+00 0. -1.
          5    1    1    2  501    0 -0.26054629376E+02  0.18939951102E+02 -0.14116006992E+02  0.35481221978E+02  0.47000000000E+01 0. -1.
         -5    1    1    2    0  503  0.26054629376E+02 -0.18939951102E+02  0.24135775034E+02  0.40523957065E+02  0.47000000000E+01 0.  1.
<mgrwt>
<rscale>  2 0.32552350E+02</rscale>
<asrwt>0</asrwt>
<pdfrwt beam="1">  1       21 0.66173036E-02 0.32552350E+02</pdfrwt>
<pdfrwt beam="2">  1       21 0.50758008E-02 0.32552350E+02</pdfrwt>
<totfact> 0.34485210E+07</totfact>
</mgrwt>
</event>
<event>
 4    1  0.3858687E+006  0.7087986E+01  0.7546771E-02  0.2292214E+00
         21   -1    0    0  503  502  0.00000000000E+00  0.00000000000E+00  0.79976771888E+01  0.79976771888E+01  0.00000000000E+00 0.  1.
         21   -1    0    0  501  503 -0.00000000000E+00 -0.00000000000E+00 -0.62987248232E+01  0.62987248232E+01  0.00000000000E+00 0. -1.
          5    1    1    2  501    0 -0.40543156360E+01  0.34222893340E+01  0.47857038418E+00  0.71041233924E+01  0.47000000000E+01 0. -1.
         -5    1    1    2    0  502  0.40543156360E+01 -0.34222893340E+01  0.12203819814E+01  0.71922786196E+01  0.47000000000E+01 0. -1.
<mgrwt>
<rscale>  2 0.70879856E+01</rscale>
<asrwt>0</asrwt>
<pdfrwt beam="1">  1       21 0.12304119E-02 0.70879856E+01</pdfrwt>
<pdfrwt beam="2">  1       21 0.96903459E-03 0.70879856E+01</pdfrwt>
<totfact> 0.28269189E+09</totfact>
</mgrwt>
</event>
<event>
 4    1  0.3858687E+006  0.6166501E+01  0.7546771E-02  0.2394244E+00
         21   -1    0    0  501  502  0.00000000000E+00  0.00000000000E+00  0.40665441039E+01  0.40665441039E+01  0.00000000000E+00 0. -1.
         21   -1    0    0  502  503 -0.00000000000E+00 -0.00000000000E+00 -0.12595616769E+03  0.12595616769E+03  0.00000000000E+00 0. -1.
          5    1    1    2  501    0 -0.83600324666E+00  0.39034384028E+01  0.16068197965E+01  0.63724094855E+01  0.47000000000E+01 0. -1.
         -5    1    1    2    0  503  0.83600324666E+00 -0.39034384028E+01 -0.12349644338E+03  0.12365030231E+03  0.47000000000E+01 0. -1.
<mgrwt>
<rscale>  2 0.61665009E+01</rscale>
<asrwt>0</asrwt>
<pdfrwt beam="1">  1       21 0.62562226E-03 0.61665009E+01</pdfrwt>
<pdfrwt beam="2">  1       21 0.19377869E-01 0.61665009E+01</pdfrwt>
<totfact> 0.75713896E+07</totfact>
</mgrwt>
</event>
<event>
 4    1  0.3858687E+006  0.4730539E+01  0.7546771E-02  0.2617297E+00
         21   -1    0    0  503  502  0.00000000000E+00  0.00000000000E+00  0.46174469551E+01  0.46174469551E+01  0.00000000000E+00 0. -1.
         21   -1    0    0  501  503 -0.00000000000E+00 -0.00000000000E+00 -0.79348477373E+01  0.79348477373E+01  0.00000000000E+00 0. -1.
          5    1    1    2  501    0 -0.10923924760E+00 -0.52542269950E+00 -0.55742600860E+01  0.73109765239E+01  0.47000000000E+01 0. -1.
         -5    1    1    2    0  502  0.10923924760E+00  0.52542269950E+00  0.22568593039E+01  0.52413181685E+01  0.47000000000E+01 0. -1.
<mgrwt>
<rscale>  2 0.47305393E+01</rscale>
<asrwt>0</asrwt>
<pdfrwt beam="1">  1       21 0.71037646E-03 0.47305393E+01</pdfrwt>
<pdfrwt beam="2">  1       21 0.12207458E-02 0.47305393E+01</pdfrwt>
<totfact> 0.30450733E+09</totfact>
</mgrwt>
</event>
<event>
 4    1  0.3858687E+006  0.5188079E+01  0.7546771E-02  0.2534833E+00
         21   -1    0    0  503  502  0.00000000000E+00  0.00000000000E+00  0.11008923178E+01  0.11008923178E+01  0.00000000000E+00 0. -1.
         21   -1    0    0  501  503 -0.00000000000E+00 -0.00000000000E+00 -0.36317012254E+02  0.36317012254E+02  0.00000000000E+00 0. -1.
          5    1    1    2  501    0  0.24635057004E-01 -0.21967140033E+01 -0.28302943047E+02  0.28774515537E+02  0.47000000000E+01 0. -1.
         -5    1    1    2    0  502 -0.24635057004E-01  0.21967140033E+01 -0.69131768897E+01  0.86433890348E+01  0.47000000000E+01 0. -1.
<mgrwt>
<rscale>  2 0.51880786E+01</rscale>
<asrwt>0</asrwt>
<pdfrwt beam="1">  1       21 0.16936806E-03 0.51880786E+01</pdfrwt>
<pdfrwt beam="2">  1       21 0.55872324E-02 0.51880786E+01</pdfrwt>
<totfact> 0.26780345E+09</totfact>
</mgrwt>
</event>
<event>
 4    1  0.3858687E+006  0.9005333E+01  0.7546771E-02  0.2136448E+00
         21   -1    0    0  501  502  0.00000000000E+00  0.00000000000E+00  0.39297370417E+01  0.39297370417E+01  0.00000000000E+00 0.  1.
         21   -1    0    0  502  503 -0.00000000000E+00 -0.00000000000E+00 -0.44718095483E+02  0.44718095483E+02  0.00000000000E+00 0. -1.
          5    1    1    2  501    0 -0.36464366706E+01 -0.67608814560E+01 -0.25443330117E+01  0.93578656182E+01  0.47000000000E+01 0.  1.
         -5    1    1    2    0  503  0.36464366706E+01  0.67608814560E+01 -0.38244025430E+02  0.39289966907E+02  0.47000000000E+01 0. -1.
<mgrwt>
<rscale>  2 0.90053328E+01</rscale>
<asrwt>0</asrwt>
<pdfrwt beam="1">  1       21 0.60457489E-03 0.90053328E+01</pdfrwt>
<pdfrwt beam="2">  1       21 0.68797075E-02 0.90053328E+01</pdfrwt>
<totfact> 0.50851056E+08</totfact>
</mgrwt>
</event>
<event>
 4    1  0.3858687E+006  0.6556947E+01  0.7546771E-02  0.2348121E+00
         21   -1    0    0  501  502  0.00000000000E+00  0.00000000000E+00  0.11806706019E+00  0.11806706019E+00  0.00000000000E+00 0. -1.
         21   -1    0    0  502  503 -0.00000000000E+00 -0.00000000000E+00 -0.42299123524E+03  0.42299123524E+03  0.00000000000E+00 0. -1.
          5    1    1    2  501    0  0.38519323221E+01 -0.24629610084E+01 -0.13252962613E+03  0.13269173057E+03  0.47000000000E+01 0. -1.
         -5    1    1    2    0  503 -0.38519323221E+01  0.24629610084E+01 -0.29034354205E+03  0.29041757173E+03  0.47000000000E+01 0. -1.
<mgrwt>
<rscale>  2 0.65569474E+01</rscale>
<asrwt>0</asrwt>
<pdfrwt beam="1">  1       21 0.18164289E-04 0.65569474E+01</pdfrwt>
<pdfrwt beam="2">  1       21 0.65075122E-01 0.65569474E+01</pdfrwt>
<totfact> 0.11752791E+09</totfact>
</mgrwt>
</event>
<event>
 4    1  0.3858687E+006  0.4727445E+01  0.7546771E-02  0.2617901E+00
         21   -1    0    0  503  502  0.00000000000E+00  0.00000000000E+00  0.17367944716E+01  0.17367944716E+01  0.00000000000E+00 0.  1.
         21   -1    0    0  501  503 -0.00000000000E+00 -0.00000000000E+00 -0.42927892311E+02  0.42927892311E+02  0.00000000000E+00 0.  1.
          5    1    1    2  501    0 -0.50354567069E+00 -0.71978933492E-01 -0.39283410363E+02  0.39566843050E+02  0.47000000000E+01 0.  1.
         -5    1    1    2    0  502  0.50354567069E+00  0.71978933492E-01 -0.19076874760E+01  0.50978437320E+01  0.47000000000E+01 0.  1.
<mgrwt>
<rscale>  2 0.47274453E+01</rscale>
<asrwt>0</asrwt>
<pdfrwt beam="1">  1       21 0.26719914E-03 0.47274453E+01</pdfrwt>
<pdfrwt beam="2">  1       21 0.66042913E-02 0.47274453E+01</pdfrwt>
<totfact> 0.10348446E+09</totfact>
</mgrwt>
</event>
<event>
 4    1  0.3858687E+006  0.5036996E+01  0.7546771E-02  0.2560632E+00
         21   -1    0    0  501  502  0.00000000000E+00  0.00000000000E+00  0.75012427198E+00  0.75012427198E+00  0.00000000000E+00 0.  1.
         21   -1    0    0  502  503 -0.00000000000E+00 -0.00000000000E+00 -0.66320732437E+02  0.66320732437E+02  0.00000000000E+00 0.  1.
          5    1    1    2  501    0 -0.98680949875E+00  0.15190575369E+01 -0.93102371533E+01  0.10585454390E+02  0.47000000000E+01 0.  1.
         -5    1    1    2    0  503  0.98680949875E+00 -0.15190575369E+01 -0.56260371011E+02  0.56485402319E+02  0.47000000000E+01 0.  1.
<mgrwt>
<rscale>  2 0.50369960E+01</rscale>
<asrwt>0</asrwt>
<pdfrwt beam="1">  1       21 0.11540373E-03 0.50369960E+01</pdfrwt>
<pdfrwt beam="2">  1       21 0.10203190E-01 0.50369960E+01</pdfrwt>
<totfact> 0.17692773E+09</totfact>
</mgrwt>
</event>
<event>
 4    1  0.3858687E+006  0.5404315E+01  0.7546771E-02  0.2500067E+00
         21   -1    0    0  503  502  0.00000000000E+00  0.00000000000E+00  0.75986987245E+02  0.75986987245E+02  0.00000000000E+00 0.  1.
         21   -1    0    0  501  503 -0.00000000000E+00 -0.00000000000E+00 -0.64242736441E+00  0.64242736441E+00  0.00000000000E+00 0.  1.
          5    1    1    2  501    0  0.26663134805E+01 -0.85964835254E-01  0.13388450696E+02  0.14438047983E+02  0.47000000000E+01 0.  1.
         -5    1    1    2    0  502 -0.26663134805E+01  0.85964835254E-01  0.61956109184E+02  0.62191366626E+02  0.47000000000E+01 0.  1.
<mgrwt>
<rscale>  2 0.54043147E+01</rscale>
<asrwt>0</asrwt>
<pdfrwt beam="1">  1       21 0.11690299E-01 0.54043147E+01</pdfrwt>
<pdfrwt beam="2">  1       21 0.98835039E-04 0.54043147E+01</pdfrwt>
<totfact> 0.18877412E+09</totfact>
</mgrwt>
</event>
<event>
 4    1  0.3858687E+006  0.5231416E+01  0.7546771E-02  0.2527669E+00
         21   -1    0    0  501  502  0.00000000000E+00  0.00000000000E+00  0.48426528367E+00  0.48426528367E+00  0.00000000000E+00 0. -1.
         21   -1    0    0  502  503 -0.00000000000E+00 -0.00000000000E+00 -0.63769364120E+02  0.63769364120E+02  0.00000000000E+00 0. -1.
          5    1    1    2  501    0  0.19884259335E+00 -0.22887062792E+01 -0.20805912217E+02  0.21453524139E+02  0.47000000000E+01 0. -1.
         -5    1    1    2    0  503 -0.19884259335E+00  0.22887062792E+01 -0.42479186620E+02  0.42800105265E+02  0.47000000000E+01 0. -1.
<mgrwt>
<rscale>  2 0.52314161E+01</rscale>
<asrwt>0</asrwt>
<pdfrwt beam="1">  1       21 0.74502356E-04 0.52314161E+01</pdfrwt>
<pdfrwt beam="2">  1       21 0.98106708E-02 0.52314161E+01</pdfrwt>
<totfact> 0.34861681E+09</totfact>
</mgrwt>
</event>
<event>
 4    1  0.3858687E+006  0.4792906E+01  0.7546771E-02  0.2605258E+00
         21   -1    0    0  501  502  0.00000000000E+00  0.00000000000E+00  0.29884373574E+04  0.29884373574E+04  0.00000000000E+00 0. -1.
         21   -1    0    0  502  503 -0.00000000000E+00 -0.00000000000E+00 -0.77689264401E-02  0.77689264401E-02  0.00000000000E+00 0. -1.
          5    1    1    2  501    0 -0.60123524717E+00 -0.72142979867E+00  0.16477119663E+04  0.16477189371E+04  0.47000000000E+01 0.  1.
         -5    1    1    2    0  503  0.60123524717E+00  0.72142979867E+00  0.13407176222E+04  0.13407261892E+04  0.47000000000E+01 0.  1.
<mgrwt>
<rscale>  2 0.47929057E+01</rscale>
<asrwt>0</asrwt>
<pdfrwt beam="1">  1       21 0.45884071E+00 0.47929057E+01</pdfrwt>
<pdfrwt beam="2">  1       21 0.11976130E-05 0.47929057E+01</pdfrwt>
<totfact> 0.33664960E+08</totfact>
</mgrwt>
</event>
<event>
 4    1  0.3858687E+006  0.6718104E+01  0.7546771E-02  0.2330387E+00
         21   -1    0    0  501  502  0.00000000000E+00  0.00000000000E+00  0.45695365824E+02  0.45695365824E+02  0.00000000000E+00 0.  1.
         21   -1    0    0  502  503 -0.00000000000E+00 -0.00000000000E+00 -0.11655387095E+01  0.11655387095E+01  0.00000000000E+00 0. -1.
          5    1    1    2  501    0  0.41763375238E+01 -0.23666708542E+01  0.31417436049E+02  0.32127686096E+02  0.47000000000E+01 0.  1.
         -5    1    1    2    0  503 -0.41763375238E+01  0.23666708542E+01  0.13112391066E+02  0.14733218437E+02  0.47000000000E+01 0. -1.
<mgrwt>
<rscale>  2 0.67181043E+01</rscale>
<asrwt>0</asrwt>
<pdfrwt beam="1">  1       21 0.70300549E-02 0.67181043E+01</pdfrwt>
<pdfrwt beam="2">  1       21 0.17931368E-03 0.67181043E+01</pdfrwt>
<totfact> 0.22017725E+09</totfact>
</mgrwt>
</event>
<event>
 4    1  0.3858687E+006  0.6939707E+01  0.7546771E-02  0.2307115E+00
         21   -1    0    0  503  502  0.00000000000E+00  0.00000000000E+00  0.35179522666E+03  0.35179522666E+03  0.00000000000E+00 0. -1.
         21   -1    0    0  501  503 -0.00000000000E+00 -0.00000000000E+00 -0.13762818821E+00  0.13762818821E+00  0.00000000000E+00 0.  1.
          5    1    1    2  501    0  0.12578714889E+01 -0.49484642176E+01  0.16299851861E+03  0.16314618171E+03  0.47000000000E+01 0. -1.
         -5    1    1    2    0  502 -0.12578714889E+01  0.49484642176E+01  0.18865907986E+03  0.18878667313E+03  0.47000000000E+01 0.  1.
<mgrwt>
<rscale>  2 0.69397074E+01</rscale>
<asrwt>0</asrwt>
<pdfrwt beam="1">  1       21 0.54121623E-01 0.69397074E+01</pdfrwt>
<pdfrwt beam="2">  1       21 0.21173849E-04 0.69397074E+01</pdfrwt>
<totfact> 0.14029202E+09</totfact>
</mgrwt>
</event>
<event>
 4    1  0.3858687E+006  0.5225862E+01  0.7546771E-02  0.2528581E+00
         21   -1    0    0  501  502  0.00000000000E+00  0.00000000000E+00  0.96481591618E+01  0.96481591618E+01  0.00000000000E+00 0. -1.
         21   -1    0    0  502  503 -0.00000000000E+00 -0.00000000000E+00 -0.34219597232E+01  0.34219597232E+01  0.00000000000E+00 0. -1.
          5    1    1    2  501    0  0.29228248209E+00 -0.22658790637E+01  0.58298817805E+01  0.78292501912E+01  0.47000000000E+01 0.  1.
         -5    1    1    2    0  503 -0.29228248209E+00  0.22658790637E+01  0.39631765805E+00  0.52408686939E+01  0.47000000000E+01 0.  1.
<mgrwt>
<rscale>  2 0.52258623E+01</rscale>
<asrwt>0</asrwt>
<pdfrwt beam="1">  1       21 0.14843322E-02 0.52258623E+01</pdfrwt>
<pdfrwt beam="2">  1       21 0.52645535E-03 0.52258623E+01</pdfrwt>
<totfact> 0.38813666E+09</totfact>
</mgrwt>
</event>
<event>
 4    1  0.3858687E+006  0.7348766E+01  0.7546771E-02  0.2267206E+00
         21   -1    0    0  503  502  0.00000000000E+00  0.00000000000E+00  0.48826805540E+02  0.48826805540E+02  0.00000000000E+00 0.  1.
         21   -1    0    0  501  503 -0.00000000000E+00 -0.00000000000E+00 -0.11179122644E+01  0.11179122644E+01  0.00000000000E+00 0.  1.
          5    1    1    2  501    0  0.22448328805E+01  0.51841188033E+01  0.21280873227E+02  0.22513994042E+02  0.47000000000E+01 0.  1.
         -5    1    1    2    0  502 -0.22448328805E+01 -0.51841188033E+01  0.26428020048E+02  0.27430723762E+02  0.47000000000E+01 0.  1.
<mgrwt>
<rscale>  2 0.73487660E+01</rscale>
<asrwt>0</asrwt>
<pdfrwt beam="1">  1       21 0.75118146E-02 0.73487660E+01</pdfrwt>
<pdfrwt beam="2">  1       21 0.17198654E-03 0.73487660E+01</pdfrwt>
<totfact> 0.22554148E+09</totfact>
</mgrwt>
</event>
<event>
 4    1  0.3858687E+006  0.9089119E+01  0.7546771E-02  0.2130863E+00
         21   -1    0    0  501  502  0.00000000000E+00  0.00000000000E+00  0.28422100476E+02  0.28422100476E+02  0.00000000000E+00 0. -1.
         21   -1    0    0  502  503 -0.00000000000E+00 -0.00000000000E+00 -0.52503048550E+01  0.52503048550E+01  0.00000000000E+00 0.  1.
          5    1    1    2  501    0 -0.37826634161E+01 -0.67980542097E+01  0.33720596251E+00  0.90953719781E+01  0.47000000000E+01 0.  1.
         -5    1    1    2    0  503  0.37826634161E+01  0.67980542097E+01  0.22834589658E+02  0.24577033353E+02  0.47000000000E+01 0. -1.
<mgrwt>
<rscale>  2 0.90891190E+01</rscale>
<asrwt>0</asrwt>
<pdfrwt beam="1">  1       21 0.43726307E-02 0.90891190E+01</pdfrwt>
<pdfrwt beam="2">  1       21 0.80773923E-03 0.90891190E+01</pdfrwt>
<totfact> 0.67535584E+08</totfact>
</mgrwt>
</event>
<event>
 4    1  0.3858687E+006  0.9812955E+01  0.7546771E-02  0.2085792E+00
         21   -1    0    0  503  502  0.00000000000E+00  0.00000000000E+00  0.55437603224E+02  0.55437603224E+02  0.00000000000E+00 0.  1.
         21   -1    0    0  501  503 -0.00000000000E+00 -0.00000000000E+00 -0.45897580274E+01  0.45897580274E+01  0.00000000000E+00 0. -1.
          5    1    1    2  501    0  0.20177231816E+01  0.83745377099E+01  0.17615525666E+01  0.99698122418E+01  0.47000000000E+01 0. -1.
         -5    1    1    2    0  502 -0.20177231816E+01 -0.83745377099E+01  0.49086292630E+02  0.50057549009E+02  0.47000000000E+01 0.  1.
<mgrwt>
<rscale>  2 0.98129551E+01</rscale>
<asrwt>0</asrwt>
<pdfrwt beam="1">  1       21 0.85288615E-02 0.98129551E+01</pdfrwt>
<pdfrwt beam="2">  1       21 0.70611666E-03 0.98129551E+01</pdfrwt>
<totfact> 0.30549559E+08</totfact>
</mgrwt>
</event>
<event>
 4    1  0.3858687E+006  0.8585525E+01  0.7546771E-02  0.2165727E+00
         21   -1    0    0  501  502  0.00000000000E+00  0.00000000000E+00  0.83966304013E+02  0.83966304013E+02  0.00000000000E+00 0. -1.
         21   -1    0    0  502  503 -0.00000000000E+00 -0.00000000000E+00 -0.18433102471E+01  0.18433102471E+01  0.00000000000E+00 0.  1.
          5    1    1    2  501    0  0.51905549824E+01 -0.49678351570E+01  0.72112105031E+02  0.72621394500E+02  0.47000000000E+01 0. -1.
         -5    1    1    2    0  503 -0.51905549824E+01  0.49678351570E+01  0.10010888736E+02  0.13188219760E+02  0.47000000000E+01 0.  1.
<mgrwt>
<rscale>  2 0.85855254E+01</rscale>
<asrwt>0</asrwt>
<pdfrwt beam="1">  1       21 0.12917890E-01 0.85855254E+01</pdfrwt>
<pdfrwt beam="2">  1       21 0.28358626E-03 0.85855254E+01</pdfrwt>
<totfact> 0.53532603E+08</totfact>
</mgrwt>
</event>
<event>
 4    1  0.3858687E+006  0.4935151E+01  0.7546771E-02  0.2578788E+00
         21   -1    0    0  501  502  0.00000000000E+00  0.00000000000E+00  0.23200850951E+00  0.23200850951E+00  0.00000000000E+00 0.  1.
         21   -1    0    0  502  503 -0.00000000000E+00 -0.00000000000E+00 -0.10735525973E+03  0.10735525973E+03  0.00000000000E+00 0.  1.
          5    1    1    2  501    0 -0.15052250478E+01 -0.38147534623E-02 -0.61567080363E+02  0.61764561857E+02  0.47000000000E+01 0. -1.
         -5    1    1    2    0  503  0.15052250478E+01  0.38147534623E-02 -0.45556170861E+02  0.45822706386E+02  0.47000000000E+01 0. -1.
<mgrwt>
<rscale>  2 0.49351512E+01</rscale>
<asrwt>0</asrwt>
<pdfrwt beam="1">  1       21 0.35693614E-04 0.49351512E+01</pdfrwt>
<pdfrwt beam="2">  1       21 0.16516195E-01 0.49351512E+01</pdfrwt>
<totfact> 0.39182042E+09</totfact>
</mgrwt>
</event>
<event>
 4    1  0.3858687E+006  0.7066522E+01  0.7546771E-02  0.2294339E+00
         21   -1    0    0  503  502  0.00000000000E+00  0.00000000000E+00  0.14077049693E+03  0.14077049693E+03  0.00000000000E+00 0.  1.
         21   -1    0    0  501  503 -0.00000000000E+00 -0.00000000000E+00 -0.16416259220E+01  0.16416259220E+01  0.00000000000E+00 0.  1.
          5    1    1    2  501    0 -0.51405271491E+01 -0.11919365060E+01  0.65193380694E+01  0.96144423067E+01  0.47000000000E+01 0.  1.
         -5    1    1    2    0  502  0.51405271491E+01  0.11919365060E+01  0.13260953294E+03  0.13279768055E+03  0.47000000000E+01 0.  1.
<mgrwt>
<rscale>  2 0.70665219E+01</rscale>
<asrwt>0</asrwt>
<pdfrwt beam="1">  1       21 0.21656990E-01 0.70665219E+01</pdfrwt>
<pdfrwt beam="2">  1       21 0.25255795E-03 0.70665219E+01</pdfrwt>
<totfact> 0.24207234E+08</totfact>
</mgrwt>
</event>
<event>
 4    1  0.3858687E+006  0.6979149E+01  0.7546771E-02  0.2303101E+00
         21   -1    0    0  503  502  0.00000000000E+00  0.00000000000E+00  0.20452533930E+02  0.20452533930E+02  0.00000000000E+00 0.  1.
         21   -1    0    0  501  503 -0.00000000000E+00 -0.00000000000E+00 -0.34373995364E+01  0.34373995364E+01  0.00000000000E+00 0. -1.
          5    1    1    2  501    0  0.32323204055E+01 -0.40212721223E+01  0.18873377632E+01  0.72298387616E+01  0.47000000000E+01 0. -1.
         -5    1    1    2    0  502 -0.32323204055E+01  0.40212721223E+01  0.15127796630E+02  0.16660094705E+02  0.47000000000E+01 0.  1.
<mgrwt>
<rscale>  2 0.69791493E+01</rscale>
<asrwt>0</asrwt>
<pdfrwt beam="1">  1       21 0.31465436E-02 0.69791493E+01</pdfrwt>
<pdfrwt beam="2">  1       21 0.52883071E-03 0.69791493E+01</pdfrwt>
<totfact> 0.16838743E+09</totfact>
</mgrwt>
</event>
<event>
 4    1  0.3858687E+006  0.6673875E+01  0.7546771E-02  0.2335184E+00
         21   -1    0    0  501  502  0.00000000000E+00  0.00000000000E+00  0.24590364214E+02  0.24590364214E+02  0.00000000000E+00 0.  1.
         21   -1    0    0  502  503 -0.00000000000E+00 -0.00000000000E+00 -0.40843666218E+01  0.40843666218E+01  0.00000000000E+00 0.  1.
          5    1    1    2  501    0  0.42564099408E+01  0.20817271820E+01  0.20948785650E+02  0.21986182794E+02  0.47000000000E+01 0.  1.
         -5    1    1    2    0  503 -0.42564099408E+01 -0.20817271820E+01 -0.44278805768E+00  0.66885480419E+01  0.47000000000E+01 0.  1.
<mgrwt>
<rscale>  2 0.66738755E+01</rscale>
<asrwt>0</asrwt>
<pdfrwt beam="1">  1       21 0.37831329E-02 0.66738755E+01</pdfrwt>
<pdfrwt beam="2">  1       21 0.62836411E-03 0.66738755E+01</pdfrwt>
<totfact> 0.97425980E+08</totfact>
</mgrwt>
</event>
<event>
 4    1  0.3858687E+006  0.5886590E+01  0.7546771E-02  0.2430422E+00
         21   -1    0    0  501  502  0.00000000000E+00  0.00000000000E+00  0.15802571630E+02  0.15802571630E+02  0.00000000000E+00 0.  1.
         21   -1    0    0  502  503 -0.00000000000E+00 -0.00000000000E+00 -0.30023245696E+01  0.30023245696E+01  0.00000000000E+00 0.  1.
          5    1    1    2  501    0 -0.34916877528E+01 -0.60832454684E+00  0.11282441630E+02  0.12725778218E+02  0.47000000000E+01 0.  1.
         -5    1    1    2    0  503  0.34916877528E+01  0.60832454684E+00  0.15178054313E+01  0.60791179824E+01  0.47000000000E+01 0.  1.
<mgrwt>
<rscale>  2 0.58865900E+01</rscale>
<asrwt>0</asrwt>
<pdfrwt beam="1">  1       21 0.24311648E-02 0.58865900E+01</pdfrwt>
<pdfrwt beam="2">  1       21 0.46189610E-03 0.58865900E+01</pdfrwt>
<totfact> 0.25735915E+09</totfact>
</mgrwt>
</event>
<event>
 4    1  0.3858687E+006  0.5318869E+01  0.7546771E-02  0.2513516E+00
         21   -1    0    0  501  502  0.00000000000E+00  0.00000000000E+00  0.11575831414E+03  0.11575831414E+03  0.00000000000E+00 0. -1.
         21   -1    0    0  502  503 -0.00000000000E+00 -0.00000000000E+00 -0.45528943126E+00  0.45528943126E+00  0.00000000000E+00 0. -1.
          5    1    1    2  501    0 -0.21318512549E+01 -0.12866930197E+01  0.97199024110E+02  0.97344443378E+02  0.47000000000E+01 0. -1.
         -5    1    1    2    0  503  0.21318512549E+01  0.12866930197E+01  0.18104000594E+02  0.18869160188E+02  0.47000000000E+01 0. -1.
<mgrwt>
<rscale>  2 0.53188691E+01</rscale>
<asrwt>0</asrwt>
<pdfrwt beam="1">  1       21 0.17808948E-01 0.53188691E+01</pdfrwt>
<pdfrwt beam="2">  1       21 0.70044620E-04 0.53188691E+01</pdfrwt>
<totfact> 0.15269891E+09</totfact>
</mgrwt>
</event>
<event>
 4    1  0.3858687E+006  0.7301992E+01  0.7546771E-02  0.2271584E+00
         21   -1    0    0  503  502  0.00000000000E+00  0.00000000000E+00  0.10348697750E+02  0.10348697750E+02  0.00000000000E+00 0. -1.
         21   -1    0    0  501  503 -0.00000000000E+00 -0.00000000000E+00 -0.96958184639E+01  0.96958184639E+01  0.00000000000E+00 0. -1.
          5    1    1    2  501    0  0.27577076107E+01 -0.48604670255E+01 -0.65343139796E+01  0.97987933010E+01  0.47000000000E+01 0. -1.
         -5    1    1    2    0  502 -0.27577076107E+01  0.48604670255E+01  0.71871932660E+01  0.10245722913E+02  0.47000000000E+01 0. -1.
<mgrwt>
<rscale>  2 0.73019923E+01</rscale>
<asrwt>0</asrwt>
<pdfrwt beam="1">  1       21 0.15921074E-02 0.73019923E+01</pdfrwt>
<pdfrwt beam="2">  1       21 0.14916644E-02 0.73019923E+01</pdfrwt>
<totfact> 0.10755567E+09</totfact>
</mgrwt>
</event>
<event>
 4    1  0.3858687E+006  0.4752883E+01  0.7546771E-02  0.2612952E+00
         21   -1    0    0  503  502  0.00000000000E+00  0.00000000000E+00  0.47196979728E+01  0.47196979728E+01  0.00000000000E+00 0. -1.
         21   -1    0    0  501  503 -0.00000000000E+00 -0.00000000000E+00 -0.92265733888E+01  0.92265733888E+01  0.00000000000E+00 0. -1.
          5    1    1    2  501    0 -0.31978415265E+00 -0.63058292587E+00 -0.70908453365E+01  0.85363917622E+01  0.47000000000E+01 0. -1.
         -5    1    1    2    0  502  0.31978415265E+00  0.63058292587E+00  0.25839699205E+01  0.54098795995E+01  0.47000000000E+01 0. -1.
<mgrwt>
<rscale>  2 0.47528830E+01</rscale>
<asrwt>0</asrwt>
<pdfrwt beam="1">  1       21 0.72610737E-03 0.47528830E+01</pdfrwt>
<pdfrwt beam="2">  1       21 0.14194728E-02 0.47528830E+01</pdfrwt>
<totfact> 0.24047201E+09</totfact>
</mgrwt>
</event>
<event>
 4    1  0.3858687E+006  0.4779891E+01  0.7546771E-02  0.2607747E+00
         21   -1    0    0  503  502  0.00000000000E+00  0.00000000000E+00  0.13118576074E+01  0.13118576074E+01  0.00000000000E+00 0. -1.
         21   -1    0    0  501  503 -0.00000000000E+00 -0.00000000000E+00 -0.17853380218E+02  0.17853380218E+02  0.00000000000E+00 0. -1.
          5    1    1    2  501    0  0.87014086791E+00 -0.14475954973E-01 -0.97705754279E+01  0.10877108939E+02  0.47000000000E+01 0. -1.
         -5    1    1    2    0  502 -0.87014086791E+00  0.14475954973E-01 -0.67709471832E+01  0.82881288866E+01  0.47000000000E+01 0. -1.
<mgrwt>
<rscale>  2 0.47798907E+01</rscale>
<asrwt>0</asrwt>
<pdfrwt beam="1">  1       21 0.20182424E-03 0.47798907E+01</pdfrwt>
<pdfrwt beam="2">  1       21 0.27466740E-02 0.47798907E+01</pdfrwt>
<totfact> 0.54368623E+09</totfact>
</mgrwt>
</event>
<event>
 4    1  0.3858687E+006  0.5365619E+01  0.7546771E-02  0.2506112E+00
         21   -1    0    0  503  502  0.00000000000E+00  0.00000000000E+00  0.98403749050E+01  0.98403749050E+01  0.00000000000E+00 0. -1.
         21   -1    0    0  501  503 -0.00000000000E+00 -0.00000000000E+00 -0.75396945534E+01  0.75396945534E+01  0.00000000000E+00 0. -1.
          5    1    1    2  501    0  0.23833253356E+01  0.10097666558E+01 -0.56477000792E+01  0.77901466314E+01  0.47000000000E+01 0. -1.
         -5    1    1    2    0  502 -0.23833253356E+01 -0.10097666558E+01  0.79483804309E+01  0.95899228270E+01  0.47000000000E+01 0. -1.
<mgrwt>
<rscale>  2 0.53656191E+01</rscale>
<asrwt>0</asrwt>
<pdfrwt beam="1">  1       21 0.15139038E-02 0.53656191E+01</pdfrwt>
<pdfrwt beam="2">  1       21 0.11599530E-02 0.53656191E+01</pdfrwt>
<totfact> 0.12896400E+09</totfact>
</mgrwt>
</event>
<event>
 4    1  0.3858687E+006  0.7639581E+01  0.7546771E-02  0.2240969E+00
         21   -1    0    0  501  502  0.00000000000E+00  0.00000000000E+00  0.88260736187E+01  0.88260736187E+01  0.00000000000E+00 0. -1.
         21   -1    0    0  502  503 -0.00000000000E+00 -0.00000000000E+00 -0.41236393545E+02  0.41236393545E+02  0.00000000000E+00 0.  1.
          5    1    1    2  501    0  0.49301250662E+01  0.34593436917E+01  0.67314543903E+01  0.10182125031E+02  0.47000000000E+01 0. -1.
         -5    1    1    2    0  503 -0.49301250662E+01 -0.34593436917E+01 -0.39141774316E+02  0.39880342132E+02  0.47000000000E+01 0.  1.
<mgrwt>
<rscale>  2 0.76395806E+01</rscale>
<asrwt>0</asrwt>
<pdfrwt beam="1">  1       21 0.13578574E-02 0.76395806E+01</pdfrwt>
<pdfrwt beam="2">  1       21 0.63440607E-02 0.76395806E+01</pdfrwt>
<totfact> 0.16402210E+08</totfact>
</mgrwt>
</event>
<event>
 4    1  0.3858687E+006  0.7178718E+01  0.7546771E-02  0.2283345E+00
         21   -1    0    0  503  502  0.00000000000E+00  0.00000000000E+00  0.36324465221E+03  0.36324465221E+03  0.00000000000E+00 0.  1.
         21   -1    0    0  501  503 -0.00000000000E+00 -0.00000000000E+00 -0.35663391274E+00  0.35663391274E+00  0.00000000000E+00 0. -1.
          5    1    1    2  501    0 -0.85373790433E+00  0.53586492549E+01  0.40364663241E+02  0.40998049085E+02  0.47000000000E+01 0. -1.
         -5    1    1    2    0  502  0.85373790433E+00 -0.53586492549E+01  0.32252335505E+03  0.32260323704E+03  0.47000000000E+01 0.  1.
<mgrwt>
<rscale>  2 0.71787179E+01</rscale>
<asrwt>0</asrwt>
<pdfrwt beam="1">  1       21 0.55883497E-01 0.71787179E+01</pdfrwt>
<pdfrwt beam="2">  1       21 0.54867047E-04 0.71787179E+01</pdfrwt>
<totfact> 0.37540239E+08</totfact>
</mgrwt>
</event>
<event>
 4    1  0.3858687E+006  0.5632833E+01  0.7546771E-02  0.2465810E+00
         21   -1    0    0  503  502  0.00000000000E+00  0.00000000000E+00  0.41523351025E+01  0.41523351025E+01  0.00000000000E+00 0. -1.
         21   -1    0    0  501  503 -0.00000000000E+00 -0.00000000000E+00 -0.84319313234E+01  0.84319313234E+01  0.00000000000E+00 0.  1.
          5    1    1    2  501    0 -0.26679206905E+01  0.15877679865E+01 -0.40666566920E+01  0.69474099232E+01  0.47000000000E+01 0.  1.
         -5    1    1    2    0  502  0.26679206905E+01 -0.15877679865E+01 -0.21293952897E+00  0.56368565028E+01  0.47000000000E+01 0. -1.
<mgrwt>
<rscale>  2 0.56328330E+01</rscale>
<asrwt>0</asrwt>
<pdfrwt beam="1">  1       21 0.63882079E-03 0.56328330E+01</pdfrwt>
<pdfrwt beam="2">  1       21 0.12972202E-02 0.56328330E+01</pdfrwt>
<totfact> 0.38649175E+09</totfact>
</mgrwt>
</event>
<event>
 4    1  0.3858687E+006  0.1121325E+02  0.7546771E-02  0.2011874E+00
         21   -1    0    0  503  502  0.00000000000E+00  0.00000000000E+00  0.91422036116E+00  0.91422036116E+00  0.00000000000E+00 0.  1.
         21   -1    0    0  501  503 -0.00000000000E+00 -0.00000000000E+00 -0.58112904345E+03  0.58112904345E+03  0.00000000000E+00 0. -1.
          5    1    1    2  501    0 -0.30717533339E+01 -0.97062488832E+01 -0.54436974459E+03  0.54448522088E+03  0.47000000000E+01 0. -1.
         -5    1    1    2    0  502  0.30717533339E+01  0.97062488832E+01 -0.35845078494E+02  0.37558042922E+02  0.47000000000E+01 0.  1.
<mgrwt>
<rscale>  2 0.11213248E+02</rscale>
<asrwt>0</asrwt>
<pdfrwt beam="1">  1       21 0.14064919E-03 0.11213248E+02</pdfrwt>
<pdfrwt beam="2">  1       21 0.89404530E-01 0.11213248E+02</pdfrwt>
<totfact> 0.50747213E+07</totfact>
</mgrwt>
</event>
<event>
 4    1  0.3858687E+006  0.9609512E+01  0.7546771E-02  0.2097917E+00
         21   -1    0    0  503  502  0.00000000000E+00  0.00000000000E+00  0.15360315269E+02  0.15360315269E+02  0.00000000000E+00 0. -1.
         21   -1    0    0  501  503 -0.00000000000E+00 -0.00000000000E+00 -0.60133253323E+01  0.60133253323E+01  0.00000000000E+00 0. -1.
          5    1    1    2  501    0 -0.19556950055E+01 -0.81503362370E+01  0.48452177377E+01  0.10761917053E+02  0.47000000000E+01 0. -1.
         -5    1    1    2    0  502  0.19556950055E+01  0.81503362370E+01  0.45017721987E+01  0.10611723548E+02  0.47000000000E+01 0. -1.
<mgrwt>
<rscale>  2 0.96095121E+01</rscale>
<asrwt>0</asrwt>
<pdfrwt beam="1">  1       21 0.23631254E-02 0.96095121E+01</pdfrwt>
<pdfrwt beam="2">  1       21 0.92512698E-03 0.96095121E+01</pdfrwt>
<totfact> 0.14452564E+09</totfact>
</mgrwt>
</event>
<event>
 4    1  0.3858687E+006  0.5205263E+01  0.7546771E-02  0.2531980E+00
         21   -1    0    0  501  502  0.00000000000E+00  0.00000000000E+00  0.32382213018E+01  0.32382213018E+01  0.00000000000E+00 0.  1.
         21   -1    0    0  502  503 -0.00000000000E+00 -0.00000000000E+00 -0.86607378591E+01  0.86607378591E+01  0.00000000000E+00 0.  1.
          5    1    1    2  501    0 -0.15278242933E+01 -0.16341710440E+01 -0.16159090684E+01  0.54503141368E+01  0.47000000000E+01 0.  1.
         -5    1    1    2    0  503  0.15278242933E+01  0.16341710440E+01 -0.38066074889E+01  0.64486450241E+01  0.47000000000E+01 0.  1.
<mgrwt>
<rscale>  2 0.52052629E+01</rscale>
<asrwt>0</asrwt>
<pdfrwt beam="1">  1       21 0.49818790E-03 0.52052629E+01</pdfrwt>
<pdfrwt beam="2">  1       21 0.13324212E-02 0.52052629E+01</pdfrwt>
<totfact> 0.48567231E+09</totfact>
</mgrwt>
</event>
<event>
 4    1  0.3858687E+006  0.5166199E+01  0.7546771E-02  0.2538489E+00
         21   -1    0    0  501  502  0.00000000000E+00  0.00000000000E+00  0.46200983174E+00  0.46200983174E+00  0.00000000000E+00 0. -1.
         21   -1    0    0  502  503 -0.00000000000E+00 -0.00000000000E+00 -0.12784853056E+03  0.12784853056E+03  0.00000000000E+00 0. -1.
          5    1    1    2  501    0 -0.20114024826E+01 -0.74422753524E+00 -0.16194572570E+02  0.16998640983E+02  0.47000000000E+01 0. -1.
         -5    1    1    2    0  503  0.20114024826E+01  0.74422753524E+00 -0.11119194816E+03  0.11131189941E+03  0.47000000000E+01 0. -1.
<mgrwt>
<rscale>  2 0.51661992E+01</rscale>
<asrwt>0</asrwt>
<pdfrwt beam="1">  1       21 0.71078362E-04 0.51661992E+01</pdfrwt>
<pdfrwt beam="2">  1       21 0.19669025E-01 0.51661992E+01</pdfrwt>
<totfact> 0.12460865E+09</totfact>
</mgrwt>
</event>
<event>
 4    1  0.3858687E+006  0.6633429E+01  0.7546771E-02  0.2339616E+00
         21   -1    0    0  501  502  0.00000000000E+00  0.00000000000E+00  0.60898779653E+01  0.60898779653E+01  0.00000000000E+00 0. -1.
         21   -1    0    0  502  503 -0.00000000000E+00 -0.00000000000E+00 -0.26270297583E+02  0.26270297583E+02  0.00000000000E+00 0. -1.
          5    1    1    2  501    0 -0.46632025780E+01 -0.40855947734E+00  0.36862180231E+01  0.75888459230E+01  0.47000000000E+01 0. -1.
         -5    1    1    2    0  503  0.46632025780E+01  0.40855947734E+00 -0.23866637641E+02  0.24771329625E+02  0.47000000000E+01 0. -1.
<mgrwt>
<rscale>  2 0.66334289E+01</rscale>
<asrwt>0</asrwt>
<pdfrwt beam="1">  1       21 0.93690430E-03 0.66334289E+01</pdfrwt>
<pdfrwt beam="2">  1       21 0.40415842E-02 0.66334289E+01</pdfrwt>
<totfact> 0.50066540E+08</totfact>
</mgrwt>
</event>
<event>
 4    1  0.3858687E+006  0.7801606E+01  0.7546771E-02  0.2227043E+00
         21   -1    0    0  503  502  0.00000000000E+00  0.00000000000E+00  0.90500860358E+00  0.90500860358E+00  0.00000000000E+00 0. -1.
         21   -1    0    0  501  503 -0.00000000000E+00 -0.00000000000E+00 -0.17764667082E+03  0.17764667082E+03  0.00000000000E+00 0. -1.
          5    1    1    2  501    0 -0.13146997936E+01  0.60865930574E+01 -0.15874712503E+03  0.15893871384E+03  0.47000000000E+01 0. -1.
         -5    1    1    2    0  502  0.13146997936E+01 -0.60865930574E+01 -0.17994537191E+02  0.19612965592E+02  0.47000000000E+01 0. -1.
<mgrwt>
<rscale>  2 0.78016056E+01</rscale>
<asrwt>0</asrwt>
<pdfrwt beam="1">  1       21 0.13923213E-03 0.78016056E+01</pdfrwt>
<pdfrwt beam="2">  1       21 0.27330250E-01 0.78016056E+01</pdfrwt>
<totfact> 0.39508206E+08</totfact>
</mgrwt>
</event>
<event>
 4    1  0.3858687E+006  0.1049635E+02  0.7546771E-02  0.2047794E+00
         21   -1    0    0  503  502  0.00000000000E+00  0.00000000000E+00  0.83049647087E+01  0.83049647087E+01  0.00000000000E+00 0.  1.
         21   -1    0    0  501  503 -0.00000000000E+00 -0.00000000000E+00 -0.13629750693E+02  0.13629750693E+02  0.00000000000E+00 0. -1.
          5    1    1    2  501    0 -0.70055897573E+01  0.62453989074E+01 -0.44541796867E+01  0.11402324852E+02  0.47000000000E+01 0.  1.
         -5    1    1    2    0  502  0.70055897573E+01 -0.62453989074E+01 -0.87060629781E+00  0.10532390549E+02  0.47000000000E+01 0. -1.
<mgrwt>
<rscale>  2 0.10496347E+02</rscale>
<asrwt>0</asrwt>
<pdfrwt beam="1">  1       21 0.12776869E-02 0.10496347E+02</pdfrwt>
<pdfrwt beam="2">  1       21 0.20968847E-02 0.10496347E+02</pdfrwt>
<totfact> 0.11368845E+09</totfact>
</mgrwt>
</event>
<event>
 4    1  0.3858687E+006  0.5611150E+01  0.7546771E-02  0.2468959E+00
         21   -1    0    0  503  502  0.00000000000E+00  0.00000000000E+00  0.18347368130E+01  0.18347368130E+01  0.00000000000E+00 0. -1.
         21   -1    0    0  501  503 -0.00000000000E+00 -0.00000000000E+00 -0.21284372043E+02  0.21284372043E+02  0.00000000000E+00 0.  1.
          5    1    1    2  501    0  0.27224539694E+01  0.14082786603E+01 -0.14813005842E+02  0.15840143512E+02  0.47000000000E+01 0. -1.
         -5    1    1    2    0  502 -0.27224539694E+01 -0.14082786603E+01 -0.46366293884E+01  0.72789653445E+01  0.47000000000E+01 0. -1.
<mgrwt>
<rscale>  2 0.56111500E+01</rscale>
<asrwt>0</asrwt>
<pdfrwt beam="1">  1       21 0.28226720E-03 0.56111500E+01</pdfrwt>
<pdfrwt beam="2">  1       21 0.32745187E-02 0.56111500E+01</pdfrwt>
<totfact> 0.31541689E+09</totfact>
</mgrwt>
</event>
<event>
 4    1  0.3858687E+006  0.7909716E+01  0.7546771E-02  0.2218008E+00
         21   -1    0    0  503  502  0.00000000000E+00  0.00000000000E+00  0.21578246335E+01  0.21578246335E+01  0.00000000000E+00 0. -1.
         21   -1    0    0  501  503 -0.00000000000E+00 -0.00000000000E+00 -0.53049467498E+02  0.53049467498E+02  0.00000000000E+00 0.  1.
          5    1    1    2  501    0 -0.53942924450E+01  0.33727172136E+01 -0.44033892394E+02  0.44738655453E+02  0.47000000000E+01 0.  1.
         -5    1    1    2    0  502  0.53942924450E+01 -0.33727172136E+01 -0.68577504701E+01  0.10468636678E+02  0.47000000000E+01 0. -1.
<mgrwt>
<rscale>  2 0.79097163E+01</rscale>
<asrwt>0</asrwt>
<pdfrwt beam="1">  1       21 0.33197302E-03 0.79097163E+01</pdfrwt>
<pdfrwt beam="2">  1       21 0.81614565E-02 0.79097163E+01</pdfrwt>
<totfact> 0.84082277E+08</totfact>
</mgrwt>
</event>
<event>
 4    1  0.3858687E+006  0.7468411E+01  0.7546771E-02  0.2256211E+00
         21   -1    0    0  503  502  0.00000000000E+00  0.00000000000E+00  0.80203980274E+02  0.80203980274E+02  0.00000000000E+00 0.  1.
         21   -1    0    0  501  503 -0.00000000000E+00 -0.00000000000E+00 -0.66159429751E+01  0.66159429751E+01  0.00000000000E+00 0. -1.
          5    1    1    2  501    0  0.43335916109E+01 -0.38609768956E+01 -0.42710714588E+01  0.86034417674E+01  0.47000000000E+01 0. -1.
         -5    1    1    2    0  502 -0.43335916109E+01  0.38609768956E+01  0.77859108758E+02  0.78216481482E+02  0.47000000000E+01 0.  1.
<mgrwt>
<rscale>  2 0.74684107E+01</rscale>
<asrwt>0</asrwt>
<pdfrwt beam="1">  1       21 0.12339073E-01 0.74684107E+01</pdfrwt>
<pdfrwt beam="2">  1       21 0.10178374E-02 0.74684107E+01</pdfrwt>
<totfact> 0.87334418E+07</totfact>
</mgrwt>
</event>
<event>
 4    1  0.3858687E+006  0.6211694E+01  0.7546771E-02  0.2388660E+00
         21   -1    0    0  501  502  0.00000000000E+00  0.00000000000E+00  0.11104543088E+03  0.11104543088E+03  0.00000000000E+00 0. -1.
         21   -1    0    0  502  503 -0.00000000000E+00 -0.00000000000E+00 -0.98362517129E+00  0.98362517129E+00  0.00000000000E+00 0. -1.
          5    1    1    2  501    0 -0.39159165194E+01 -0.10773770748E+01  0.10007800082E+03  0.10027059086E+03  0.47000000000E+01 0. -1.
         -5    1    1    2    0  503  0.39159165194E+01  0.10773770748E+01  0.99838048830E+01  0.11758465184E+02  0.47000000000E+01 0. -1.
<mgrwt>
<rscale>  2 0.62116941E+01</rscale>
<asrwt>0</asrwt>
<pdfrwt beam="1">  1       21 0.17083902E-01 0.62116941E+01</pdfrwt>
<pdfrwt beam="2">  1       21 0.15132704E-03 0.62116941E+01</pdfrwt>
<totfact> 0.65741377E+08</totfact>
</mgrwt>
</event>
<event>
 4    1  0.3858687E+006  0.5106035E+01  0.7546771E-02  0.2548680E+00
         21   -1    0    0  501  502  0.00000000000E+00  0.00000000000E+00  0.36485084269E+01  0.36485084269E+01  0.00000000000E+00 0. -1.
         21   -1    0    0  502  503 -0.00000000000E+00 -0.00000000000E+00 -0.72187383239E+01  0.72187383239E+01  0.00000000000E+00 0.  1.
          5    1    1    2  501    0  0.16824957272E+00  0.19882862251E+01 -0.12390142955E+01  0.52542122584E+01  0.47000000000E+01 0. -1.
         -5    1    1    2    0  503 -0.16824957272E+00 -0.19882862251E+01 -0.23312156015E+01  0.56130344924E+01  0.47000000000E+01 0. -1.
<mgrwt>
<rscale>  2 0.51060347E+01</rscale>
<asrwt>0</asrwt>
<pdfrwt beam="1">  1       21 0.56130899E-03 0.51060347E+01</pdfrwt>
<pdfrwt beam="2">  1       21 0.11105751E-02 0.51060347E+01</pdfrwt>
<totfact> 0.52148598E+09</totfact>
</mgrwt>
</event>
<event>
 4    1  0.3858687E+006  0.5196001E+01  0.7546771E-02  0.2533515E+00
         21   -1    0    0  501  502  0.00000000000E+00  0.00000000000E+00  0.69706075568E+02  0.69706075568E+02  0.00000000000E+00 0.  1.
         21   -1    0    0  502  503 -0.00000000000E+00 -0.00000000000E+00 -0.61233006400E+00  0.61233006400E+00  0.00000000000E+00 0.  1.
          5    1    1    2  501    0 -0.21888376048E+01  0.34266083181E+00  0.55860089861E+02  0.56101230519E+02  0.47000000000E+01 0.  1.
         -5    1    1    2    0  503  0.21888376048E+01 -0.34266083181E+00  0.13233655643E+02  0.14217175113E+02  0.47000000000E+01 0.  1.
<mgrwt>
<rscale>  2 0.51960010E+01</rscale>
<asrwt>0</asrwt>
<pdfrwt beam="1">  1       21 0.10724005E-01 0.51960010E+01</pdfrwt>
<pdfrwt beam="2">  1       21 0.94204680E-04 0.51960010E+01</pdfrwt>
<totfact> 0.22140426E+09</totfact>
</mgrwt>
</event>
<event>
 4    1  0.3858687E+006  0.5424795E+01  0.7546771E-02  0.2496897E+00
         21   -1    0    0  503  502  0.00000000000E+00  0.00000000000E+00  0.62135468639E+02  0.62135468639E+02  0.00000000000E+00 0.  1.
         21   -1    0    0  501  503 -0.00000000000E+00 -0.00000000000E+00 -0.50381513014E+00  0.50381513014E+00  0.00000000000E+00 0.  1.
          5    1    1    2  501    0 -0.20638612493E+00 -0.27010755393E+01  0.38483654750E+02  0.38864123395E+02  0.47000000000E+01 0.  1.
         -5    1    1    2    0  502  0.20638612493E+00  0.27010755393E+01  0.23147998759E+02  0.23775160375E+02  0.47000000000E+01 0.  1.
<mgrwt>
<rscale>  2 0.54247953E+01</rscale>
<asrwt>0</asrwt>
<pdfrwt beam="1">  1       21 0.95592968E-02 0.54247953E+01</pdfrwt>
<pdfrwt beam="2">  1       21 0.77510069E-04 0.54247953E+01</pdfrwt>
<totfact> 0.35627213E+09</totfact>
</mgrwt>
</event>
<event>
 4    1  0.3858687E+006  0.6233259E+01  0.7546771E-02  0.2386019E+00
         21   -1    0    0  501  502  0.00000000000E+00  0.00000000000E+00  0.65419330549E+00  0.65419330549E+00  0.00000000000E+00 0. -1.
         21   -1    0    0  502  503 -0.00000000000E+00 -0.00000000000E+00 -0.19834940074E+03  0.19834940074E+03  0.00000000000E+00 0. -1.
          5    1    1    2  501    0  0.17816897837E+01 -0.36863389667E+01 -0.15564458162E+02  0.16766212194E+02  0.47000000000E+01 0. -1.
         -5    1    1    2    0  503 -0.17816897837E+01  0.36863389667E+01 -0.18213074928E+03  0.18223738185E+03  0.47000000000E+01 0. -1.
<mgrwt>
<rscale>  2 0.62332587E+01</rscale>
<asrwt>0</asrwt>
<pdfrwt beam="1">  1       21 0.10064524E-03 0.62332587E+01</pdfrwt>
<pdfrwt beam="2">  1       21 0.30515257E-01 0.62332587E+01</pdfrwt>
<totfact> 0.44124356E+08</totfact>
</mgrwt>
</event>
<event>
 4    1  0.3858687E+006  0.6030206E+01  0.7546771E-02  0.2411509E+00
         21   -1    0    0  501  502  0.00000000000E+00  0.00000000000E+00  0.52707133916E+01  0.52707133916E+01  0.00000000000E+00 0. -1.
         21   -1    0    0  502  503 -0.00000000000E+00 -0.00000000000E+00 -0.23398930973E+02  0.23398930973E+02  0.00000000000E+00 0. -1.
          5    1    1    2  501    0  0.13277618835E+01 -0.35370092909E+01  0.29733144634E+01  0.67233909035E+01  0.47000000000E+01 0. -1.
         -5    1    1    2    0  503 -0.13277618835E+01  0.35370092909E+01 -0.21101532045E+02  0.21946253461E+02  0.47000000000E+01 0. -1.
<mgrwt>
<rscale>  2 0.60302062E+01</rscale>
<asrwt>0</asrwt>
<pdfrwt beam="1">  1       21 0.81087900E-03 0.60302062E+01</pdfrwt>
<pdfrwt beam="2">  1       21 0.35998355E-02 0.60302062E+01</pdfrwt>
<totfact> 0.67716204E+08</totfact>
</mgrwt>
</event>
<event>
 4    1  0.3858687E+006  0.7362887E+01  0.7546771E-02  0.2265893E+00
         21   -1    0    0  501  502  0.00000000000E+00  0.00000000000E+00  0.36428722718E+02  0.36428722718E+02  0.00000000000E+00 0. -1.
         21   -1    0    0  502  503 -0.00000000000E+00 -0.00000000000E+00 -0.13957504285E+02  0.13957504285E+02  0.00000000000E+00 0.  1.
          5    1    1    2  501    0 -0.41920402581E+01  0.38143015635E+01  0.35047813995E+02  0.35812865898E+02  0.47000000000E+01 0. -1.
         -5    1    1    2    0  503  0.41920402581E+01 -0.38143015635E+01 -0.12576595563E+02  0.14573361105E+02  0.47000000000E+01 0.  1.
<mgrwt>
<rscale>  2 0.73628865E+01</rscale>
<asrwt>0</asrwt>
<pdfrwt beam="1">  1       21 0.56044188E-02 0.73628865E+01</pdfrwt>
<pdfrwt beam="2">  1       21 0.21473084E-02 0.73628865E+01</pdfrwt>
<totfact> 0.99680326E+07</totfact>
</mgrwt>
</event>
<event>
 4    1  0.3858687E+006  0.6748542E+01  0.7546771E-02  0.2327116E+00
         21   -1    0    0  503  502  0.00000000000E+00  0.00000000000E+00  0.24378213093E+01  0.24378213093E+01  0.00000000000E+00 0. -1.
         21   -1    0    0  501  503 -0.00000000000E+00 -0.00000000000E+00 -0.27447429579E+02  0.27447429579E+02  0.00000000000E+00 0.  1.
          5    1    1    2  501    0 -0.40643465761E+01  0.26332314037E+01 -0.20949195115E+02  0.22009352482E+02  0.47000000000E+01 0.  1.
         -5    1    1    2    0  502  0.40643465761E+01 -0.26332314037E+01 -0.40604131542E+01  0.78758984058E+01  0.47000000000E+01 0. -1.
<mgrwt>
<rscale>  2 0.67485421E+01</rscale>
<asrwt>0</asrwt>
<pdfrwt beam="1">  1       21 0.37504942E-03 0.67485421E+01</pdfrwt>
<pdfrwt beam="2">  1       21 0.42226816E-02 0.67485421E+01</pdfrwt>
<totfact> 0.17170752E+09</totfact>
</mgrwt>
</event>
<event>
 4    1  0.3858687E+006  0.5735870E+01  0.7546771E-02  0.2451123E+00
         21   -1    0    0  501  502  0.00000000000E+00  0.00000000000E+00  0.47642998768E+02  0.47642998768E+02  0.00000000000E+00 0. -1.
         21   -1    0    0  502  503 -0.00000000000E+00 -0.00000000000E+00 -0.13724487630E+01  0.13724487630E+01  0.00000000000E+00 0.  1.
          5    1    1    2  501    0 -0.14447597352E+01  0.29534507755E+01  0.40410060218E+02  0.40815109567E+02  0.47000000000E+01 0. -1.
         -5    1    1    2    0  503  0.14447597352E+01 -0.29534507755E+01  0.58604897873E+01  0.82003379640E+01  0.47000000000E+01 0.  1.
<mgrwt>
<rscale>  2 0.57358698E+01</rscale>
<asrwt>0</asrwt>
<pdfrwt beam="1">  1       21 0.73296908E-02 0.57358698E+01</pdfrwt>
<pdfrwt beam="2">  1       21 0.21114600E-03 0.57358698E+01</pdfrwt>
<totfact> 0.14541506E+09</totfact>
</mgrwt>
</event>
<event>
 4    1  0.3858687E+006  0.6946787E+01  0.7546771E-02  0.2306392E+00
         21   -1    0    0  501  502  0.00000000000E+00  0.00000000000E+00  0.38052373571E+01  0.38052373571E+01  0.00000000000E+00 0. -1.
         21   -1    0    0  502  503 -0.00000000000E+00 -0.00000000000E+00 -0.15805318078E+02  0.15805318078E+02  0.00000000000E+00 0.  1.
          5    1    1    2  501    0  0.24126155887E+01  0.45107798556E+01 -0.16412145340E+01  0.71380273207E+01  0.47000000000E+01 0. -1.
         -5    1    1    2    0  503 -0.24126155887E+01 -0.45107798556E+01 -0.10358866187E+02  0.12472528115E+02  0.47000000000E+01 0.  1.
<mgrwt>
<rscale>  2 0.69467869E+01</rscale>
<asrwt>0</asrwt>
<pdfrwt beam="1">  1       21 0.58542114E-03 0.69467869E+01</pdfrwt>
<pdfrwt beam="2">  1       21 0.24315874E-02 0.69467869E+01</pdfrwt>
<totfact> 0.21218013E+09</totfact>
</mgrwt>
</event>
<event>
 4    1  0.3858687E+006  0.9555306E+01  0.7546771E-02  0.2101216E+00
         21   -1    0    0  503  502  0.00000000000E+00  0.00000000000E+00  0.19690041615E+02  0.19690041615E+02  0.00000000000E+00 0. -1.
         21   -1    0    0  501  503 -0.00000000000E+00 -0.00000000000E+00 -0.91745436544E+01  0.91745436544E+01  0.00000000000E+00 0.  1.
          5    1    1    2  501    0  0.63739096664E+01  0.53466945965E+01 -0.48918928505E+01  0.10734732563E+02  0.47000000000E+01 0.  1.
         -5    1    1    2    0  502 -0.63739096664E+01 -0.53466945965E+01  0.15407390811E+02  0.18129852706E+02  0.47000000000E+01 0. -1.
<mgrwt>
<rscale>  2 0.95553057E+01</rscale>
<asrwt>0</asrwt>
<pdfrwt beam="1">  1       21 0.30292372E-02 0.95553057E+01</pdfrwt>
<pdfrwt beam="2">  1       21 0.14114683E-02 0.95553057E+01</pdfrwt>
<totfact> 0.53851222E+08</totfact>
</mgrwt>
</event>
<event>
 4    1  0.3858687E+006  0.9497845E+01  0.7546771E-02  0.2104745E+00
         21   -1    0    0  501  502  0.00000000000E+00  0.00000000000E+00  0.77799930470E+03  0.77799930470E+03  0.00000000000E+00 0. -1.
         21   -1    0    0  502  503 -0.00000000000E+00 -0.00000000000E+00 -0.12761321793E+00  0.12761321793E+00  0.00000000000E+00 0. -1.
          5    1    1    2  501    0  0.22514684600E+01  0.79404000174E+01  0.50655573683E+03  0.50664477060E+03  0.47000000000E+01 0. -1.
         -5    1    1    2    0  503 -0.22514684600E+01 -0.79404000174E+01  0.27131595465E+03  0.27148214731E+03  0.47000000000E+01 0. -1.
<mgrwt>
<rscale>  2 0.94978452E+01</rscale>
<asrwt>0</asrwt>
<pdfrwt beam="1">  1       21 0.11968840E+00 0.94978452E+01</pdfrwt>
<pdfrwt beam="2">  1       21 0.19633426E-04 0.94978452E+01</pdfrwt>
<totfact> 0.38192601E+08</totfact>
</mgrwt>
</event>
<event>
 4    1  0.3858687E+006  0.4926723E+01  0.7546771E-02  0.2580319E+00
         21   -1    0    0  503  502  0.00000000000E+00  0.00000000000E+00  0.11204623989E+03  0.11204623989E+03  0.00000000000E+00 0.  1.
         21   -1    0    0  501  503 -0.00000000000E+00 -0.00000000000E+00 -0.24992192434E+00  0.24992192434E+00  0.00000000000E+00 0.  1.
          5    1    1    2  501    0 -0.97643088938E+00 -0.11086848384E+01  0.35405378677E+02  0.35746516454E+02  0.47000000000E+01 0.  1.
         -5    1    1    2    0  502  0.97643088938E+00  0.11086848384E+01  0.76390939288E+02  0.76549645360E+02  0.47000000000E+01 0.  1.
<mgrwt>
<rscale>  2 0.49267230E+01</rscale>
<asrwt>0</asrwt>
<pdfrwt beam="1">  1       21 0.17237843E-01 0.49267230E+01</pdfrwt>
<pdfrwt beam="2">  1       21 0.38449616E-04 0.49267230E+01</pdfrwt>
<totfact> 0.33151044E+09</totfact>
</mgrwt>
</event>
<event>
 4    1  0.3858687E+006  0.1109247E+02  0.7546771E-02  0.2017672E+00
         21   -1    0    0  501  502  0.00000000000E+00  0.00000000000E+00  0.27807751310E+03  0.27807751310E+03  0.00000000000E+00 0. -1.
         21   -1    0    0  502  503 -0.00000000000E+00 -0.00000000000E+00 -0.45997566645E+00  0.45997566645E+00  0.00000000000E+00 0. -1.
          5    1    1    2  501    0  0.33500030022E+00  0.10041943693E+02  0.16597258194E+03  0.16634284119E+03  0.47000000000E+01 0. -1.
         -5    1    1    2    0  503 -0.33500030022E+00 -0.10041943693E+02  0.11164495549E+03  0.11219464758E+03  0.47000000000E+01 0. -1.
<mgrwt>
<rscale>  2 0.11092469E+02</rscale>
<asrwt>0</asrwt>
<pdfrwt beam="1">  1       21 0.42781022E-01 0.11092469E+02</pdfrwt>
<pdfrwt beam="2">  1       21 0.70765709E-04 0.11092469E+02</pdfrwt>
<totfact> 0.54750088E+08</totfact>
</mgrwt>
</event>
<event>
 4    1  0.3858687E+006  0.5109033E+01  0.7546771E-02  0.2548168E+00
         21   -1    0    0  501  502  0.00000000000E+00  0.00000000000E+00  0.37154131443E+03  0.37154131443E+03  0.00000000000E+00 0.  1.
         21   -1    0    0  502  503 -0.00000000000E+00 -0.00000000000E+00 -0.31445232872E+00  0.31445232872E+00  0.00000000000E+00 0.  1.
          5    1    1    2  501    0  0.91716570140E+00 -0.17807371144E+01  0.34946046018E+03  0.34949780463E+03  0.47000000000E+01 0.  1.
         -5    1    1    2    0  503 -0.91716570140E+00  0.17807371144E+01  0.21766401924E+02  0.22357962124E+02  0.47000000000E+01 0.  1.
<mgrwt>
<rscale>  2 0.51090329E+01</rscale>
<asrwt>0</asrwt>
<pdfrwt beam="1">  1       21 0.57159851E-01 0.51090329E+01</pdfrwt>
<pdfrwt beam="2">  1       21 0.48377579E-04 0.51090329E+01</pdfrwt>
<totfact> 0.33854631E+08</totfact>
</mgrwt>
</event>
<event>
 4    1  0.3858687E+006  0.5037430E+01  0.7546771E-02  0.2560556E+00
         21   -1    0    0  501  502  0.00000000000E+00  0.00000000000E+00  0.14226760612E+00  0.14226760612E+00  0.00000000000E+00 0. -1.
         21   -1    0    0  502  503 -0.00000000000E+00 -0.00000000000E+00 -0.48287180215E+03  0.48287180215E+03  0.00000000000E+00 0. -1.
          5    1    1    2  501    0  0.13663041502E+01  0.11911827414E+01 -0.49581085443E+02  0.49836329490E+02  0.47000000000E+01 0. -1.
         -5    1    1    2    0  503 -0.13663041502E+01 -0.11911827414E+01 -0.43314844910E+03  0.43317774026E+03  0.47000000000E+01 0. -1.
<mgrwt>
<rscale>  2 0.50374302E+01</rscale>
<asrwt>0</asrwt>
<pdfrwt beam="1">  1       21 0.21887874E-04 0.50374302E+01</pdfrwt>
<pdfrwt beam="2">  1       21 0.74286104E-01 0.50374302E+01</pdfrwt>
<totfact> 0.58918953E+08</totfact>
</mgrwt>
</event>
<event>
 4    1  0.3858687E+006  0.4722957E+01  0.7546771E-02  0.2618780E+00
         21   -1    0    0  503  502  0.00000000000E+00  0.00000000000E+00  0.87488818430E+02  0.87488818430E+02  0.00000000000E+00 0. -1.
         21   -1    0    0  501  503 -0.00000000000E+00 -0.00000000000E+00 -0.50262225066E+00  0.50262225066E+00  0.00000000000E+00 0. -1.
          5    1    1    2  501    0 -0.11166227746E+00 -0.45150456202E+00  0.12610223028E+02  0.13465661872E+02  0.47000000000E+01 0. -1.
         -5    1    1    2    0  502  0.11166227746E+00  0.45150456202E+00  0.74375973152E+02  0.74525778809E+02  0.47000000000E+01 0. -1.
<mgrwt>
<rscale>  2 0.47229572E+01</rscale>
<asrwt>0</asrwt>
<pdfrwt beam="1">  1       21 0.13459806E-01 0.47229572E+01</pdfrwt>
<pdfrwt beam="2">  1       21 0.77326570E-04 0.47229572E+01</pdfrwt>
<totfact> 0.18527131E+09</totfact>
</mgrwt>
</event>
<event>
 4    1  0.3858687E+006  0.5054420E+01  0.7546771E-02  0.2557589E+00
         21   -1    0    0  503  502  0.00000000000E+00  0.00000000000E+00  0.78045449601E-01  0.78045449601E-01  0.00000000000E+00 0. -1.
         21   -1    0    0  501  503 -0.00000000000E+00 -0.00000000000E+00 -0.34604897769E+03  0.34604897769E+03  0.00000000000E+00 0. -1.
          5    1    1    2  501    0  0.18583285394E+01 -0.61468654843E-01 -0.21322904250E+03  0.21328893954E+03  0.47000000000E+01 0. -1.
         -5    1    1    2    0  502 -0.18583285394E+01  0.61468654843E-01 -0.13274188974E+03  0.13283808360E+03  0.47000000000E+01 0. -1.
<mgrwt>
<rscale>  2 0.50544202E+01</rscale>
<asrwt>0</asrwt>
<pdfrwt beam="1">  1       21 0.12007105E-04 0.50544202E+01</pdfrwt>
<pdfrwt beam="2">  1       21 0.53237805E-01 0.50544202E+01</pdfrwt>
<totfact> 0.24172247E+09</totfact>
</mgrwt>
</event>
<event>
 4    1  0.3858687E+006  0.5058683E+01  0.7546771E-02  0.2556848E+00
         21   -1    0    0  501  502  0.00000000000E+00  0.00000000000E+00  0.25868165530E+01  0.25868165530E+01  0.00000000000E+00 0.  1.
         21   -1    0    0  502  503 -0.00000000000E+00 -0.00000000000E+00 -0.10429277479E+02  0.10429277479E+02  0.00000000000E+00 0.  1.
          5    1    1    2  501    0  0.15195651192E+01  0.10914172054E+01 -0.24448731458E+01  0.56185117573E+01  0.47000000000E+01 0.  1.
         -5    1    1    2    0  503 -0.15195651192E+01 -0.10914172054E+01 -0.53975877807E+01  0.73975822752E+01  0.47000000000E+01 0.  1.
<mgrwt>
<rscale>  2 0.50586826E+01</rscale>
<asrwt>0</asrwt>
<pdfrwt beam="1">  1       21 0.39797178E-03 0.50586826E+01</pdfrwt>
<pdfrwt beam="2">  1       21 0.16045042E-02 0.50586826E+01</pdfrwt>
<totfact> 0.49370958E+09</totfact>
</mgrwt>
</event>
<event>
 4    1  0.3858687E+006  0.1510742E+02  0.7546771E-02  0.1864808E+00
         21   -1    0    0  503  502  0.00000000000E+00  0.00000000000E+00  0.45990625825E+01  0.45990625825E+01  0.00000000000E+00 0. -1.
         21   -1    0    0  501  503 -0.00000000000E+00 -0.00000000000E+00 -0.51373806173E+02  0.51373806173E+02  0.00000000000E+00 0.  1.
          5    1    1    2  501    0 -0.10978455870E+02  0.92529783232E+01 -0.28549107208E+02  0.32299932252E+02  0.47000000000E+01 0. -1.
         -5    1    1    2    0  502  0.10978455870E+02 -0.92529783232E+01 -0.18225636383E+02  0.23672936503E+02  0.47000000000E+01 0.  1.
<mgrwt>
<rscale>  2 0.15107419E+02</rscale>
<asrwt>0</asrwt>
<pdfrwt beam="1">  1       21 0.70754812E-03 0.15107419E+02</pdfrwt>
<pdfrwt beam="2">  1       21 0.79036622E-02 0.15107419E+02</pdfrwt>
<totfact> 0.42032544E+08</totfact>
</mgrwt>
</event>
<event>
 4    1  0.3858687E+006  0.7990051E+01  0.7546771E-02  0.2211423E+00
         21   -1    0    0  503  502  0.00000000000E+00  0.00000000000E+00  0.11565039605E+01  0.11565039605E+01  0.00000000000E+00 0. -1.
         21   -1    0    0  501  503 -0.00000000000E+00 -0.00000000000E+00 -0.19859096601E+03  0.19859096601E+03  0.00000000000E+00 0. -1.
          5    1    1    2  501    0 -0.56209783806E+01  0.31867727337E+01 -0.18358249275E+03  0.18375628578E+03  0.47000000000E+01 0. -1.
         -5    1    1    2    0  502  0.56209783806E+01 -0.31867727337E+01 -0.13851969296E+02  0.15991184190E+02  0.47000000000E+01 0. -1.
<mgrwt>
<rscale>  2 0.79900512E+01</rscale>
<asrwt>0</asrwt>
<pdfrwt beam="1">  1       21 0.17792391E-03 0.79900512E+01</pdfrwt>
<pdfrwt beam="2">  1       21 0.30552419E-01 0.79900512E+01</pdfrwt>
<totfact> 0.23627056E+08</totfact>
</mgrwt>
</event>
<event>
 4    1  0.3858687E+006  0.7973207E+01  0.7546771E-02  0.2212795E+00
         21   -1    0    0  503  502  0.00000000000E+00  0.00000000000E+00  0.27927188435E+01  0.27927188435E+01  0.00000000000E+00 0.  1.
         21   -1    0    0  501  503 -0.00000000000E+00 -0.00000000000E+00 -0.42706700019E+02  0.42706700019E+02  0.00000000000E+00 0.  1.
          5    1    1    2  501    0  0.64075379082E+01  0.65229750685E+00 -0.35503230030E+02  0.36387516769E+02  0.47000000000E+01 0.  1.
         -5    1    1    2    0  502 -0.64075379082E+01 -0.65229750685E+00 -0.44107511452E+01  0.91119020928E+01  0.47000000000E+01 0.  1.
<mgrwt>
<rscale>  2 0.79732073E+01</rscale>
<asrwt>0</asrwt>
<pdfrwt beam="1">  1       21 0.42964905E-03 0.79732073E+01</pdfrwt>
<pdfrwt beam="2">  1       21 0.65702617E-02 0.79732073E+01</pdfrwt>
<totfact> 0.82182531E+08</totfact>
</mgrwt>
</event>
<event>
 4    1  0.3858687E+006  0.8333790E+01  0.7546771E-02  0.2184405E+00
         21   -1    0    0  501  502  0.00000000000E+00  0.00000000000E+00  0.66889992016E+01  0.66889992016E+01  0.00000000000E+00 0.  1.
         21   -1    0    0  502  503 -0.00000000000E+00 -0.00000000000E+00 -0.10820146723E+02  0.10820146723E+02  0.00000000000E+00 0. -1.
          5    1    1    2  501    0 -0.34429043856E+01  0.59588975866E+01 -0.30595247776E+00  0.83394039340E+01  0.47000000000E+01 0.  1.
         -5    1    1    2    0  503  0.34429043856E+01 -0.59588975866E+01 -0.38251950441E+01  0.91697419910E+01  0.47000000000E+01 0. -1.
<mgrwt>
<rscale>  2 0.83337897E+01</rscale>
<asrwt>0</asrwt>
<pdfrwt beam="1">  1       21 0.10290768E-02 0.83337897E+01</pdfrwt>
<pdfrwt beam="2">  1       21 0.16646380E-02 0.83337897E+01</pdfrwt>
<totfact> 0.18895798E+09</totfact>
</mgrwt>
</event>
<event>
 4    1  0.3858687E+006  0.8442895E+01  0.7546771E-02  0.2176200E+00
         21   -1    0    0  503  502  0.00000000000E+00  0.00000000000E+00  0.81727221944E+01  0.81727221944E+01  0.00000000000E+00 0.  1.
         21   -1    0    0  501  503 -0.00000000000E+00 -0.00000000000E+00 -0.98946011794E+01  0.98946011794E+01  0.00000000000E+00 0.  1.
          5    1    1    2  501    0  0.39781761759E+01 -0.57763828097E+01 -0.39707921589E+01  0.93300415015E+01  0.47000000000E+01 0.  1.
         -5    1    1    2    0  502 -0.39781761759E+01  0.57763828097E+01  0.22489131738E+01  0.87372818722E+01  0.47000000000E+01 0.  1.
<mgrwt>
<rscale>  2 0.84428955E+01</rscale>
<asrwt>0</asrwt>
<pdfrwt beam="1">  1       21 0.12573419E-02 0.84428955E+01</pdfrwt>
<pdfrwt beam="2">  1       21 0.15222463E-02 0.84428955E+01</pdfrwt>
<totfact> 0.16262834E+09</totfact>
</mgrwt>
</event>
<event>
 4    1  0.3858687E+006  0.6415282E+01  0.7546771E-02  0.2364317E+00
         21   -1    0    0  501  502  0.00000000000E+00  0.00000000000E+00  0.30750949288E+02  0.30750949288E+02  0.00000000000E+00 0. -1.
         21   -1    0    0  502  503 -0.00000000000E+00 -0.00000000000E+00 -0.18089712279E+01  0.18089712279E+01  0.00000000000E+00 0. -1.
          5    1    1    2  501    0  0.34976707400E+01 -0.26138379333E+01  0.22774629177E+02  0.23660929473E+02  0.47000000000E+01 0. -1.
         -5    1    1    2    0  503 -0.34976707400E+01  0.26138379333E+01  0.61673488832E+01  0.88989910436E+01  0.47000000000E+01 0. -1.
<mgrwt>
<rscale>  2 0.64152825E+01</rscale>
<asrwt>0</asrwt>
<pdfrwt beam="1">  1       21 0.47309149E-02 0.64152825E+01</pdfrwt>
<pdfrwt beam="2">  1       21 0.27830329E-03 0.64152825E+01</pdfrwt>
<totfact> 0.21049009E+09</totfact>
</mgrwt>
</event>
<event>
 4    1  0.3858687E+006  0.7508829E+01  0.7546771E-02  0.2252561E+00
         21   -1    0    0  501  502  0.00000000000E+00  0.00000000000E+00  0.76201448358E+03  0.76201448358E+03  0.00000000000E+00 0.  1.
         21   -1    0    0  502  503 -0.00000000000E+00 -0.00000000000E+00 -0.74387343143E-01  0.74387343143E-01  0.00000000000E+00 0. -1.
          5    1    1    2  501    0  0.36901063241E+00 -0.58443425255E+01  0.35316973088E+03  0.35324954539E+03  0.47000000000E+01 0.  1.
         -5    1    1    2    0  503 -0.36901063241E+00  0.58443425255E+01  0.40877036536E+03  0.40883932554E+03  0.47000000000E+01 0.  1.
<mgrwt>
<rscale>  2 0.75088287E+01</rscale>
<asrwt>0</asrwt>
<pdfrwt beam="1">  1       21 0.11722675E+00 0.75088287E+01</pdfrwt>
<pdfrwt beam="2">  1       21 0.11444817E-04 0.75088287E+01</pdfrwt>
<totfact> 0.73258552E+08</totfact>
</mgrwt>
</event>
<event>
 4    1  0.3858687E+006  0.4780730E+01  0.7546771E-02  0.2607586E+00
         21   -1    0    0  503  502  0.00000000000E+00  0.00000000000E+00  0.65499558504E+00  0.65499558504E+00  0.00000000000E+00 0.  1.
         21   -1    0    0  501  503 -0.00000000000E+00 -0.00000000000E+00 -0.49837124359E+02  0.49837124359E+02  0.00000000000E+00 0.  1.
          5    1    1    2  501    0 -0.58071028575E+00  0.65433903547E+00 -0.38415217515E+02  0.38711552807E+02  0.47000000000E+01 0.  1.
         -5    1    1    2    0  502  0.58071028575E+00 -0.65433903547E+00 -0.10766911258E+02  0.11780567136E+02  0.47000000000E+01 0.  1.
<mgrwt>
<rscale>  2 0.47807305E+01</rscale>
<asrwt>0</asrwt>
<pdfrwt beam="1">  1       21 0.10076853E-03 0.47807305E+01</pdfrwt>
<pdfrwt beam="2">  1       21 0.76672516E-02 0.47807305E+01</pdfrwt>
<totfact> 0.30877759E+09</totfact>
</mgrwt>
</event>
<event>
 4    1  0.3858687E+006  0.5983710E+01  0.7546771E-02  0.2417548E+00
         21   -1    0    0  503  502  0.00000000000E+00  0.00000000000E+00  0.99379354044E+00  0.99379354044E+00  0.00000000000E+00 0. -1.
         21   -1    0    0  501  503 -0.00000000000E+00 -0.00000000000E+00 -0.14980495278E+03  0.14980495278E+03  0.00000000000E+00 0. -1.
          5    1    1    2  501    0 -0.25521908815E+01  0.26834889557E+01 -0.14011551420E+03  0.14024322483E+03  0.47000000000E+01 0. -1.
         -5    1    1    2    0  502  0.25521908815E+01 -0.26834889557E+01 -0.86956450384E+01  0.10555521489E+02  0.47000000000E+01 0. -1.
<mgrwt>
<rscale>  2 0.59837105E+01</rscale>
<asrwt>0</asrwt>
<pdfrwt beam="1">  1       21 0.15289128E-03 0.59837105E+01</pdfrwt>
<pdfrwt beam="2">  1       21 0.23046921E-01 0.59837105E+01</pdfrwt>
<totfact> 0.38886203E+08</totfact>
</mgrwt>
</event>
<event>
 4    1  0.3858687E+006  0.5323408E+01  0.7546771E-02  0.2512792E+00
         21   -1    0    0  503  502  0.00000000000E+00  0.00000000000E+00  0.33847032464E+03  0.33847032464E+03  0.00000000000E+00 0.  1.
         21   -1    0    0  501  503 -0.00000000000E+00 -0.00000000000E+00 -0.98256259701E-01  0.98256259701E-01  0.00000000000E+00 0.  1.
          5    1    1    2  501    0 -0.13384796292E+01  0.21111960006E+01  0.10408660039E+03  0.10422264177E+03  0.47000000000E+01 0.  1.
         -5    1    1    2    0  502  0.13384796292E+01 -0.21111960006E+01  0.23428546799E+03  0.23434593913E+03  0.47000000000E+01 0.  1.
<mgrwt>
<rscale>  2 0.53234083E+01</rscale>
<asrwt>0</asrwt>
<pdfrwt beam="1">  1       21 0.52071424E-01 0.53234083E+01</pdfrwt>
<pdfrwt beam="2">  1       21 0.15116619E-04 0.53234083E+01</pdfrwt>
<totfact> 0.19369893E+09</totfact>
</mgrwt>
</event>
<event>
 4    1  0.3858687E+006  0.1555754E+02  0.7546771E-02  0.1851517E+00
         21   -1    0    0  501  502  0.00000000000E+00  0.00000000000E+00  0.95542344983E+01  0.95542344983E+01  0.00000000000E+00 0.  1.
         21   -1    0    0  502  503 -0.00000000000E+00 -0.00000000000E+00 -0.27320850867E+02  0.27320850867E+02  0.00000000000E+00 0. -1.
          5    1    1    2  501    0  0.12397252002E+02  0.81397228183E+01 -0.39099093211E+01  0.16041332104E+02  0.47000000000E+01 0.  1.
         -5    1    1    2    0  503 -0.12397252002E+02 -0.81397228183E+01 -0.13856707048E+02  0.20833753262E+02  0.47000000000E+01 0.  1.
<mgrwt>
<rscale>  2 0.15557537E+02</rscale>
<asrwt>0</asrwt>
<pdfrwt beam="1">  1       21 0.14698822E-02 0.15557537E+02</pdfrwt>
<pdfrwt beam="2">  1       21 0.42032078E-02 0.15557537E+02</pdfrwt>
<totfact> 0.39004056E+08</totfact>
</mgrwt>
</event>
<event>
 4    1  0.3858687E+006  0.1126215E+02  0.7546771E-02  0.2009554E+00
         21   -1    0    0  501  502  0.00000000000E+00  0.00000000000E+00  0.26293061944E+03  0.26293061944E+03  0.00000000000E+00 0.  1.
         21   -1    0    0  502  503 -0.00000000000E+00 -0.00000000000E+00 -0.79028225422E+00  0.79028225422E+00  0.00000000000E+00 0. -1.
          5    1    1    2  501    0  0.10230549568E+02 -0.28624580458E+00  0.21337402698E+03  0.21367103564E+03  0.47000000000E+01 0.  1.
         -5    1    1    2    0  503 -0.10230549568E+02  0.28624580458E+00  0.48766310209E+02  0.50049866059E+02  0.47000000000E+01 0. -1.
<mgrwt>
<rscale>  2 0.11262153E+02</rscale>
<asrwt>0</asrwt>
<pdfrwt beam="1">  1       21 0.40450795E-01 0.11262153E+02</pdfrwt>
<pdfrwt beam="2">  1       21 0.12158209E-03 0.11262153E+02</pdfrwt>
<totfact> 0.28869416E+08</totfact>
</mgrwt>
</event>
<event>
 4    1  0.3858687E+006  0.8882693E+01  0.7546771E-02  0.2144773E+00
         21   -1    0    0  503  502  0.00000000000E+00  0.00000000000E+00  0.41440489115E+00  0.41440489115E+00  0.00000000000E+00 0.  1.
         21   -1    0    0  501  503 -0.00000000000E+00 -0.00000000000E+00 -0.28107598479E+03  0.28107598479E+03  0.00000000000E+00 0.  1.
          5    1    1    2  501    0  0.48117421228E+01 -0.58016695970E+01 -0.22027195963E+03  0.22045098873E+03  0.47000000000E+01 0.  1.
         -5    1    1    2    0  502 -0.48117421228E+01  0.58016695970E+01 -0.60389620263E+02  0.61039400946E+02  0.47000000000E+01 0.  1.
<mgrwt>
<rscale>  2 0.88826929E+01</rscale>
<asrwt>0</asrwt>
<pdfrwt beam="1">  1       21 0.63754506E-04 0.88826929E+01</pdfrwt>
<pdfrwt beam="2">  1       21 0.43242522E-01 0.88826929E+01</pdfrwt>
<totfact> 0.55332352E+08</totfact>
</mgrwt>
</event>
<event>
 4    1  0.3858687E+006  0.4978184E+01  0.7546771E-02  0.2571038E+00
         21   -1    0    0  501  502  0.00000000000E+00  0.00000000000E+00  0.24149971939E+03  0.24149971939E+03  0.00000000000E+00 0. -1.
         21   -1    0    0  502  503 -0.00000000000E+00 -0.00000000000E+00 -0.18765495308E+00  0.18765495308E+00  0.00000000000E+00 0. -1.
          5    1    1    2  501    0  0.15975060835E+01 -0.37455670738E+00  0.20200400558E+03  0.20206533743E+03  0.47000000000E+01 0. -1.
         -5    1    1    2    0  503 -0.15975060835E+01  0.37455670738E+00  0.39308058850E+02  0.39622036911E+02  0.47000000000E+01 0. -1.
<mgrwt>
<rscale>  2 0.49781842E+01</rscale>
<asrwt>0</asrwt>
<pdfrwt beam="1">  1       21 0.37153554E-01 0.49781842E+01</pdfrwt>
<pdfrwt beam="2">  1       21 0.28870186E-04 0.49781842E+01</pdfrwt>
<totfact> 0.13996188E+09</totfact>
</mgrwt>
</event>
<event>
 4    1  0.3858687E+006  0.8050259E+01  0.7546771E-02  0.2206557E+00
         21   -1    0    0  503  502  0.00000000000E+00  0.00000000000E+00  0.76400533048E+01  0.76400533048E+01  0.00000000000E+00 0. -1.
         21   -1    0    0  501  503 -0.00000000000E+00 -0.00000000000E+00 -0.84868272022E+01  0.84868272022E+01  0.00000000000E+00 0. -1.
          5    1    1    2  501    0  0.17339316816E+01 -0.63015989672E+01 -0.24108165033E+00  0.80538679516E+01  0.47000000000E+01 0. -1.
         -5    1    1    2    0  502 -0.17339316816E+01  0.63015989672E+01 -0.60569224706E+00  0.80730125553E+01  0.47000000000E+01 0. -1.
<mgrwt>
<rscale>  2 0.80502589E+01</rscale>
<asrwt>0</asrwt>
<pdfrwt beam="1">  1       21 0.11753928E-02 0.80502589E+01</pdfrwt>
<pdfrwt beam="2">  1       21 0.13056657E-02 0.80502589E+01</pdfrwt>
<totfact> 0.21670820E+09</totfact>
</mgrwt>
</event>
<event>
 4    1  0.3858687E+006  0.4726539E+01  0.7546771E-02  0.2618079E+00
         21   -1    0    0  501  502  0.00000000000E+00  0.00000000000E+00  0.36819396951E+03  0.36819396951E+03  0.00000000000E+00 0. -1.
         21   -1    0    0  502  503 -0.00000000000E+00 -0.00000000000E+00 -0.95022657553E-01  0.95022657553E-01  0.00000000000E+00 0. -1.
          5    1    1    2  501    0  0.49588588202E+00  0.65341745913E-01  0.29476120996E+03  0.29479910290E+03  0.47000000000E+01 0. -1.
         -5    1    1    2    0  503 -0.49588588202E+00 -0.65341745913E-01  0.73337736888E+02  0.73489889265E+02  0.47000000000E+01 0. -1.
<mgrwt>
<rscale>  2 0.47265392E+01</rscale>
<asrwt>0</asrwt>
<pdfrwt beam="1">  1       21 0.56644084E-01 0.47265392E+01</pdfrwt>
<pdfrwt beam="2">  1       21 0.14619165E-04 0.47265392E+01</pdfrwt>
<totfact> 0.15711390E+09</totfact>
</mgrwt>
</event>
<event>
 4    1  0.3858687E+006  0.7347224E+01  0.7546771E-02  0.2267350E+00
         21   -1    0    0  501  502  0.00000000000E+00  0.00000000000E+00  0.18329848435E+03  0.18329848435E+03  0.00000000000E+00 0.  1.
         21   -1    0    0  502  503 -0.00000000000E+00 -0.00000000000E+00 -0.29893793609E+00  0.29893793609E+00  0.00000000000E+00 0. -1.
          5    1    1    2  501    0 -0.95384148747E+00 -0.55661373908E+01  0.10268275769E+03  0.10294527879E+03  0.47000000000E+01 0.  1.
         -5    1    1    2    0  503  0.95384148747E+00  0.55661373908E+01  0.80316788725E+02  0.80652143494E+02  0.47000000000E+01 0. -1.
<mgrwt>
<rscale>  2 0.73472239E+01</rscale>
<asrwt>0</asrwt>
<pdfrwt beam="1">  1       21 0.28199677E-01 0.73472239E+01</pdfrwt>
<pdfrwt beam="2">  1       21 0.45990598E-04 0.73472239E+01</pdfrwt>
<totfact> 0.16227563E+09</totfact>
</mgrwt>
</event>
<event>
 4    1  0.3858687E+006  0.6245802E+01  0.7546771E-02  0.2384489E+00
         21   -1    0    0  503  502  0.00000000000E+00  0.00000000000E+00  0.27334026207E+01  0.27334026207E+01  0.00000000000E+00 0.  1.
         21   -1    0    0  501  503 -0.00000000000E+00 -0.00000000000E+00 -0.41990204172E+02  0.41990204172E+02  0.00000000000E+00 0.  1.
          5    1    1    2  501    0 -0.20730360856E+01  0.35528251495E+01 -0.37796875259E+02  0.38309448240E+02  0.47000000000E+01 0.  1.
         -5    1    1    2    0  502  0.20730360856E+01 -0.35528251495E+01 -0.14599262925E+01  0.64141585524E+01  0.47000000000E+01 0.  1.
<mgrwt>
<rscale>  2 0.62458022E+01</rscale>
<asrwt>0</asrwt>
<pdfrwt beam="1">  1       21 0.42052348E-03 0.62458022E+01</pdfrwt>
<pdfrwt beam="2">  1       21 0.64600314E-02 0.62458022E+01</pdfrwt>
<totfact> 0.73122484E+08</totfact>
</mgrwt>
</event>
<event>
 4    1  0.3858687E+006  0.6469812E+01  0.7546771E-02  0.2358013E+00
         21   -1    0    0  501  502  0.00000000000E+00  0.00000000000E+00  0.30087185661E+02  0.30087185661E+02  0.00000000000E+00 0. -1.
         21   -1    0    0  502  503 -0.00000000000E+00 -0.00000000000E+00 -0.14417441688E+01  0.14417441688E+01  0.00000000000E+00 0. -1.
          5    1    1    2  501    0 -0.23106346767E+01  0.37986098615E+01  0.11372173587E+02  0.13083760988E+02  0.47000000000E+01 0. -1.
         -5    1    1    2    0  503  0.23106346767E+01 -0.37986098615E+01  0.17273267905E+02  0.18445168842E+02  0.47000000000E+01 0. -1.
<mgrwt>
<rscale>  2 0.64698122E+01</rscale>
<asrwt>0</asrwt>
<pdfrwt beam="1">  1       21 0.46287973E-02 0.64698122E+01</pdfrwt>
<pdfrwt beam="2">  1       21 0.22180682E-03 0.64698122E+01</pdfrwt>
<totfact> 0.29901962E+09</totfact>
</mgrwt>
</event>
<event>
 4    1  0.3858687E+006  0.7249420E+01  0.7546771E-02  0.2276560E+00
         21   -1    0    0  501  502  0.00000000000E+00  0.00000000000E+00  0.41869863924E+02  0.41869863924E+02  0.00000000000E+00 0.  1.
         21   -1    0    0  502  503 -0.00000000000E+00 -0.00000000000E+00 -0.14145279638E+01  0.14145279638E+01  0.00000000000E+00 0. -1.
          5    1    1    2  501    0 -0.29340383105E+01  0.46749876904E+01  0.27491618652E+02  0.28431376801E+02  0.47000000000E+01 0.  1.
         -5    1    1    2    0  503  0.29340383105E+01 -0.46749876904E+01  0.12963717308E+02  0.14853015086E+02  0.47000000000E+01 0. -1.
<mgrwt>
<rscale>  2 0.72494200E+01</rscale>
<asrwt>0</asrwt>
<pdfrwt beam="1">  1       21 0.64415166E-02 0.72494200E+01</pdfrwt>
<pdfrwt beam="2">  1       21 0.21761972E-03 0.72494200E+01</pdfrwt>
<totfact> 0.20424293E+09</totfact>
</mgrwt>
</event>
<event>
 4    1  0.3858687E+006  0.8183299E+01  0.7546771E-02  0.2196009E+00
         21   -1    0    0  501  502  0.00000000000E+00  0.00000000000E+00  0.75948276721E+01  0.75948276721E+01  0.00000000000E+00 0. -1.
         21   -1    0    0  502  503 -0.00000000000E+00 -0.00000000000E+00 -0.83797819963E+02  0.83797819963E+02  0.00000000000E+00 0.  1.
          5    1    1    2  501    0  0.49397670511E+01  0.45249396659E+01  0.51238953108E+01  0.96550857404E+01  0.47000000000E+01 0. -1.
         -5    1    1    2    0  503 -0.49397670511E+01 -0.45249396659E+01 -0.81326887602E+02  0.81737561894E+02  0.47000000000E+01 0.  1.
<mgrwt>
<rscale>  2 0.81832987E+01</rscale>
<asrwt>0</asrwt>
<pdfrwt beam="1">  1       21 0.11684350E-02 0.81832987E+01</pdfrwt>
<pdfrwt beam="2">  1       21 0.12891972E-01 0.81832987E+01</pdfrwt>
<totfact> 0.70110892E+07</totfact>
</mgrwt>
</event>
<event>
 4    1  0.3858687E+006  0.4787041E+01  0.7546771E-02  0.2606378E+00
         21   -1    0    0  501  502  0.00000000000E+00  0.00000000000E+00  0.32144867665E+01  0.32144867665E+01  0.00000000000E+00 0. -1.
         21   -1    0    0  502  503 -0.00000000000E+00 -0.00000000000E+00 -0.82233237016E+01  0.82233237016E+01  0.00000000000E+00 0. -1.
          5    1    1    2  501    0  0.78506958147E+00 -0.45763590528E+00 -0.41809652915E+00  0.48052647770E+01  0.47000000000E+01 0. -1.
         -5    1    1    2    0  503 -0.78506958147E+00  0.45763590528E+00 -0.45907404059E+01  0.66325456911E+01  0.47000000000E+01 0. -1.
<mgrwt>
<rscale>  2 0.47870413E+01</rscale>
<asrwt>0</asrwt>
<pdfrwt beam="1">  1       21 0.49453643E-03 0.47870413E+01</pdfrwt>
<pdfrwt beam="2">  1       21 0.12651267E-02 0.47870413E+01</pdfrwt>
<totfact> 0.48262223E+09</totfact>
</mgrwt>
</event>
<event>
 4    1  0.3858687E+006  0.4977881E+01  0.7546771E-02  0.2571093E+00
         21   -1    0    0  501  502  0.00000000000E+00  0.00000000000E+00  0.52977850417E+01  0.52977850417E+01  0.00000000000E+00 0. -1.
         21   -1    0    0  502  503 -0.00000000000E+00 -0.00000000000E+00 -0.54510553501E+02  0.54510553501E+02  0.00000000000E+00 0. -1.
          5    1    1    2  501    0  0.16322681864E+01 -0.15810502136E+00  0.39860476397E+01  0.63771366942E+01  0.47000000000E+01 0. -1.
         -5    1    1    2    0  503 -0.16322681864E+01  0.15810502136E+00 -0.53198816099E+02  0.53431201848E+02  0.47000000000E+01 0. -1.
<mgrwt>
<rscale>  2 0.49778807E+01</rscale>
<asrwt>0</asrwt>
<pdfrwt beam="1">  1       21 0.81504383E-03 0.49778807E+01</pdfrwt>
<pdfrwt beam="2">  1       21 0.83862392E-02 0.49778807E+01</pdfrwt>
<totfact> 0.16515579E+08</totfact>
</mgrwt>
</event>
<event>
 4    1  0.3858687E+006  0.1405619E+02  0.7546771E-02  0.1898314E+00
         21   -1    0    0  501  502  0.00000000000E+00  0.00000000000E+00  0.12380190966E+02  0.12380190966E+02  0.00000000000E+00 0. -1.
         21   -1    0    0  502  503 -0.00000000000E+00 -0.00000000000E+00 -0.17627259706E+02  0.17627259706E+02  0.00000000000E+00 0.  1.
          5    1    1    2  501    0  0.13215903098E+02  0.90904494676E+00  0.19920652309E+01  0.14196646832E+02  0.47000000000E+01 0.  1.
         -5    1    1    2    0  503 -0.13215903098E+02 -0.90904494676E+00 -0.72391339704E+01  0.15810803839E+02  0.47000000000E+01 0. -1.
<mgrwt>
<rscale>  2 0.14056189E+02</rscale>
<asrwt>0</asrwt>
<pdfrwt beam="1">  1       21 0.19046448E-02 0.14056189E+02</pdfrwt>
<pdfrwt beam="2">  1       21 0.27118861E-02 0.14056189E+02</pdfrwt>
<totfact> 0.49646102E+08</totfact>
</mgrwt>
</event>
<event>
 4    1  0.3858687E+006  0.1565089E+02  0.7546771E-02  0.1848832E+00
         21   -1    0    0  501  502  0.00000000000E+00  0.00000000000E+00  0.71167525834E+00  0.71167525834E+00  0.00000000000E+00 0.  1.
         21   -1    0    0  502  503 -0.00000000000E+00 -0.00000000000E+00 -0.34463780334E+03  0.34463780334E+03  0.00000000000E+00 0. -1.
          5    1    1    2  501    0 -0.11972889381E+02 -0.89168493784E+01 -0.17819931462E+03  0.17888528731E+03  0.47000000000E+01 0.  1.
         -5    1    1    2    0  503  0.11972889381E+02  0.89168493784E+01 -0.16572681346E+03  0.16646419129E+03  0.47000000000E+01 0. -1.
<mgrwt>
<rscale>  2 0.15650888E+02</rscale>
<asrwt>0</asrwt>
<pdfrwt beam="1">  1       21 0.10948844E-03 0.15650888E+02</pdfrwt>
<pdfrwt beam="2">  1       21 0.53021229E-01 0.15650888E+02</pdfrwt>
<totfact> 0.22937132E+08</totfact>
</mgrwt>
</event>
<event>
 4    1  0.3858687E+006  0.6915587E+01  0.7546771E-02  0.2309589E+00
         21   -1    0    0  503  502  0.00000000000E+00  0.00000000000E+00  0.49094371557E+01  0.49094371557E+01  0.00000000000E+00 0. -1.
         21   -1    0    0  501  503 -0.00000000000E+00 -0.00000000000E+00 -0.27108618543E+02  0.27108618543E+02  0.00000000000E+00 0. -1.
          5    1    1    2  501    0 -0.41635210940E+01  0.28983516153E+01 -0.23913303272E+02  0.24893200344E+02  0.47000000000E+01 0. -1.
         -5    1    1    2    0  502  0.41635210940E+01 -0.28983516153E+01  0.17141218849E+01  0.71248553545E+01  0.47000000000E+01 0. -1.
<mgrwt>
<rscale>  2 0.69155875E+01</rscale>
<asrwt>0</asrwt>
<pdfrwt beam="1">  1       21 0.75529802E-03 0.69155875E+01</pdfrwt>
<pdfrwt beam="2">  1       21 0.41705567E-02 0.69155875E+01</pdfrwt>
<totfact> 0.66758627E+08</totfact>
</mgrwt>
</event>
<event>
 4    1  0.3858687E+006  0.8091088E+01  0.7546771E-02  0.2203290E+00
         21   -1    0    0  503  502  0.00000000000E+00  0.00000000000E+00  0.43087880198E+00  0.43087880198E+00  0.00000000000E+00 0. -1.
         21   -1    0    0  501  503 -0.00000000000E+00 -0.00000000000E+00 -0.20086738136E+03  0.20086738136E+03  0.00000000000E+00 0.  1.
          5    1    1    2  501    0  0.12341012481E+01 -0.64693663094E+01 -0.14989487788E+03  0.15011309110E+03  0.47000000000E+01 0.  1.
         -5    1    1    2    0  502 -0.12341012481E+01  0.64693663094E+01 -0.50541624680E+02  0.51185169060E+02  0.47000000000E+01 0. -1.
<mgrwt>
<rscale>  2 0.80910881E+01</rscale>
<asrwt>0</asrwt>
<pdfrwt beam="1">  1       21 0.66288756E-04 0.80910881E+01</pdfrwt>
<pdfrwt beam="2">  1       21 0.30902809E-01 0.80910881E+01</pdfrwt>
<totfact> 0.90041607E+08</totfact>
</mgrwt>
</event>
<event>
 4    1  0.3858687E+006  0.7898686E+01  0.7546771E-02  0.2218921E+00
         21   -1    0    0  503  502  0.00000000000E+00  0.00000000000E+00  0.87592025716E+01  0.87592025716E+01  0.00000000000E+00 0.  1.
         21   -1    0    0  501  503 -0.00000000000E+00 -0.00000000000E+00 -0.71439339548E+01  0.71439339548E+01  0.00000000000E+00 0.  1.
          5    1    1    2  501    0 -0.57898879459E+01  0.26031594254E+01  0.12410639815E+01  0.79955913619E+01  0.47000000000E+01 0.  1.
         -5    1    1    2    0  502  0.57898879459E+01 -0.26031594254E+01  0.37420463537E+00  0.79075451645E+01  0.47000000000E+01 0.  1.
<mgrwt>
<rscale>  2 0.78986861E+01</rscale>
<asrwt>0</asrwt>
<pdfrwt beam="1">  1       21 0.13475696E-02 0.78986861E+01</pdfrwt>
<pdfrwt beam="2">  1       21 0.10990668E-02 0.78986861E+01</pdfrwt>
<totfact> 0.22499520E+09</totfact>
</mgrwt>
</event>
<event>
 4    1  0.3858687E+006  0.5353682E+01  0.7546771E-02  0.2507992E+00
         21   -1    0    0  501  502  0.00000000000E+00  0.00000000000E+00  0.13731096105E+04  0.13731096105E+04  0.00000000000E+00 0.  1.
         21   -1    0    0  502  503 -0.00000000000E+00 -0.00000000000E+00 -0.50684211624E-01  0.50684211624E-01  0.00000000000E+00 0.  1.
          5    1    1    2  501    0  0.24185383900E+01  0.85004570254E+00  0.12130792755E+04  0.12130910892E+04  0.47000000000E+01 0.  1.
         -5    1    1    2    0  503 -0.24185383900E+01 -0.85004570254E+00  0.15997965075E+03  0.16006920553E+03  0.47000000000E+01 0.  1.
<mgrwt>
<rscale>  2 0.53536815E+01</rscale>
<asrwt>0</asrwt>
<pdfrwt beam="1">  1       21 0.21121784E+00 0.53536815E+01</pdfrwt>
<pdfrwt beam="2">  1       21 0.77986707E-05 0.53536815E+01</pdfrwt>
<totfact> 0.27892840E+08</totfact>
</mgrwt>
</event>
<event>
 4    1  0.3858687E+006  0.8987211E+01  0.7546771E-02  0.2137667E+00
         21   -1    0    0  503  502  0.00000000000E+00  0.00000000000E+00  0.32912210616E+00  0.32912210616E+00  0.00000000000E+00 0. -1.
         21   -1    0    0  501  503 -0.00000000000E+00 -0.00000000000E+00 -0.24625166080E+03  0.24625166080E+03  0.00000000000E+00 0. -1.
          5    1    1    2  501    0  0.53568577314E+01 -0.54757675633E+01 -0.13016787088E+03  0.13047775506E+03  0.47000000000E+01 0. -1.
         -5    1    1    2    0  502 -0.53568577314E+01  0.54757675633E+01 -0.11575466781E+03  0.11610302785E+03  0.47000000000E+01 0. -1.
<mgrwt>
<rscale>  2 0.89872106E+01</rscale>
<asrwt>0</asrwt>
<pdfrwt beam="1">  1       21 0.50633880E-04 0.89872106E+01</pdfrwt>
<pdfrwt beam="2">  1       21 0.37885088E-01 0.89872106E+01</pdfrwt>
<totfact> 0.96695765E+08</totfact>
</mgrwt>
</event>
<event>
 4    1  0.3858687E+006  0.7000069E+01  0.7546771E-02  0.2300987E+00
         21   -1    0    0  501  502  0.00000000000E+00  0.00000000000E+00  0.17440993795E+04  0.17440993795E+04  0.00000000000E+00 0.  1.
         21   -1    0    0  502  503 -0.00000000000E+00 -0.00000000000E+00 -0.28120315662E-01  0.28120315662E-01  0.00000000000E+00 0. -1.
          5    1    1    2  501    0 -0.50738584747E+01  0.10802418933E+01  0.89805566900E+03  0.89808295028E+03  0.47000000000E+01 0.  1.
         -5    1    1    2    0  503  0.50738584747E+01 -0.10802418933E+01  0.84601559015E+03  0.84604454950E+03  0.47000000000E+01 0. -1.
<mgrwt>
<rscale>  2 0.70000687E+01</rscale>
<asrwt>0</asrwt>
<pdfrwt beam="1">  1       21 0.26823637E+00 0.70000687E+01</pdfrwt>
<pdfrwt beam="2">  1       21 0.43275993E-05 0.70000687E+01</pdfrwt>
<totfact> 0.40379199E+08</totfact>
</mgrwt>
</event>
<event>
 4    1  0.3858687E+006  0.7761415E+01  0.7546771E-02  0.2230453E+00
         21   -1    0    0  503  502  0.00000000000E+00  0.00000000000E+00  0.10386591152E+02  0.10386591152E+02  0.00000000000E+00 0.  1.
         21   -1    0    0  501  503 -0.00000000000E+00 -0.00000000000E+00 -0.15121500648E+02  0.15121500648E+02  0.00000000000E+00 0. -1.
          5    1    1    2  501    0 -0.57278506668E+01  0.23111243617E+01 -0.12381266235E+02  0.14612847862E+02  0.47000000000E+01 0. -1.
         -5    1    1    2    0  502  0.57278506668E+01 -0.23111243617E+01  0.76463567386E+01  0.10895243937E+02  0.47000000000E+01 0.  1.
<mgrwt>
<rscale>  2 0.77614154E+01</rscale>
<asrwt>0</asrwt>
<pdfrwt beam="1">  1       21 0.15979371E-02 0.77614154E+01</pdfrwt>
<pdfrwt beam="2">  1       21 0.23263847E-02 0.77614154E+01</pdfrwt>
<totfact> 0.58505898E+08</totfact>
</mgrwt>
</event>
<event>
 4    1  0.3858687E+006  0.5672255E+01  0.7546771E-02  0.2460137E+00
         21   -1    0    0  503  502  0.00000000000E+00  0.00000000000E+00  0.25305307435E+02  0.25305307435E+02  0.00000000000E+00 0. -1.
         21   -1    0    0  501  503 -0.00000000000E+00 -0.00000000000E+00 -0.12849545472E+01  0.12849545472E+01  0.00000000000E+00 0. -1.
          5    1    1    2  501    0  0.28336477625E+01 -0.14334971744E+01  0.10647279814E+02  0.12063956284E+02  0.47000000000E+01 0. -1.
         -5    1    1    2    0  502 -0.28336477625E+01  0.14334971744E+01  0.13373073074E+02  0.14526305698E+02  0.47000000000E+01 0. -1.
<mgrwt>
<rscale>  2 0.56722547E+01</rscale>
<asrwt>0</asrwt>
<pdfrwt beam="1">  1       21 0.38931239E-02 0.56722547E+01</pdfrwt>
<pdfrwt beam="2">  1       21 0.19768533E-03 0.56722547E+01</pdfrwt>
<totfact> 0.40204272E+09</totfact>
</mgrwt>
</event>
<event>
 4    1  0.3858687E+006  0.5062106E+01  0.7546771E-02  0.2556253E+00
         21   -1    0    0  501  502  0.00000000000E+00  0.00000000000E+00  0.99604245228E+01  0.99604245228E+01  0.00000000000E+00 0. -1.
         21   -1    0    0  502  503 -0.00000000000E+00 -0.00000000000E+00 -0.70398885503E+01  0.70398885503E+01  0.00000000000E+00 0. -1.
          5    1    1    2  501    0 -0.18578340154E+01 -0.28873710873E+00  0.82314186998E+01  0.96633933046E+01  0.47000000000E+01 0. -1.
         -5    1    1    2    0  503  0.18578340154E+01  0.28873710873E+00 -0.53108827273E+01  0.73369197685E+01  0.47000000000E+01 0. -1.
<mgrwt>
<rscale>  2 0.50621059E+01</rscale>
<asrwt>0</asrwt>
<pdfrwt beam="1">  1       21 0.15323730E-02 0.50621059E+01</pdfrwt>
<pdfrwt beam="2">  1       21 0.10830598E-02 0.50621059E+01</pdfrwt>
<totfact> 0.13204207E+09</totfact>
</mgrwt>
</event>
<event>
 4    1  0.3858687E+006  0.9133557E+01  0.7546771E-02  0.2127934E+00
         21   -1    0    0  501  502  0.00000000000E+00  0.00000000000E+00  0.51777436396E+02  0.51777436396E+02  0.00000000000E+00 0. -1.
         21   -1    0    0  502  503 -0.00000000000E+00 -0.00000000000E+00 -0.39544924308E+01  0.39544924308E+01  0.00000000000E+00 0.  1.
          5    1    1    2  501    0  0.19775287772E+01 -0.75776807632E+01  0.45362367138E+02  0.46272737310E+02  0.47000000000E+01 0. -1.
         -5    1    1    2    0  503 -0.19775287772E+01  0.75776807632E+01  0.24605768264E+01  0.94591915158E+01  0.47000000000E+01 0.  1.
<mgrwt>
<rscale>  2 0.91335571E+01</rscale>
<asrwt>0</asrwt>
<pdfrwt beam="1">  1       21 0.79657590E-02 0.91335571E+01</pdfrwt>
<pdfrwt beam="2">  1       21 0.60838349E-03 0.91335571E+01</pdfrwt>
<totfact> 0.40473335E+08</totfact>
</mgrwt>
</event>
<event>
 4    1  0.3858687E+006  0.6714890E+01  0.7546771E-02  0.2330734E+00
         21   -1    0    0  503  502  0.00000000000E+00  0.00000000000E+00  0.15096170647E+03  0.15096170647E+03  0.00000000000E+00 0.  1.
         21   -1    0    0  501  503 -0.00000000000E+00 -0.00000000000E+00 -0.37796380764E+00  0.37796380764E+00  0.00000000000E+00 0. -1.
          5    1    1    2  501    0 -0.45496345158E+01  0.15167619805E+01  0.40635676006E+02  0.41186744295E+02  0.47000000000E+01 0.  1.
         -5    1    1    2    0  502  0.45496345158E+01 -0.15167619805E+01  0.10994806666E+03  0.11015292599E+03  0.47000000000E+01 0.  1.
<mgrwt>
<rscale>  2 0.67148895E+01</rscale>
<asrwt>0</asrwt>
<pdfrwt beam="1">  1       21 0.23224830E-01 0.67148895E+01</pdfrwt>
<pdfrwt beam="2">  1       21 0.58148399E-04 0.67148895E+01</pdfrwt>
<totfact> 0.15364278E+09</totfact>
</mgrwt>
</event>
<event>
 4    1  0.3858687E+006  0.8317990E+01  0.7546771E-02  0.2185608E+00
         21   -1    0    0  503  502  0.00000000000E+00  0.00000000000E+00  0.37601108330E+01  0.37601108330E+01  0.00000000000E+00 0. -1.
         21   -1    0    0  501  503 -0.00000000000E+00 -0.00000000000E+00 -0.36499699881E+02  0.36499699881E+02  0.00000000000E+00 0.  1.
          5    1    1    2  501    0  0.44922110765E+01  0.51883513986E+01 -0.30544808117E+02  0.31657135902E+02  0.47000000000E+01 0.  1.
         -5    1    1    2    0  502 -0.44922110765E+01 -0.51883513986E+01 -0.21947809308E+01  0.86026748122E+01  0.47000000000E+01 0. -1.
<mgrwt>
<rscale>  2 0.83179896E+01</rscale>
<asrwt>0</asrwt>
<pdfrwt beam="1">  1       21 0.57847861E-03 0.83179896E+01</pdfrwt>
<pdfrwt beam="2">  1       21 0.56153383E-02 0.83179896E+01</pdfrwt>
<totfact> 0.70471372E+08</totfact>
</mgrwt>
</event>
<event>
 4    1  0.3858687E+006  0.6383967E+01  0.7546771E-02  0.2367977E+00
         21   -1    0    0  501  502  0.00000000000E+00  0.00000000000E+00  0.36271905938E+00  0.36271905938E+00  0.00000000000E+00 0. -1.
         21   -1    0    0  502  503 -0.00000000000E+00 -0.00000000000E+00 -0.11611483569E+03  0.11611483569E+03  0.00000000000E+00 0.  1.
          5    1    1    2  501    0 -0.39324056919E+01  0.17891944166E+01 -0.68349200195E+02  0.68646691096E+02  0.47000000000E+01 0. -1.
         -5    1    1    2    0  503  0.39324056919E+01 -0.17891944166E+01 -0.47402916434E+02  0.47830863651E+02  0.47000000000E+01 0. -1.
<mgrwt>
<rscale>  2 0.63839667E+01</rscale>
<asrwt>0</asrwt>
<pdfrwt beam="1">  1       21 0.55802974E-04 0.63839667E+01</pdfrwt>
<pdfrwt beam="2">  1       21 0.17863807E-01 0.63839667E+01</pdfrwt>
<totfact> 0.23962165E+09</totfact>
</mgrwt>
</event>
<event>
 4    1  0.3858687E+006  0.9011520E+01  0.7546771E-02  0.2136033E+00
         21   -1    0    0  503  502  0.00000000000E+00  0.00000000000E+00  0.16767609945E+03  0.16767609945E+03  0.00000000000E+00 0. -1.
         21   -1    0    0  501  503 -0.00000000000E+00 -0.00000000000E+00 -0.52745224673E+00  0.52745224673E+00  0.00000000000E+00 0.  1.
          5    1    1    2  501    0  0.26662591850E+01  0.72116957345E+01  0.10762661830E+03  0.10800322430E+03  0.47000000000E+01 0. -1.
         -5    1    1    2    0  502 -0.26662591850E+01 -0.72116957345E+01  0.59522028904E+02  0.60200327393E+02  0.47000000000E+01 0.  1.
<mgrwt>
<rscale>  2 0.90115200E+01</rscale>
<asrwt>0</asrwt>
<pdfrwt beam="1">  1       21 0.25796281E-01 0.90115200E+01</pdfrwt>
<pdfrwt beam="2">  1       21 0.81146633E-04 0.90115200E+01</pdfrwt>
<totfact> 0.99324275E+08</totfact>
</mgrwt>
</event>
<event>
 4    1  0.3858687E+006  0.4944222E+01  0.7546771E-02  0.2577145E+00
         21   -1    0    0  501  502  0.00000000000E+00  0.00000000000E+00  0.27416657608E+00  0.27416657608E+00  0.00000000000E+00 0. -1.
         21   -1    0    0  502  503 -0.00000000000E+00 -0.00000000000E+00 -0.11797238859E+03  0.11797238859E+03  0.00000000000E+00 0. -1.
          5    1    1    2  501    0  0.17422816028E+00 -0.15247883442E+01 -0.88066423825E+02  0.88205103822E+02  0.47000000000E+01 0. -1.
         -5    1    1    2    0  503 -0.17422816028E+00  0.15247883442E+01 -0.29631798193E+02  0.30041451348E+02  0.47000000000E+01 0. -1.
<mgrwt>
<rscale>  2 0.49442224E+01</rscale>
<asrwt>0</asrwt>
<pdfrwt beam="1">  1       21 0.42179532E-04 0.49442224E+01</pdfrwt>
<pdfrwt beam="2">  1       21 0.18149573E-01 0.49442224E+01</pdfrwt>
<totfact> 0.27137193E+09</totfact>
</mgrwt>
</event>
<event>
 4    1  0.3858687E+006  0.8707328E+01  0.7546771E-02  0.2157001E+00
         21   -1    0    0  503  502  0.00000000000E+00  0.00000000000E+00  0.68818325293E+02  0.68818325293E+02  0.00000000000E+00 0.  1.
         21   -1    0    0  501  503 -0.00000000000E+00 -0.00000000000E+00 -0.25210410401E+01  0.25210410401E+01  0.00000000000E+00 0. -1.
          5    1    1    2  501    0  0.34269278952E+01  0.64794851135E+01  0.63845968618E+01  0.10797251466E+02  0.47000000000E+01 0. -1.
         -5    1    1    2    0  502 -0.34269278952E+01 -0.64794851135E+01  0.59912687391E+02  0.60542114867E+02  0.47000000000E+01 0.  1.
<mgrwt>
<rscale>  2 0.87073281E+01</rscale>
<asrwt>0</asrwt>
<pdfrwt beam="1">  1       21 0.10587433E-01 0.87073281E+01</pdfrwt>
<pdfrwt beam="2">  1       21 0.38785252E-03 0.87073281E+01</pdfrwt>
<totfact> 0.47713787E+08</totfact>
</mgrwt>
</event>
<event>
 4    1  0.3858687E+006  0.5151298E+01  0.7546771E-02  0.2540994E+00
         21   -1    0    0  501  502  0.00000000000E+00  0.00000000000E+00  0.19941927282E+03  0.19941927282E+03  0.00000000000E+00 0.  1.
         21   -1    0    0  502  503 -0.00000000000E+00 -0.00000000000E+00 -0.15625194348E+00  0.15625194348E+00  0.00000000000E+00 0.  1.
          5    1    1    2  501    0 -0.15089168801E+00 -0.21031183209E+01  0.13807114977E+03  0.13816721129E+03  0.47000000000E+01 0.  1.
         -5    1    1    2    0  503  0.15089168801E+00  0.21031183209E+01  0.61191871107E+02  0.61408313481E+02  0.47000000000E+01 0.  1.
<mgrwt>
<rscale>  2 0.51512984E+01</rscale>
<asrwt>0</asrwt>
<pdfrwt beam="1">  1       21 0.30679685E-01 0.51512984E+01</pdfrwt>
<pdfrwt beam="2">  1       21 0.24038920E-04 0.51512984E+01</pdfrwt>
<totfact> 0.25390874E+09</totfact>
</mgrwt>
</event>
<event>
 4    1  0.3858687E+006  0.7489817E+01  0.7546771E-02  0.2254274E+00
         21   -1    0    0  501  502  0.00000000000E+00  0.00000000000E+00  0.25130337163E+02  0.25130337163E+02  0.00000000000E+00 0. -1.
         21   -1    0    0  502  503 -0.00000000000E+00 -0.00000000000E+00 -0.24225587265E+01  0.24225587265E+01  0.00000000000E+00 0. -1.
          5    1    1    2  501    0 -0.50465628547E+01 -0.29222530222E+01  0.74926919279E+01  0.10594233889E+02  0.47000000000E+01 0. -1.
         -5    1    1    2    0  503  0.50465628547E+01  0.29222530222E+01  0.15215086508E+02  0.16958662000E+02  0.47000000000E+01 0. -1.
<mgrwt>
<rscale>  2 0.74898170E+01</rscale>
<asrwt>0</asrwt>
<pdfrwt beam="1">  1       21 0.38662055E-02 0.74898170E+01</pdfrwt>
<pdfrwt beam="2">  1       21 0.37270136E-03 0.74898170E+01</pdfrwt>
<totfact> 0.21366285E+09</totfact>
</mgrwt>
</event>
<event>
 4    1  0.3858687E+006  0.6302402E+01  0.7546771E-02  0.2377652E+00
         21   -1    0    0  503  502  0.00000000000E+00  0.00000000000E+00  0.47912478007E+02  0.47912478007E+02  0.00000000000E+00 0.  1.
         21   -1    0    0  501  503 -0.00000000000E+00 -0.00000000000E+00 -0.14498912807E+01  0.14498912807E+01  0.00000000000E+00 0.  1.
          5    1    1    2  501    0 -0.35712103713E+01  0.22083300847E+01  0.70802691027E+01  0.94789490897E+01  0.47000000000E+01 0.  1.
         -5    1    1    2    0  502  0.35712103713E+01 -0.22083300847E+01  0.39382317624E+02  0.39883420198E+02  0.47000000000E+01 0.  1.
<mgrwt>
<rscale>  2 0.63024015E+01</rscale>
<asrwt>0</asrwt>
<pdfrwt beam="1">  1       21 0.73711493E-02 0.63024015E+01</pdfrwt>
<pdfrwt beam="2">  1       21 0.22306023E-03 0.63024015E+01</pdfrwt>
<totfact> 0.14454784E+09</totfact>
</mgrwt>
</event>
<event>
 4    1  0.3858687E+006  0.4926309E+01  0.7546771E-02  0.2580395E+00
         21   -1    0    0  501  502  0.00000000000E+00  0.00000000000E+00  0.16154539254E+04  0.16154539254E+04  0.00000000000E+00 0. -1.
         21   -1    0    0  502  503 -0.00000000000E+00 -0.00000000000E+00 -0.28064458184E-01  0.28064458184E-01  0.00000000000E+00 0. -1.
          5    1    1    2  501    0 -0.36096932732E-01 -0.14755381734E+01  0.13583449884E+04  0.13583539215E+04  0.47000000000E+01 0. -1.
         -5    1    1    2    0  503  0.36096932732E-01  0.14755381734E+01  0.25708087257E+03  0.25712806840E+03  0.47000000000E+01 0. -1.
<mgrwt>
<rscale>  2 0.49263085E+01</rscale>
<asrwt>0</asrwt>
<pdfrwt beam="1">  1       21 0.24845692E+00 0.49263085E+01</pdfrwt>
<pdfrwt beam="2">  1       21 0.43189028E-05 0.49263085E+01</pdfrwt>
<totfact> 0.40924691E+08</totfact>
</mgrwt>
</event>
<event>
 4    1  0.3858687E+006  0.1185577E+02  0.7546771E-02  0.1982583E+00
         21   -1    0    0  501  502  0.00000000000E+00  0.00000000000E+00  0.22450928400E+03  0.22450928400E+03  0.00000000000E+00 0.  1.
         21   -1    0    0  502  503 -0.00000000000E+00 -0.00000000000E+00 -0.10237704063E+02  0.10237704063E+02  0.00000000000E+00 0. -1.
          5    1    1    2  501    0  0.10590949986E+02 -0.25101730811E+01  0.22086376189E+03  0.22118173637E+03  0.47000000000E+01 0.  1.
         -5    1    1    2    0  503 -0.10590949986E+02  0.25101730811E+01 -0.65921819507E+01  0.13565251689E+02  0.47000000000E+01 0. -1.
<mgrwt>
<rscale>  2 0.11855766E+02</rscale>
<asrwt>0</asrwt>
<pdfrwt beam="1">  1       21 0.34539886E-01 0.11855766E+02</pdfrwt>
<pdfrwt beam="2">  1       21 0.15750316E-02 0.11855766E+02</pdfrwt>
<totfact> 0.99603973E+06</totfact>
</mgrwt>
</event>
<event>
 4    1  0.3858687E+006  0.5395800E+01  0.7546771E-02  0.2501391E+00
         21   -1    0    0  501  502  0.00000000000E+00  0.00000000000E+00  0.34457215190E+00  0.34457215190E+00  0.00000000000E+00 0.  1.
         21   -1    0    0  502  503 -0.00000000000E+00 -0.00000000000E+00 -0.12433820182E+03  0.12433820182E+03  0.00000000000E+00 0. -1.
          5    1    1    2  501    0  0.75803916130E+00 -0.25396925206E+01 -0.26706893377E+02  0.27246519325E+02  0.47000000000E+01 0.  1.
         -5    1    1    2    0  503 -0.75803916130E+00  0.25396925206E+01 -0.97286736293E+02  0.97436254649E+02  0.47000000000E+01 0. -1.
<mgrwt>
<rscale>  2 0.53958004E+01</rscale>
<asrwt>0</asrwt>
<pdfrwt beam="1">  1       21 0.53011085E-04 0.53958004E+01</pdfrwt>
<pdfrwt beam="2">  1       21 0.19128959E-01 0.53958004E+01</pdfrwt>
<totfact> 0.19996844E+09</totfact>
</mgrwt>
</event>
<event>
 4    1  0.3858687E+006  0.5149806E+01  0.7546771E-02  0.2541245E+00
         21   -1    0    0  503  502  0.00000000000E+00  0.00000000000E+00  0.11653805946E+01  0.11653805946E+01  0.00000000000E+00 0. -1.
         21   -1    0    0  501  503 -0.00000000000E+00 -0.00000000000E+00 -0.46723820136E+02  0.46723820136E+02  0.00000000000E+00 0. -1.
          5    1    1    2  501    0  0.70318367638E+00 -0.19839430664E+01 -0.39928431595E+02  0.40259162274E+02  0.47000000000E+01 0. -1.
         -5    1    1    2    0  502 -0.70318367638E+00  0.19839430664E+01 -0.56300079470E+01  0.76300384571E+01  0.47000000000E+01 0. -1.
<mgrwt>
<rscale>  2 0.51498056E+01</rscale>
<asrwt>0</asrwt>
<pdfrwt beam="1">  1       21 0.17928930E-03 0.51498056E+01</pdfrwt>
<pdfrwt beam="2">  1       21 0.71882807E-02 0.51498056E+01</pdfrwt>
<totfact> 0.16958890E+09</totfact>
</mgrwt>
</event>
<event>
 4    1  0.3858687E+006  0.4778536E+01  0.7546771E-02  0.2608007E+00
         21   -1    0    0  501  502  0.00000000000E+00  0.00000000000E+00  0.49311480636E+01  0.49311480636E+01  0.00000000000E+00 0. -1.
         21   -1    0    0  502  503 -0.00000000000E+00 -0.00000000000E+00 -0.61368775730E+01  0.61368775730E+01  0.00000000000E+00 0. -1.
          5    1    1    2  501    0 -0.66389419428E+00  0.55104790914E+00  0.21387855714E+01  0.52353426841E+01  0.47000000000E+01 0.  1.
         -5    1    1    2    0  503  0.66389419428E+00 -0.55104790914E+00 -0.33445150807E+01  0.58326829525E+01  0.47000000000E+01 0.  1.
<mgrwt>
<rscale>  2 0.47785363E+01</rscale>
<asrwt>0</asrwt>
<pdfrwt beam="1">  1       21 0.75863817E-03 0.47785363E+01</pdfrwt>
<pdfrwt beam="2">  1       21 0.94413501E-03 0.47785363E+01</pdfrwt>
<totfact> 0.40199560E+09</totfact>
</mgrwt>
</event>
<event>
 4    1  0.3858687E+006  0.8962620E+01  0.7546771E-02  0.2139327E+00
         21   -1    0    0  501  502  0.00000000000E+00  0.00000000000E+00  0.37568127214E+01  0.37568127214E+01  0.00000000000E+00 0. -1.
         21   -1    0    0  502  503 -0.00000000000E+00 -0.00000000000E+00 -0.23294116311E+02  0.23294116311E+02  0.00000000000E+00 0.  1.
          5    1    1    2  501    0  0.52959229130E+01 -0.54947028054E+01 -0.58936271491E+01  0.10726760899E+02  0.47000000000E+01 0.  1.
         -5    1    1    2    0  503 -0.52959229130E+01  0.54947028054E+01 -0.13643676441E+02  0.16324168133E+02  0.47000000000E+01 0.  1.
<mgrwt>
<rscale>  2 0.89626201E+01</rscale>
<asrwt>0</asrwt>
<pdfrwt beam="1">  1       21 0.57797120E-03 0.89626201E+01</pdfrwt>
<pdfrwt beam="2">  1       21 0.35837101E-02 0.89626201E+01</pdfrwt>
<totfact> 0.14584323E+09</totfact>
</mgrwt>
</event>
<event>
 4    1  0.3858687E+006  0.5005186E+01  0.7546771E-02  0.2566235E+00
         21   -1    0    0  503  502  0.00000000000E+00  0.00000000000E+00  0.59235805267E+01  0.59235805267E+01  0.00000000000E+00 0.  1.
         21   -1    0    0  501  503 -0.00000000000E+00 -0.00000000000E+00 -0.85022850135E+01  0.85022850135E+01  0.00000000000E+00 0.  1.
          5    1    1    2  501    0  0.37897280932E+00  0.16787698970E+01 -0.64028236710E+01  0.81269945071E+01  0.47000000000E+01 0.  1.
         -5    1    1    2    0  502 -0.37897280932E+00 -0.16787698970E+01  0.38241191841E+01  0.62988710331E+01  0.47000000000E+01 0.  1.
<mgrwt>
<rscale>  2 0.50051862E+01</rscale>
<asrwt>0</asrwt>
<pdfrwt beam="1">  1       21 0.91132009E-03 0.50051862E+01</pdfrwt>
<pdfrwt beam="2">  1       21 0.13080438E-02 0.50051862E+01</pdfrwt>
<totfact> 0.20756158E+09</totfact>
</mgrwt>
</event>
<event>
 4    1  0.3858687E+006  0.4935735E+01  0.7546771E-02  0.2578682E+00
         21   -1    0    0  501  502  0.00000000000E+00  0.00000000000E+00  0.39156588137E-01  0.39156588137E-01  0.00000000000E+00 0. -1.
         21   -1    0    0  502  503 -0.00000000000E+00 -0.00000000000E+00 -0.68025320864E+03  0.68025320864E+03  0.00000000000E+00 0. -1.
          5    1    1    2  501    0  0.54542418547E+00 -0.14049871478E+01 -0.24070144188E+03  0.24075204174E+03  0.47000000000E+01 0.  1.
         -5    1    1    2    0  503 -0.54542418547E+00  0.14049871478E+01 -0.43951261017E+03  0.43954032350E+03  0.47000000000E+01 0.  1.
<mgrwt>
<rscale>  2 0.49357346E+01</rscale>
<asrwt>0</asrwt>
<pdfrwt beam="1">  1       21 0.60237393E-05 0.49357346E+01</pdfrwt>
<pdfrwt beam="2">  1       21 0.10466044E+00 0.49357346E+01</pdfrwt>
<totfact> 0.16457071E+09</totfact>
</mgrwt>
</event>
<event>
 4    1  0.3858687E+006  0.6661059E+01  0.7546771E-02  0.2336584E+00
         21   -1    0    0  501  502  0.00000000000E+00  0.00000000000E+00  0.48553260144E+00  0.48553260144E+00  0.00000000000E+00 0. -1.
         21   -1    0    0  502  503 -0.00000000000E+00 -0.00000000000E+00 -0.10893770914E+03  0.10893770914E+03  0.00000000000E+00 0. -1.
          5    1    1    2  501    0  0.24652443523E+01  0.40252047479E+01 -0.76188509520E+02  0.76479138893E+02  0.47000000000E+01 0. -1.
         -5    1    1    2    0  503 -0.24652443523E+01 -0.40252047479E+01 -0.32263667014E+02  0.32944102844E+02  0.47000000000E+01 0. -1.
<mgrwt>
<rscale>  2 0.66610587E+01</rscale>
<asrwt>0</asrwt>
<pdfrwt beam="1">  1       21 0.74697256E-04 0.66610587E+01</pdfrwt>
<pdfrwt beam="2">  1       21 0.16759663E-01 0.66610587E+01</pdfrwt>
<totfact> 0.18537605E+09</totfact>
</mgrwt>
</event>
<event>
 4    1  0.3858687E+006  0.5063981E+01  0.7546771E-02  0.2555927E+00
         21   -1    0    0  501  502  0.00000000000E+00  0.00000000000E+00  0.20470139725E+01  0.20470139725E+01  0.00000000000E+00 0. -1.
         21   -1    0    0  502  503 -0.00000000000E+00 -0.00000000000E+00 -0.21285606434E+02  0.21285606434E+02  0.00000000000E+00 0.  1.
          5    1    1    2  501    0 -0.23320154847E+00  0.18707013193E+01 -0.21359410921E+01  0.54960122577E+01  0.47000000000E+01 0. -1.
         -5    1    1    2    0  503  0.23320154847E+00 -0.18707013193E+01 -0.17102651370E+02  0.17836608149E+02  0.47000000000E+01 0.  1.
<mgrwt>
<rscale>  2 0.50639813E+01</rscale>
<asrwt>0</asrwt>
<pdfrwt beam="1">  1       21 0.31492523E-03 0.50639813E+01</pdfrwt>
<pdfrwt beam="2">  1       21 0.32747087E-02 0.50639813E+01</pdfrwt>
<totfact> 0.24605855E+09</totfact>
</mgrwt>
</event>
<event>
 4    1  0.3858687E+006  0.4913588E+01  0.7546771E-02  0.2582715E+00
         21   -1    0    0  501  502  0.00000000000E+00  0.00000000000E+00  0.76170883503E+00  0.76170883503E+00  0.00000000000E+00 0. -1.
         21   -1    0    0  502  503 -0.00000000000E+00 -0.00000000000E+00 -0.20985898771E+03  0.20985898771E+03  0.00000000000E+00 0. -1.
          5    1    1    2  501    0  0.16840138472E-01 -0.14328530092E+01 -0.75164924959E+01  0.89800340075E+01  0.47000000000E+01 0. -1.
         -5    1    1    2    0  503 -0.16840138472E-01  0.14328530092E+01 -0.20158078638E+03  0.20164066254E+03  0.47000000000E+01 0. -1.
<mgrwt>
<rscale>  2 0.49135884E+01</rscale>
<asrwt>0</asrwt>
<pdfrwt beam="1">  1       21 0.11718602E-03 0.49135884E+01</pdfrwt>
<pdfrwt beam="2">  1       21 0.32285985E-01 0.49135884E+01</pdfrwt>
<totfact> 0.27399871E+08</totfact>
</mgrwt>
</event>
<event>
 4    1  0.3858687E+006  0.5401503E+01  0.7546771E-02  0.2500504E+00
         21   -1    0    0  501  502  0.00000000000E+00  0.00000000000E+00  0.37510975944E+02  0.37510975944E+02  0.00000000000E+00 0.  1.
         21   -1    0    0  502  503 -0.00000000000E+00 -0.00000000000E+00 -0.14270925499E+01  0.14270925499E+01  0.00000000000E+00 0.  1.
          5    1    1    2  501    0  0.10798874610E+01  0.24331205711E+01  0.31174121065E+02  0.31638616544E+02  0.47000000000E+01 0.  1.
         -5    1    1    2    0  503 -0.10798874610E+01 -0.24331205711E+01  0.49097623292E+01  0.72994519500E+01  0.47000000000E+01 0.  1.
<mgrwt>
<rscale>  2 0.54015028E+01</rscale>
<asrwt>0</asrwt>
<pdfrwt beam="1">  1       21 0.57709186E-02 0.54015028E+01</pdfrwt>
<pdfrwt beam="2">  1       21 0.21955273E-03 0.54015028E+01</pdfrwt>
<totfact> 0.18697033E+09</totfact>
</mgrwt>
</event>
<event>
 4    1  0.3858687E+006  0.7025731E+01  0.7546771E-02  0.2298408E+00
         21   -1    0    0  503  502  0.00000000000E+00  0.00000000000E+00  0.21811030873E+02  0.21811030873E+02  0.00000000000E+00 0.  1.
         21   -1    0    0  501  503 -0.00000000000E+00 -0.00000000000E+00 -0.27450250201E+01  0.27450250201E+01  0.00000000000E+00 0. -1.
          5    1    1    2  501    0 -0.38163666260E+01  0.35645810928E+01  0.43885641999E+01  0.82837424107E+01  0.47000000000E+01 0. -1.
         -5    1    1    2    0  502  0.38163666260E+01 -0.35645810928E+01  0.14677441653E+02  0.16272313482E+02  0.47000000000E+01 0.  1.
<mgrwt>
<rscale>  2 0.70257308E+01</rscale>
<asrwt>0</asrwt>
<pdfrwt beam="1">  1       21 0.33555431E-02 0.70257308E+01</pdfrwt>
<pdfrwt beam="2">  1       21 0.42231156E-03 0.70257308E+01</pdfrwt>
<totfact> 0.21090920E+09</totfact>
</mgrwt>
</event>
<event>
 4    1  0.3858687E+006  0.5637085E+01  0.7546771E-02  0.2465195E+00
         21   -1    0    0  503  502  0.00000000000E+00  0.00000000000E+00  0.65214611969E-01  0.65214611969E-01  0.00000000000E+00 0. -1.
         21   -1    0    0  501  503 -0.00000000000E+00 -0.00000000000E+00 -0.80540821885E+03  0.80540821885E+03  0.00000000000E+00 0. -1.
          5    1    1    2  501    0 -0.27376442736E+01  0.14805494636E+01 -0.65579083500E+03  0.65581506234E+03  0.47000000000E+01 0. -1.
         -5    1    1    2    0  502  0.27376442736E+01 -0.14805494636E+01 -0.14955216923E+03  0.14965837112E+03  0.47000000000E+01 0. -1.
<mgrwt>
<rscale>  2 0.56370846E+01</rscale>
<asrwt>0</asrwt>
<pdfrwt beam="1">  1       21 0.10032724E-04 0.56370846E+01</pdfrwt>
<pdfrwt beam="2">  1       21 0.12391258E+00 0.56370846E+01</pdfrwt>
<totfact> 0.65046748E+08</totfact>
</mgrwt>
</event>
<event>
 4    1  0.3858687E+006  0.5983894E+01  0.7546771E-02  0.2417525E+00
         21   -1    0    0  503  502  0.00000000000E+00  0.00000000000E+00  0.23185968850E+03  0.23185968850E+03  0.00000000000E+00 0. -1.
         21   -1    0    0  501  503 -0.00000000000E+00 -0.00000000000E+00 -0.18312904917E+00  0.18312904917E+00  0.00000000000E+00 0. -1.
          5    1    1    2  501    0  0.34961251475E+01 -0.12223315695E+01  0.69911700565E+02  0.70167320466E+02  0.47000000000E+01 0. -1.
         -5    1    1    2    0  502 -0.34961251475E+01  0.12223315695E+01  0.16176485888E+03  0.16187549708E+03  0.47000000000E+01 0. -1.
<mgrwt>
<rscale>  2 0.59838938E+01</rscale>
<asrwt>0</asrwt>
<pdfrwt beam="1">  1       21 0.35670486E-01 0.59838938E+01</pdfrwt>
<pdfrwt beam="2">  1       21 0.28173885E-04 0.59838938E+01</pdfrwt>
<totfact> 0.18054305E+09</totfact>
</mgrwt>
</event>
<event>
 4    1  0.3858687E+006  0.4901632E+01  0.7546771E-02  0.2584906E+00
         21   -1    0    0  501  502  0.00000000000E+00  0.00000000000E+00  0.19587487643E+00  0.19587487643E+00  0.00000000000E+00 0.  1.
         21   -1    0    0  502  503 -0.00000000000E+00 -0.00000000000E+00 -0.12728623833E+03  0.12728623833E+03  0.00000000000E+00 0.  1.
          5    1    1    2  501    0 -0.13839066064E+01 -0.14420968518E+00 -0.51393204521E+02  0.51626422159E+02  0.47000000000E+01 0.  1.
         -5    1    1    2    0  503  0.13839066064E+01  0.14420968518E+00 -0.75697158930E+02  0.75855691046E+02  0.47000000000E+01 0.  1.
<mgrwt>
<rscale>  2 0.49016318E+01</rscale>
<asrwt>0</asrwt>
<pdfrwt beam="1">  1       21 0.30134642E-04 0.49016318E+01</pdfrwt>
<pdfrwt beam="2">  1       21 0.19582469E-01 0.49016318E+01</pdfrwt>
<totfact> 0.37241919E+09</totfact>
</mgrwt>
</event>
<event>
 4    1  0.3858687E+006  0.4721740E+01  0.7546771E-02  0.2619018E+00
         21   -1    0    0  503  502  0.00000000000E+00  0.00000000000E+00  0.10847252727E+02  0.10847252727E+02  0.00000000000E+00 0.  1.
         21   -1    0    0  501  503 -0.00000000000E+00 -0.00000000000E+00 -0.20703033386E+01  0.20703033386E+01  0.00000000000E+00 0.  1.
          5    1    1    2  501    0  0.42107602050E+00 -0.16589906324E+00  0.49375104935E+01  0.68318253335E+01  0.47000000000E+01 0. -1.
         -5    1    1    2    0  502 -0.42107602050E+00  0.16589906324E+00  0.38394388946E+01  0.60857307317E+01  0.47000000000E+01 0. -1.
<mgrwt>
<rscale>  2 0.47217399E+01</rscale>
<asrwt>0</asrwt>
<pdfrwt beam="1">  1       21 0.16688081E-02 0.47217399E+01</pdfrwt>
<pdfrwt beam="2">  1       21 0.31850821E-03 0.47217399E+01</pdfrwt>
<totfact> 0.58705121E+09</totfact>
</mgrwt>
</event>
<event>
 4    1  0.3858687E+006  0.5645181E+01  0.7546771E-02  0.2464026E+00
         21   -1    0    0  503  502  0.00000000000E+00  0.00000000000E+00  0.20022073129E+01  0.20022073129E+01  0.00000000000E+00 0. -1.
         21   -1    0    0  501  503 -0.00000000000E+00 -0.00000000000E+00 -0.17941438582E+02  0.17941438582E+02  0.00000000000E+00 0.  1.
          5    1    1    2  501    0 -0.11694471895E+01  0.29000798455E+01 -0.11319695970E+02  0.12649252417E+02  0.47000000000E+01 0. -1.
         -5    1    1    2    0  502  0.11694471895E+01 -0.29000798455E+01 -0.46195352988E+01  0.72943934783E+01  0.47000000000E+01 0.  1.
<mgrwt>
<rscale>  2 0.56451811E+01</rscale>
<asrwt>0</asrwt>
<pdfrwt beam="1">  1       21 0.30803189E-03 0.56451811E+01</pdfrwt>
<pdfrwt beam="2">  1       21 0.27602214E-02 0.56451811E+01</pdfrwt>
<totfact> 0.36045211E+09</totfact>
</mgrwt>
</event>
<event>
 4    1  0.3858687E+006  0.8104740E+01  0.7546771E-02  0.2202204E+00
         21   -1    0    0  501  502  0.00000000000E+00  0.00000000000E+00  0.42866823932E+02  0.42866823932E+02  0.00000000000E+00 0.  1.
         21   -1    0    0  502  503 -0.00000000000E+00 -0.00000000000E+00 -0.36906098697E+01  0.36906098697E+01  0.00000000000E+00 0. -1.
          5    1    1    2  501    0 -0.51614164536E+01  0.41178384210E+01  0.37389837591E+02  0.38258159498E+02  0.47000000000E+01 0.  1.
         -5    1    1    2    0  503  0.51614164536E+01 -0.41178384210E+01  0.17863764707E+01  0.82992743035E+01  0.47000000000E+01 0. -1.
<mgrwt>
<rscale>  2 0.81047402E+01</rscale>
<asrwt>0</asrwt>
<pdfrwt beam="1">  1       21 0.65948956E-02 0.81047402E+01</pdfrwt>
<pdfrwt beam="2">  1       21 0.56778617E-03 0.81047402E+01</pdfrwt>
<totfact> 0.55702767E+08</totfact>
</mgrwt>
</event>
<event>
 4    1  0.3858687E+006  0.5346382E+01  0.7546771E-02  0.2509146E+00
         21   -1    0    0  501  502  0.00000000000E+00  0.00000000000E+00  0.74780391987E+00  0.74780391987E+00  0.00000000000E+00 0. -1.
         21   -1    0    0  502  503 -0.00000000000E+00 -0.00000000000E+00 -0.71585884233E+02  0.71585884233E+02  0.00000000000E+00 0.  1.
          5    1    1    2  501    0 -0.79183420344E+00  0.24221474477E+01 -0.10728849556E+02  0.11987160317E+02  0.47000000000E+01 0. -1.
         -5    1    1    2    0  503  0.79183420344E+00 -0.24221474477E+01 -0.60109230757E+02  0.60346527836E+02  0.47000000000E+01 0.  1.
<mgrwt>
<rscale>  2 0.53463819E+01</rscale>
<asrwt>0</asrwt>
<pdfrwt beam="1">  1       21 0.11504675E-03 0.53463819E+01</pdfrwt>
<pdfrwt beam="2">  1       21 0.11013214E-01 0.53463819E+01</pdfrwt>
<totfact> 0.16721106E+09</totfact>
</mgrwt>
</event>
<event>
 4    1  0.3858687E+006  0.5821354E+01  0.7546771E-02  0.2439271E+00
         21   -1    0    0  501  502  0.00000000000E+00  0.00000000000E+00  0.18921782485E+02  0.18921782485E+02  0.00000000000E+00 0. -1.
         21   -1    0    0  502  503 -0.00000000000E+00 -0.00000000000E+00 -0.47472705230E+01  0.47472705230E+01  0.00000000000E+00 0.  1.
          5    1    1    2  501    0 -0.17965605398E+01 -0.29275475380E+01  0.16426331488E+02  0.17427350072E+02  0.47000000000E+01 0. -1.
         -5    1    1    2    0  503  0.17965605398E+01  0.29275475380E+01 -0.22518195266E+01  0.62417029359E+01  0.47000000000E+01 0.  1.
<mgrwt>
<rscale>  2 0.58213542E+01</rscale>
<asrwt>0</asrwt>
<pdfrwt beam="1">  1       21 0.29110434E-02 0.58213542E+01</pdfrwt>
<pdfrwt beam="2">  1       21 0.73034932E-03 0.58213542E+01</pdfrwt>
<totfact> 0.10382908E+09</totfact>
</mgrwt>
</event>
<event>
 4    1  0.3858687E+006  0.5927316E+01  0.7546771E-02  0.2424981E+00
         21   -1    0    0  503  502  0.00000000000E+00  0.00000000000E+00  0.29169453424E+01  0.29169453424E+01  0.00000000000E+00 0. -1.
         21   -1    0    0  501  503 -0.00000000000E+00 -0.00000000000E+00 -0.12617960397E+02  0.12617960397E+02  0.00000000000E+00 0. -1.
          5    1    1    2  501    0  0.33116956394E+01 -0.14407444842E+01 -0.65064512119E+01  0.88015328238E+01  0.47000000000E+01 0. -1.
         -5    1    1    2    0  502 -0.33116956394E+01  0.14407444842E+01 -0.31945638428E+01  0.67333729158E+01  0.47000000000E+01 0. -1.
<mgrwt>
<rscale>  2 0.59273158E+01</rscale>
<asrwt>0</asrwt>
<pdfrwt beam="1">  1       21 0.44876083E-03 0.59273158E+01</pdfrwt>
<pdfrwt beam="2">  1       21 0.19412246E-02 0.59273158E+01</pdfrwt>
<totfact> 0.37250976E+09</totfact>
</mgrwt>
</event>
<event>
 4    1  0.3858687E+006  0.5492832E+01  0.7546771E-02  0.2486511E+00
         21   -1    0    0  501  502  0.00000000000E+00  0.00000000000E+00  0.23279862790E+03  0.23279862790E+03  0.00000000000E+00 0.  1.
         21   -1    0    0  502  503 -0.00000000000E+00 -0.00000000000E+00 -0.21178672453E+00  0.21178672453E+00  0.00000000000E+00 0.  1.
          5    1    1    2  501    0  0.27831535175E+01  0.57901458257E+00  0.18886910508E+03  0.18894896151E+03  0.47000000000E+01 0.  1.
         -5    1    1    2    0  503 -0.27831535175E+01 -0.57901458257E+00  0.43717736094E+02  0.44061453115E+02  0.47000000000E+01 0.  1.
<mgrwt>
<rscale>  2 0.54928318E+01</rscale>
<asrwt>0</asrwt>
<pdfrwt beam="1">  1       21 0.35814969E-01 0.54928318E+01</pdfrwt>
<pdfrwt beam="2">  1       21 0.32582759E-04 0.54928318E+01</pdfrwt>
<totfact> 0.13800314E+09</totfact>
</mgrwt>
</event>
<event>
 4    1  0.3858687E+006  0.5569368E+01  0.7546771E-02  0.2475085E+00
         21   -1    0    0  501  502  0.00000000000E+00  0.00000000000E+00  0.32131370349E+01  0.32131370349E+01  0.00000000000E+00 0. -1.
         21   -1    0    0  502  503 -0.00000000000E+00 -0.00000000000E+00 -0.56872767788E+02  0.56872767788E+02  0.00000000000E+00 0. -1.
          5    1    1    2  501    0 -0.78247017974E+00  0.28836790222E+01  0.54494160401E+00  0.55959651212E+01  0.47000000000E+01 0. -1.
         -5    1    1    2    0  503  0.78247017974E+00 -0.28836790222E+01 -0.54204572357E+02  0.54489939701E+02  0.47000000000E+01 0. -1.
<mgrwt>
<rscale>  2 0.55693684E+01</rscale>
<asrwt>0</asrwt>
<pdfrwt beam="1">  1       21 0.49432879E-03 0.55693684E+01</pdfrwt>
<pdfrwt beam="2">  1       21 0.87496564E-02 0.55693684E+01</pdfrwt>
<totfact> 0.33877564E+08</totfact>
</mgrwt>
</event>
<event>
 4    1  0.3858687E+006  0.6756863E+01  0.7546771E-02  0.2326226E+00
         21   -1    0    0  503  502  0.00000000000E+00  0.00000000000E+00  0.10957148846E+03  0.10957148846E+03  0.00000000000E+00 0.  1.
         21   -1    0    0  501  503 -0.00000000000E+00 -0.00000000000E+00 -0.51258197624E+00  0.51258197624E+00  0.00000000000E+00 0.  1.
          5    1    1    2  501    0  0.50310451607E+00 -0.48282592992E+01  0.78338839829E+02  0.78629695585E+02  0.47000000000E+01 0.  1.
         -5    1    1    2    0  502 -0.50310451607E+00  0.48282592992E+01  0.30720066652E+02  0.31454374849E+02  0.47000000000E+01 0.  1.
<mgrwt>
<rscale>  2 0.67568633E+01</rscale>
<asrwt>0</asrwt>
<pdfrwt beam="1">  1       21 0.16857133E-01 0.67568633E+01</pdfrwt>
<pdfrwt beam="2">  1       21 0.78858853E-04 0.67568633E+01</pdfrwt>
<totfact> 0.17254237E+09</totfact>
</mgrwt>
</event>
<event>
 4    1  0.3858687E+006  0.7386936E+01  0.7546771E-02  0.2263667E+00
         21   -1    0    0  501  502  0.00000000000E+00  0.00000000000E+00  0.11334071005E+04  0.11334071005E+04  0.00000000000E+00 0.  1.
         21   -1    0    0  502  503 -0.00000000000E+00 -0.00000000000E+00 -0.82167272801E-01  0.82167272801E-01  0.00000000000E+00 0.  1.
          5    1    1    2  501    0 -0.38502228892E+01 -0.42015001775E+01  0.93135396390E+03  0.93138325779E+03  0.47000000000E+01 0.  1.
         -5    1    1    2    0  503  0.38502228892E+01  0.42015001775E+01  0.20197096934E+03  0.20210601000E+03  0.47000000000E+01 0.  1.
<mgrwt>
<rscale>  2 0.73869358E+01</rscale>
<asrwt>0</asrwt>
<pdfrwt beam="1">  1       21 0.17435780E+00 0.73869358E+01</pdfrwt>
<pdfrwt beam="2">  1       21 0.12642027E-04 0.73869358E+01</pdfrwt>
<totfact> 0.26823111E+08</totfact>
</mgrwt>
</event>
<event>
 4    1  0.3858687E+006  0.8722876E+01  0.7546771E-02  0.2155901E+00
         21   -1    0    0  503  502  0.00000000000E+00  0.00000000000E+00  0.39230740359E+03  0.39230740359E+03  0.00000000000E+00 0. -1.
         21   -1    0    0  501  503 -0.00000000000E+00 -0.00000000000E+00 -0.36315956369E+00  0.36315956369E+00  0.00000000000E+00 0.  1.
          5    1    1    2  501    0  0.71086267397E+01 -0.18617159496E+01  0.61954997669E+02  0.62566047474E+02  0.47000000000E+01 0.  1.
         -5    1    1    2    0  502 -0.71086267397E+01  0.18617159496E+01  0.32998924636E+03  0.33010451568E+03  0.47000000000E+01 0. -1.
<mgrwt>
<rscale>  2 0.87228757E+01</rscale>
<asrwt>0</asrwt>
<pdfrwt beam="1">  1       21 0.60354646E-01 0.87228757E+01</pdfrwt>
<pdfrwt beam="2">  1       21 0.55871016E-04 0.87228757E+01</pdfrwt>
<totfact> 0.35334401E+08</totfact>
</mgrwt>
</event>
<event>
 4    1  0.3858687E+006  0.8557191E+01  0.7546771E-02  0.2167785E+00
         21   -1    0    0  503  502  0.00000000000E+00  0.00000000000E+00  0.44190017345E+01  0.44190017345E+01  0.00000000000E+00 0. -1.
         21   -1    0    0  501  503 -0.00000000000E+00 -0.00000000000E+00 -0.56438727612E+02  0.56438727612E+02  0.00000000000E+00 0.  1.
          5    1    1    2  501    0  0.70756541851E+01 -0.10347131742E+01 -0.51584534048E+02  0.52289479500E+02  0.47000000000E+01 0.  1.
         -5    1    1    2    0  502 -0.70756541851E+01  0.10347131742E+01 -0.43519182983E+00  0.85682498463E+01  0.47000000000E+01 0. -1.
<mgrwt>
<rscale>  2 0.85571907E+01</rscale>
<asrwt>0</asrwt>
<pdfrwt beam="1">  1       21 0.67984642E-03 0.85571907E+01</pdfrwt>
<pdfrwt beam="2">  1       21 0.86828812E-02 0.85571907E+01</pdfrwt>
<totfact> 0.29104095E+08</totfact>
</mgrwt>
</event>
<event>
 4    1  0.3858687E+006  0.5353965E+01  0.7546771E-02  0.2507948E+00
         21   -1    0    0  501  502  0.00000000000E+00  0.00000000000E+00  0.14074632594E+01  0.14074632594E+01  0.00000000000E+00 0.  1.
         21   -1    0    0  502  503 -0.00000000000E+00 -0.00000000000E+00 -0.20377791651E+02  0.20377791651E+02  0.00000000000E+00 0.  1.
          5    1    1    2  501    0 -0.43303802881E+00 -0.25273352620E+01 -0.97428203662E+01  0.11116991236E+02  0.47000000000E+01 0.  1.
         -5    1    1    2    0  503  0.43303802881E+00  0.25273352620E+01 -0.92275080254E+01  0.10668263674E+02  0.47000000000E+01 0.  1.
<mgrwt>
<rscale>  2 0.53539654E+01</rscale>
<asrwt>0</asrwt>
<pdfrwt beam="1">  1       21 0.21653280E-03 0.53539654E+01</pdfrwt>
<pdfrwt beam="2">  1       21 0.31350450E-02 0.53539654E+01</pdfrwt>
<totfact> 0.46069373E+09</totfact>
</mgrwt>
</event>
<event>
 4    1  0.3858687E+006  0.4854296E+01  0.7546771E-02  0.2593669E+00
         21   -1    0    0  503  502  0.00000000000E+00  0.00000000000E+00  0.42692049326E+01  0.42692049326E+01  0.00000000000E+00 0. -1.
         21   -1    0    0  501  503 -0.00000000000E+00 -0.00000000000E+00 -0.92849571561E+01  0.92849571561E+01  0.00000000000E+00 0. -1.
          5    1    1    2  501    0 -0.11470348523E+01 -0.39812343813E+00 -0.68236365817E+01  0.83741392049E+01  0.47000000000E+01 0. -1.
         -5    1    1    2    0  502  0.11470348523E+01  0.39812343813E+00  0.18078843581E+01  0.51800228838E+01  0.47000000000E+01 0. -1.
<mgrwt>
<rscale>  2 0.48542962E+01</rscale>
<asrwt>0</asrwt>
<pdfrwt beam="1">  1       21 0.65680077E-03 0.48542962E+01</pdfrwt>
<pdfrwt beam="2">  1       21 0.14284549E-02 0.48542962E+01</pdfrwt>
<totfact> 0.27983529E+09</totfact>
</mgrwt>
</event>
<event>
 4    1  0.3858687E+006  0.5334069E+01  0.7546771E-02  0.2511097E+00
         21   -1    0    0  503  502  0.00000000000E+00  0.00000000000E+00  0.23062107549E+01  0.23062107549E+01  0.00000000000E+00 0.  1.
         21   -1    0    0  501  503 -0.00000000000E+00 -0.00000000000E+00 -0.23247892082E+02  0.23247892082E+02  0.00000000000E+00 0. -1.
          5    1    1    2  501    0  0.18907515261E+01 -0.16695370034E+01 -0.19223983930E+02  0.19950284541E+02  0.47000000000E+01 0. -1.
         -5    1    1    2    0  502 -0.18907515261E+01  0.16695370034E+01 -0.17176973967E+01  0.56038182952E+01  0.47000000000E+01 0.  1.
<mgrwt>
<rscale>  2 0.53340693E+01</rscale>
<asrwt>0</asrwt>
<pdfrwt beam="1">  1       21 0.35480164E-03 0.53340693E+01</pdfrwt>
<pdfrwt beam="2">  1       21 0.35765989E-02 0.53340693E+01</pdfrwt>
<totfact> 0.19367103E+09</totfact>
</mgrwt>
</event>
<event>
 4    1  0.3858687E+006  0.6051332E+01  0.7546771E-02  0.2408790E+00
         21   -1    0    0  503  502  0.00000000000E+00  0.00000000000E+00  0.23513599447E+01  0.23513599447E+01  0.00000000000E+00 0.  1.
         21   -1    0    0  501  503 -0.00000000000E+00 -0.00000000000E+00 -0.32777947702E+02  0.32777947702E+02  0.00000000000E+00 0.  1.
          5    1    1    2  501    0  0.21033302497E+01  0.31787767924E+01 -0.27938669438E+02  0.28586498036E+02  0.47000000000E+01 0.  1.
         -5    1    1    2    0  502 -0.21033302497E+01 -0.31787767924E+01 -0.24879183201E+01  0.65428096108E+01  0.47000000000E+01 0.  1.
<mgrwt>
<rscale>  2 0.60513321E+01</rscale>
<asrwt>0</asrwt>
<pdfrwt beam="1">  1       21 0.36174772E-03 0.60513321E+01</pdfrwt>
<pdfrwt beam="2">  1       21 0.50427606E-02 0.60513321E+01</pdfrwt>
<totfact> 0.12713372E+09</totfact>
</mgrwt>
</event>
<event>
 4    1  0.3858687E+006  0.6060342E+01  0.7546771E-02  0.2407636E+00
         21   -1    0    0  503  502  0.00000000000E+00  0.00000000000E+00  0.60635022784E+00  0.60635022784E+00  0.00000000000E+00 0. -1.
         21   -1    0    0  501  503 -0.00000000000E+00 -0.00000000000E+00 -0.94490715800E+02  0.94490715800E+02  0.00000000000E+00 0. -1.
          5    1    1    2  501    0  0.37569858848E+01  0.72305181843E+00 -0.75430270650E+02  0.75673333990E+02  0.47000000000E+01 0. -1.
         -5    1    1    2    0  502 -0.37569858848E+01 -0.72305181843E+00 -0.18454094922E+02  0.19423732037E+02  0.47000000000E+01 0. -1.
<mgrwt>
<rscale>  2 0.60603421E+01</rscale>
<asrwt>0</asrwt>
<pdfrwt beam="1">  1       21 0.93284667E-04 0.60603421E+01</pdfrwt>
<pdfrwt beam="2">  1       21 0.14537031E-01 0.60603421E+01</pdfrwt>
<totfact> 0.16006250E+09</totfact>
</mgrwt>
</event>
<event>
 4    1  0.3858687E+006  0.7525249E+01  0.7546771E-02  0.2251087E+00
         21   -1    0    0  503  502  0.00000000000E+00  0.00000000000E+00  0.14422987816E+01  0.14422987816E+01  0.00000000000E+00 0. -1.
         21   -1    0    0  501  503 -0.00000000000E+00 -0.00000000000E+00 -0.51065003124E+02  0.51065003124E+02  0.00000000000E+00 0.  1.
          5    1    1    2  501    0  0.58520314446E+01  0.54138685274E+00 -0.37432558107E+02  0.38181484757E+02  0.47000000000E+01 0.  1.
         -5    1    1    2    0  502 -0.58520314446E+01 -0.54138685274E+00 -0.12190146235E+02  0.14325817149E+02  0.47000000000E+01 0. -1.
<mgrwt>
<rscale>  2 0.75252489E+01</rscale>
<asrwt>0</asrwt>
<pdfrwt beam="1">  1       21 0.22189209E-03 0.75252489E+01</pdfrwt>
<pdfrwt beam="2">  1       21 0.78561555E-02 0.75252489E+01</pdfrwt>
<totfact> 0.15082844E+09</totfact>
</mgrwt>
</event>
<event>
 4    1  0.3858687E+006  0.7877972E+01  0.7546771E-02  0.2220640E+00
         21   -1    0    0  501  502  0.00000000000E+00  0.00000000000E+00  0.12964194043E+02  0.12964194043E+02  0.00000000000E+00 0. -1.
         21   -1    0    0  502  503 -0.00000000000E+00 -0.00000000000E+00 -0.11884956835E+02  0.11884956835E+02  0.00000000000E+00 0.  1.
          5    1    1    2  501    0  0.47196083233E+01  0.42068681573E+01  0.10141198828E+02  0.12841586977E+02  0.47000000000E+01 0. -1.
         -5    1    1    2    0  503 -0.47196083233E+01 -0.42068681573E+01 -0.90619616202E+01  0.12007563901E+02  0.47000000000E+01 0.  1.
<mgrwt>
<rscale>  2 0.78779720E+01</rscale>
<asrwt>0</asrwt>
<pdfrwt beam="1">  1       21 0.19944914E-02 0.78779720E+01</pdfrwt>
<pdfrwt beam="2">  1       21 0.18284549E-02 0.78779720E+01</pdfrwt>
<totfact> 0.60855415E+08</totfact>
</mgrwt>
</event>
<event>
 4    1  0.3858687E+006  0.5299123E+01  0.7546771E-02  0.2516677E+00
         21   -1    0    0  503  502  0.00000000000E+00  0.00000000000E+00  0.37238943140E+01  0.37238943140E+01  0.00000000000E+00 0. -1.
         21   -1    0    0  501  503 -0.00000000000E+00 -0.00000000000E+00 -0.89129636951E+01  0.89129636951E+01  0.00000000000E+00 0. -1.
          5    1    1    2  501    0  0.12442326847E+01  0.21077445172E+01 -0.50737812239E+01  0.73364812977E+01  0.47000000000E+01 0. -1.
         -5    1    1    2    0  502 -0.12442326847E+01 -0.21077445172E+01 -0.11528815725E+00  0.53003767114E+01  0.47000000000E+01 0. -1.
<mgrwt>
<rscale>  2 0.52991228E+01</rscale>
<asrwt>0</asrwt>
<pdfrwt beam="1">  1       21 0.57290683E-03 0.52991228E+01</pdfrwt>
<pdfrwt beam="2">  1       21 0.13712252E-02 0.52991228E+01</pdfrwt>
<totfact> 0.39174096E+09</totfact>
</mgrwt>
</event>
<event>
 4    1  0.3858687E+006  0.6473330E+01  0.7546771E-02  0.2357610E+00
         21   -1    0    0  501  502  0.00000000000E+00  0.00000000000E+00  0.54105304132E+01  0.54105304132E+01  0.00000000000E+00 0. -1.
         21   -1    0    0  502  503 -0.00000000000E+00 -0.00000000000E+00 -0.26803998811E+02  0.26803998811E+02  0.00000000000E+00 0.  1.
          5    1    1    2  501    0 -0.25112078328E+01 -0.36753010031E+01  0.28855624087E+01  0.70873459530E+01  0.47000000000E+01 0. -1.
         -5    1    1    2    0  503  0.25112078328E+01  0.36753010031E+01 -0.24279030807E+02  0.25127183272E+02  0.47000000000E+01 0.  1.
<mgrwt>
<rscale>  2 0.64733301E+01</rscale>
<asrwt>0</asrwt>
<pdfrwt beam="1">  1       21 0.83238930E-03 0.64733301E+01</pdfrwt>
<pdfrwt beam="2">  1       21 0.41236921E-02 0.64733301E+01</pdfrwt>
<totfact> 0.56439627E+08</totfact>
</mgrwt>
</event>
<event>
 4    1  0.3858687E+006  0.6485051E+01  0.7546771E-02  0.2356267E+00
         21   -1    0    0  503  502  0.00000000000E+00  0.00000000000E+00  0.25065427670E+01  0.25065427670E+01  0.00000000000E+00 0. -1.
         21   -1    0    0  501  503 -0.00000000000E+00 -0.00000000000E+00 -0.16940739655E+02  0.16940739655E+02  0.00000000000E+00 0. -1.
          5    1    1    2  501    0 -0.20358961317E+01 -0.39775629567E+01 -0.62653545636E+01  0.90172361587E+01  0.47000000000E+01 0. -1.
         -5    1    1    2    0  502  0.20358961317E+01  0.39775629567E+01 -0.81688423243E+01  0.10430046263E+02  0.47000000000E+01 0. -1.
<mgrwt>
<rscale>  2 0.64850505E+01</rscale>
<asrwt>0</asrwt>
<pdfrwt beam="1">  1       21 0.38562196E-03 0.64850505E+01</pdfrwt>
<pdfrwt beam="2">  1       21 0.26062676E-02 0.64850505E+01</pdfrwt>
<totfact> 0.32507587E+09</totfact>
</mgrwt>
</event>
<event>
 4    1  0.3858687E+006  0.7447378E+01  0.7546771E-02  0.2258123E+00
         21   -1    0    0  501  502  0.00000000000E+00  0.00000000000E+00  0.26560255769E+01  0.26560255769E+01  0.00000000000E+00 0. -1.
         21   -1    0    0  502  503 -0.00000000000E+00 -0.00000000000E+00 -0.31549167939E+02  0.31549167939E+02  0.00000000000E+00 0.  1.
          5    1    1    2  501    0 -0.25742575993E+01 -0.51717146104E+01 -0.45019027889E+01  0.87023308900E+01  0.47000000000E+01 0. -1.
         -5    1    1    2    0  503  0.25742575993E+01  0.51717146104E+01 -0.24391239573E+02  0.25502862626E+02  0.47000000000E+01 0.  1.
<mgrwt>
<rscale>  2 0.74473777E+01</rscale>
<asrwt>0</asrwt>
<pdfrwt beam="1">  1       21 0.40861935E-03 0.74473777E+01</pdfrwt>
<pdfrwt beam="2">  1       21 0.48537178E-02 0.74473777E+01</pdfrwt>
<totfact> 0.13313710E+09</totfact>
</mgrwt>
</event>
<event>
 4    1  0.3858687E+006  0.5179157E+01  0.7546771E-02  0.2536320E+00
         21   -1    0    0  501  502  0.00000000000E+00  0.00000000000E+00  0.10199555677E+04  0.10199555677E+04  0.00000000000E+00 0. -1.
         21   -1    0    0  502  503 -0.00000000000E+00 -0.00000000000E+00 -0.32203146460E-01  0.32203146460E-01  0.00000000000E+00 0.  1.
          5    1    1    2  501    0  0.21727677641E+01  0.11288399499E+00  0.72833508759E+03  0.72835350173E+03  0.47000000000E+01 0. -1.
         -5    1    1    2    0  503 -0.21727677641E+01 -0.11288399499E+00  0.29158827695E+03  0.29163426910E+03  0.47000000000E+01 0.  1.
<mgrwt>
<rscale>  2 0.51791565E+01</rscale>
<asrwt>0</asrwt>
<pdfrwt beam="1">  1       21 0.15689037E+00 0.51791565E+01</pdfrwt>
<pdfrwt beam="2">  1       21 0.49551471E-05 0.51791565E+01</pdfrwt>
<totfact> 0.95786717E+08</totfact>
</mgrwt>
</event>
<event>
 4    1  0.3858687E+006  0.5180411E+01  0.7546771E-02  0.2536111E+00
         21   -1    0    0  503  502  0.00000000000E+00  0.00000000000E+00  0.18770523158E+01  0.18770523158E+01  0.00000000000E+00 0.  1.
         21   -1    0    0  501  503 -0.00000000000E+00 -0.00000000000E+00 -0.13078767905E+03  0.13078767905E+03  0.00000000000E+00 0.  1.
          5    1    1    2  501    0  0.20674308445E+01  0.68730582684E+00 -0.12705717074E+03  0.12716273548E+03  0.47000000000E+01 0.  1.
         -5    1    1    2    0  502 -0.20674308445E+01 -0.68730582684E+00 -0.18534560007E+01  0.55019958872E+01  0.47000000000E+01 0.  1.
<mgrwt>
<rscale>  2 0.51804111E+01</rscale>
<asrwt>0</asrwt>
<pdfrwt beam="1">  1       21 0.28877717E-03 0.51804111E+01</pdfrwt>
<pdfrwt beam="2">  1       21 0.20121189E-01 0.51804111E+01</pdfrwt>
<totfact> 0.18383935E+08</totfact>
</mgrwt>
</event>
<event>
 4    1  0.3858687E+006  0.4856515E+01  0.7546771E-02  0.2593255E+00
         21   -1    0    0  501  502  0.00000000000E+00  0.00000000000E+00  0.25274733011E+01  0.25274733011E+01  0.00000000000E+00 0.  1.
         21   -1    0    0  502  503 -0.00000000000E+00 -0.00000000000E+00 -0.12783126868E+02  0.12783126868E+02  0.00000000000E+00 0.  1.
          5    1    1    2  501    0  0.11180297925E+01 -0.49573394087E+00 -0.11500535890E+01  0.49908281893E+01  0.47000000000E+01 0.  1.
         -5    1    1    2    0  503 -0.11180297925E+01  0.49573394087E+00 -0.91055999776E+01  0.10319771979E+02  0.47000000000E+01 0.  1.
<mgrwt>
<rscale>  2 0.48565155E+01</rscale>
<asrwt>0</asrwt>
<pdfrwt beam="1">  1       21 0.38884205E-03 0.48565155E+01</pdfrwt>
<pdfrwt beam="2">  1       21 0.19666349E-02 0.48565155E+01</pdfrwt>
<totfact> 0.36613518E+09</totfact>
</mgrwt>
</event>
<event>
 4    1  0.3858687E+006  0.5333835E+01  0.7546771E-02  0.2511134E+00
         21   -1    0    0  501  502  0.00000000000E+00  0.00000000000E+00  0.58418945195E+02  0.58418945195E+02  0.00000000000E+00 0. -1.
         21   -1    0    0  502  503 -0.00000000000E+00 -0.00000000000E+00 -0.18255498918E+02  0.18255498918E+02  0.00000000000E+00 0. -1.
          5    1    1    2  501    0 -0.23377436996E+01  0.94591234348E+00  0.57904133772E+02  0.58149277757E+02  0.47000000000E+01 0. -1.
         -5    1    1    2    0  503  0.23377436996E+01 -0.94591234348E+00 -0.17740687494E+02  0.18525166356E+02  0.47000000000E+01 0. -1.
<mgrwt>
<rscale>  2 0.53338350E+01</rscale>
<asrwt>0</asrwt>
<pdfrwt beam="1">  1       21 0.89875300E-02 0.53338350E+01</pdfrwt>
<pdfrwt beam="2">  1       21 0.28085383E-02 0.53338350E+01</pdfrwt>
<totfact> 0.27301878E+07</totfact>
</mgrwt>
</event>
<event>
 4    1  0.3858687E+006  0.5748013E+01  0.7546771E-02  0.2449421E+00
         21   -1    0    0  501  502  0.00000000000E+00  0.00000000000E+00  0.13320643509E+03  0.13320643509E+03  0.00000000000E+00 0.  1.
         21   -1    0    0  502  503 -0.00000000000E+00 -0.00000000000E+00 -0.27263728916E+00  0.27263728916E+00  0.00000000000E+00 0.  1.
          5    1    1    2  501    0  0.12720372431E+01 -0.30547630433E+01  0.86515852407E+02  0.86706587833E+02  0.47000000000E+01 0.  1.
         -5    1    1    2    0  503 -0.12720372431E+01  0.30547630433E+01  0.46417945392E+02  0.46772484544E+02  0.47000000000E+01 0.  1.
<mgrwt>
<rscale>  2 0.57480132E+01</rscale>
<asrwt>0</asrwt>
<pdfrwt beam="1">  1       21 0.20493246E-01 0.57480132E+01</pdfrwt>
<pdfrwt beam="2">  1       21 0.41944305E-04 0.57480132E+01</pdfrwt>
<totfact> 0.25824320E+09</totfact>
</mgrwt>
</event>
<event>
 4    1  0.3858687E+006  0.5667762E+01  0.7546771E-02  0.2460781E+00
         21   -1    0    0  501  502  0.00000000000E+00  0.00000000000E+00  0.80957646727E+03  0.80957646727E+03  0.00000000000E+00 0.  1.
         21   -1    0    0  502  503 -0.00000000000E+00 -0.00000000000E+00 -0.54606986299E-01  0.54606986299E-01  0.00000000000E+00 0.  1.
          5    1    1    2  501    0  0.31638733452E+01  0.15305948484E+00  0.61641548791E+03  0.61644154407E+03  0.47000000000E+01 0.  1.
         -5    1    1    2    0  503 -0.31638733452E+01 -0.15305948484E+00  0.19310637238E+03  0.19318953019E+03  0.47000000000E+01 0.  1.
<mgrwt>
<rscale>  2 0.56677616E+01</rscale>
<asrwt>0</asrwt>
<pdfrwt beam="1">  1       21 0.12454061E+00 0.56677616E+01</pdfrwt>
<pdfrwt beam="2">  1       21 0.84017232E-05 0.56677616E+01</pdfrwt>
<totfact> 0.81820428E+08</totfact>
</mgrwt>
</event>
<event>
 4    1  0.3858687E+006  0.1226592E+02  0.7546771E-02  0.1965134E+00
         21   -1    0    0  501  502  0.00000000000E+00  0.00000000000E+00  0.16582746012E+03  0.16582746012E+03  0.00000000000E+00 0.  1.
         21   -1    0    0  502  503 -0.00000000000E+00 -0.00000000000E+00 -0.61880729384E+01  0.61880729384E+01  0.00000000000E+00 0. -1.
          5    1    1    2  501    0 -0.88139160336E+01  0.71188200237E+01  0.15927251702E+03  0.15974413101E+03  0.47000000000E+01 0.  1.
         -5    1    1    2    0  503  0.88139160336E+01 -0.71188200237E+01  0.36687015609E+00  0.12271402042E+02  0.47000000000E+01 0. -1.
<mgrwt>
<rscale>  2 0.12265917E+02</rscale>
<asrwt>0</asrwt>
<pdfrwt beam="1">  1       21 0.25511914E-01 0.12265917E+02</pdfrwt>
<pdfrwt beam="2">  1       21 0.95201135E-03 0.12265917E+02</pdfrwt>
<totfact> 0.36002697E+07</totfact>
</mgrwt>
</event>
<event>
 4    1  0.3858687E+006  0.7797656E+01  0.7546771E-02  0.2227377E+00
         21   -1    0    0  501  502  0.00000000000E+00  0.00000000000E+00  0.73020799024E+02  0.73020799024E+02  0.00000000000E+00 0.  1.
         21   -1    0    0  502  503 -0.00000000000E+00 -0.00000000000E+00 -0.12405995296E+01  0.12405995296E+01  0.00000000000E+00 0.  1.
          5    1    1    2  501    0  0.80439338815E+00  0.61697967546E+01  0.57181344824E+02  0.57710567807E+02  0.47000000000E+01 0.  1.
         -5    1    1    2    0  503 -0.80439338815E+00 -0.61697967546E+01  0.14598854670E+02  0.16550830746E+02  0.47000000000E+01 0.  1.
<mgrwt>
<rscale>  2 0.77976561E+01</rscale>
<asrwt>0</asrwt>
<pdfrwt beam="1">  1       21 0.11233966E-01 0.77976561E+01</pdfrwt>
<pdfrwt beam="2">  1       21 0.19086152E-03 0.77976561E+01</pdfrwt>
<totfact> 0.10908824E+09</totfact>
</mgrwt>
</event>
<event>
 4    1  0.3858687E+006  0.6680424E+01  0.7546771E-02  0.2334470E+00
         21   -1    0    0  503  502  0.00000000000E+00  0.00000000000E+00  0.69214253375E+03  0.69214253375E+03  0.00000000000E+00 0.  1.
         21   -1    0    0  501  503 -0.00000000000E+00 -0.00000000000E+00 -0.41128481430E+00  0.41128481430E+00  0.00000000000E+00 0.  1.
          5    1    1    2  501    0 -0.20050396138E+01 -0.43032403324E+01  0.27888468592E+02  0.28677425644E+02  0.47000000000E+01 0.  1.
         -5    1    1    2    0  502  0.20050396138E+01  0.43032403324E+01  0.66384278035E+03  0.66387639292E+03  0.47000000000E+01 0.  1.
<mgrwt>
<rscale>  2 0.66804237E+01</rscale>
<asrwt>0</asrwt>
<pdfrwt beam="1">  1       21 0.10648253E+00 0.66804237E+01</pdfrwt>
<pdfrwt beam="2">  1       21 0.63275141E-04 0.66804237E+01</pdfrwt>
<totfact> 0.84382167E+07</totfact>
</mgrwt>
</event>
<event>
 4    1  0.3858687E+006  0.6147038E+01  0.7546771E-02  0.2396670E+00
         21   -1    0    0  503  502  0.00000000000E+00  0.00000000000E+00  0.99513323730E+02  0.99513323730E+02  0.00000000000E+00 0.  1.
         21   -1    0    0  501  503 -0.00000000000E+00 -0.00000000000E+00 -0.73269522814E+00  0.73269522814E+00  0.00000000000E+00 0.  1.
          5    1    1    2  501    0 -0.75580508846E-01 -0.39611070895E+01  0.14600310187E+02  0.15841563665E+02  0.47000000000E+01 0.  1.
         -5    1    1    2    0  502  0.75580508846E-01  0.39611070895E+01  0.84180318315E+02  0.84404455293E+02  0.47000000000E+01 0.  1.
<mgrwt>
<rscale>  2 0.61470385E+01</rscale>
<asrwt>0</asrwt>
<pdfrwt beam="1">  1       21 0.15309731E-01 0.61470385E+01</pdfrwt>
<pdfrwt beam="2">  1       21 0.11272242E-03 0.61470385E+01</pdfrwt>
<totfact> 0.11562051E+09</totfact>
</mgrwt>
</event>
<event>
 4    1  0.3858687E+006  0.1043998E+02  0.7546771E-02  0.2050780E+00
         21   -1    0    0  503  502  0.00000000000E+00  0.00000000000E+00  0.10336218716E+01  0.10336218716E+01  0.00000000000E+00 0.  1.
         21   -1    0    0  501  503 -0.00000000000E+00 -0.00000000000E+00 -0.35473811155E+03  0.35473811155E+03  0.00000000000E+00 0. -1.
          5    1    1    2  501    0  0.92938340871E+01 -0.72644889091E+00 -0.32597375063E+03  0.32614088854E+03  0.47000000000E+01 0. -1.
         -5    1    1    2    0  502 -0.92938340871E+01  0.72644889091E+00 -0.27730739048E+02  0.29630844878E+02  0.47000000000E+01 0.  1.
<mgrwt>
<rscale>  2 0.10439975E+02</rscale>
<asrwt>0</asrwt>
<pdfrwt beam="1">  1       21 0.15901871E-03 0.10439975E+02</pdfrwt>
<pdfrwt beam="2">  1       21 0.54575106E-01 0.10439975E+02</pdfrwt>
<totfact> 0.11027721E+08</totfact>
</mgrwt>
</event>
<event>
 4    1  0.3858687E+006  0.4700139E+01  0.7546771E-02  0.2623266E+00
         21   -1    0    0  503  502  0.00000000000E+00  0.00000000000E+00  0.42216301045E+00  0.42216301045E+00  0.00000000000E+00 0.  1.
         21   -1    0    0  501  503 -0.00000000000E+00 -0.00000000000E+00 -0.67899950972E+02  0.67899950972E+02  0.00000000000E+00 0.  1.
          5    1    1    2  501    0  0.35251926027E-01  0.79692872770E-02 -0.50097872613E+02  0.50317871046E+02  0.47000000000E+01 0.  1.
         -5    1    1    2    0  502 -0.35251926027E-01 -0.79692872770E-02 -0.17379915348E+02  0.18004242937E+02  0.47000000000E+01 0.  1.
<mgrwt>
<rscale>  2 0.47001390E+01</rscale>
<asrwt>0</asrwt>
<pdfrwt beam="1">  1       21 0.64948095E-04 0.47001390E+01</pdfrwt>
<pdfrwt beam="2">  1       21 0.10446156E-01 0.47001390E+01</pdfrwt>
<totfact> 0.34132677E+09</totfact>
</mgrwt>
</event>
<event>
 4    1  0.3858687E+006  0.4821659E+01  0.7546771E-02  0.2599798E+00
         21   -1    0    0  503  502  0.00000000000E+00  0.00000000000E+00  0.30005810870E+00  0.30005810870E+00  0.00000000000E+00 0. -1.
         21   -1    0    0  501  503 -0.00000000000E+00 -0.00000000000E+00 -0.33613064283E+03  0.33613064283E+03  0.00000000000E+00 0.  1.
          5    1    1    2  501    0  0.10739137892E+01  0.71445427401E-01 -0.31547529425E+03  0.31551213871E+03  0.47000000000E+01 0.  1.
         -5    1    1    2    0  502 -0.10739137892E+01 -0.71445427401E-01 -0.20355290470E+02  0.20918562221E+02  0.47000000000E+01 0. -1.
<mgrwt>
<rscale>  2 0.48216590E+01</rscale>
<asrwt>0</asrwt>
<pdfrwt beam="1">  1       21 0.46162804E-04 0.48216590E+01</pdfrwt>
<pdfrwt beam="2">  1       21 0.51712387E-01 0.48216590E+01</pdfrwt>
<totfact> 0.41172967E+08</totfact>
</mgrwt>
</event>
<event>
 4    1  0.3858687E+006  0.7185039E+01  0.7546771E-02  0.2282734E+00
         21   -1    0    0  503  502  0.00000000000E+00  0.00000000000E+00  0.21039784538E-01  0.21039784538E-01  0.00000000000E+00 0. -1.
         21   -1    0    0  501  503 -0.00000000000E+00 -0.00000000000E+00 -0.24743324335E+04  0.24743324335E+04  0.00000000000E+00 0.  1.
          5    1    1    2  501    0  0.30123164392E+01 -0.45233538606E+01 -0.11241117475E+04  0.11241347098E+04  0.47000000000E+01 0. -1.
         -5    1    1    2    0  502 -0.30123164392E+01  0.45233538606E+01 -0.13501996462E+04  0.13502187635E+04  0.47000000000E+01 0.  1.
<mgrwt>
<rscale>  2 0.71850387E+01</rscale>
<asrwt>0</asrwt>
<pdfrwt beam="1">  1       21 0.32348198E-05 0.71850387E+01</pdfrwt>
<pdfrwt beam="2">  1       21 0.38091014E+00 0.71850387E+01</pdfrwt>
<totfact> 0.20826105E+08</totfact>
</mgrwt>
</event>
<event>
 4    1  0.3858687E+006  0.5784673E+01  0.7546771E-02  0.2444320E+00
         21   -1    0    0  503  502  0.00000000000E+00  0.00000000000E+00  0.73456891832E+02  0.73456891832E+02  0.00000000000E+00 0. -1.
         21   -1    0    0  501  503 -0.00000000000E+00 -0.00000000000E+00 -0.14171119031E+01  0.14171119031E+01  0.00000000000E+00 0.  1.
          5    1    1    2  501    0  0.31720637090E+01  0.11447503004E+01  0.51816053695E+01  0.77660463319E+01  0.47000000000E+01 0.  1.
         -5    1    1    2    0  502 -0.31720637090E+01 -0.11447503004E+01  0.66858174559E+02  0.67107957403E+02  0.47000000000E+01 0. -1.
<mgrwt>
<rscale>  2 0.57846730E+01</rscale>
<asrwt>0</asrwt>
<pdfrwt beam="1">  1       21 0.11301057E-01 0.57846730E+01</pdfrwt>
<pdfrwt beam="2">  1       21 0.21801727E-03 0.57846730E+01</pdfrwt>
<totfact> 0.72521745E+08</totfact>
</mgrwt>
</event>
<event>
 4    1  0.3858687E+006  0.6705622E+01  0.7546771E-02  0.2331736E+00
         21   -1    0    0  501  502  0.00000000000E+00  0.00000000000E+00  0.46376886931E+01  0.46376886931E+01  0.00000000000E+00 0. -1.
         21   -1    0    0  502  503 -0.00000000000E+00 -0.00000000000E+00 -0.34529537671E+02  0.34529537671E+02  0.00000000000E+00 0.  1.
          5    1    1    2  501    0  0.64981675542E+00 -0.47384700597E+01  0.16621729289E+01  0.69085584001E+01  0.47000000000E+01 0. -1.
         -5    1    1    2    0  503 -0.64981675542E+00  0.47384700597E+01 -0.31554021907E+02  0.32258667964E+02  0.47000000000E+01 0.  1.
<mgrwt>
<rscale>  2 0.67056215E+01</rscale>
<asrwt>0</asrwt>
<pdfrwt beam="1">  1       21 0.71349057E-03 0.67056215E+01</pdfrwt>
<pdfrwt beam="2">  1       21 0.53122365E-02 0.67056215E+01</pdfrwt>
<totfact> 0.49351056E+08</totfact>
</mgrwt>
</event>
<event>
 4    1  0.3858687E+006  0.7036451E+01  0.7546771E-02  0.2297335E+00
         21   -1    0    0  501  502  0.00000000000E+00  0.00000000000E+00  0.31149939802E+00  0.31149939802E+00  0.00000000000E+00 0.  1.
         21   -1    0    0  502  503 -0.00000000000E+00 -0.00000000000E+00 -0.19781018157E+03  0.19781018157E+03  0.00000000000E+00 0.  1.
          5    1    1    2  501    0  0.33500535737E+01  0.40247708928E+01 -0.14265812809E+03  0.14283155516E+03  0.47000000000E+01 0.  1.
         -5    1    1    2    0  503 -0.33500535737E+01 -0.40247708928E+01 -0.54840554075E+02  0.55290125799E+02  0.47000000000E+01 0.  1.
<mgrwt>
<rscale>  2 0.70364508E+01</rscale>
<asrwt>0</asrwt>
<pdfrwt beam="1">  1       21 0.47922959E-04 0.70364508E+01</pdfrwt>
<pdfrwt beam="2">  1       21 0.30432352E-01 0.70364508E+01</pdfrwt>
<totfact> 0.13090350E+09</totfact>
</mgrwt>
</event>
<event>
 4    1  0.3858687E+006  0.7227818E+01  0.7546771E-02  0.2278621E+00
         21   -1    0    0  503  502  0.00000000000E+00  0.00000000000E+00  0.54325755177E+01  0.54325755177E+01  0.00000000000E+00 0. -1.
         21   -1    0    0  501  503 -0.00000000000E+00 -0.00000000000E+00 -0.70092414809E+02  0.70092414809E+02  0.00000000000E+00 0. -1.
          5    1    1    2  501    0  0.54897816913E+01 -0.11685139434E+00 -0.67406484822E+02  0.67792887188E+02  0.47000000000E+01 0. -1.
         -5    1    1    2    0  502 -0.54897816913E+01  0.11685139434E+00  0.27466455309E+01  0.77321031382E+01  0.47000000000E+01 0. -1.
<mgrwt>
<rscale>  2 0.72278183E+01</rscale>
<asrwt>0</asrwt>
<pdfrwt beam="1">  1       21 0.83578086E-03 0.72278183E+01</pdfrwt>
<pdfrwt beam="2">  1       21 0.10783448E-01 0.72278183E+01</pdfrwt>
<totfact> 0.14028555E+08</totfact>
</mgrwt>
</event>
<event>
 4    1  0.3858687E+006  0.6734748E+01  0.7546771E-02  0.2328596E+00
         21   -1    0    0  501  502  0.00000000000E+00  0.00000000000E+00  0.96735926797E-01  0.96735926797E-01  0.00000000000E+00 0.  1.
         21   -1    0    0  502  503 -0.00000000000E+00 -0.00000000000E+00 -0.79176244343E+03  0.79176244343E+03  0.00000000000E+00 0.  1.
          5    1    1    2  501    0  0.35544096171E+01  0.32608284489E+01 -0.14299175277E+03  0.14315026438E+03  0.47000000000E+01 0.  1.
         -5    1    1    2    0  503 -0.35544096171E+01 -0.32608284489E+01 -0.64867395473E+03  0.64870891498E+03  0.47000000000E+01 0.  1.
<mgrwt>
<rscale>  2 0.67347479E+01</rscale>
<asrwt>0</asrwt>
<pdfrwt beam="1">  1       21 0.14883465E-04 0.67347479E+01</pdfrwt>
<pdfrwt beam="2">  1       21 0.12180130E+00 0.67347479E+01</pdfrwt>
<totfact> 0.44624518E+08</totfact>
</mgrwt>
</event>
<event>
 4    1  0.3858687E+006  0.1104772E+02  0.7546771E-02  0.2019845E+00
         21   -1    0    0  501  502  0.00000000000E+00  0.00000000000E+00  0.29304896778E+03  0.29304896778E+03  0.00000000000E+00 0. -1.
         21   -1    0    0  502  503 -0.00000000000E+00 -0.00000000000E+00 -0.48879375077E+00  0.48879375077E+00  0.00000000000E+00 0.  1.
          5    1    1    2  501    0 -0.51991039620E+01  0.85399922871E+01  0.89831942555E+02  0.90508729156E+02  0.47000000000E+01 0. -1.
         -5    1    1    2    0  503  0.51991039620E+01 -0.85399922871E+01  0.20272823147E+03  0.20302903237E+03  0.47000000000E+01 0.  1.
<mgrwt>
<rscale>  2 0.11047721E+02</rscale>
<asrwt>0</asrwt>
<pdfrwt beam="1">  1       21 0.45084316E-01 0.11047721E+02</pdfrwt>
<pdfrwt beam="2">  1       21 0.75199273E-04 0.11047721E+02</pdfrwt>
<totfact> 0.45629619E+08</totfact>
</mgrwt>
</event>
<event>
 4    1  0.3858687E+006  0.6338295E+01  0.7546771E-02  0.2373369E+00
         21   -1    0    0  503  502  0.00000000000E+00  0.00000000000E+00  0.14454436250E+01  0.14454436250E+01  0.00000000000E+00 0. -1.
         21   -1    0    0  501  503 -0.00000000000E+00 -0.00000000000E+00 -0.27898974539E+02  0.27898974539E+02  0.00000000000E+00 0. -1.
          5    1    1    2  501    0  0.39119023904E+01  0.16676346710E+01 -0.14128765122E+02  0.15485347577E+02  0.47000000000E+01 0. -1.
         -5    1    1    2    0  502 -0.39119023904E+01 -0.16676346710E+01 -0.12324765792E+02  0.13859070587E+02  0.47000000000E+01 0. -1.
<mgrwt>
<rscale>  2 0.63382952E+01</rscale>
<asrwt>0</asrwt>
<pdfrwt beam="1">  1       21 0.22237594E-03 0.63382952E+01</pdfrwt>
<pdfrwt beam="2">  1       21 0.42921500E-02 0.63382952E+01</pdfrwt>
<totfact> 0.32750126E+09</totfact>
</mgrwt>
</event>
<event>
 4    1  0.3858687E+006  0.5209665E+01  0.7546771E-02  0.2531251E+00
         21   -1    0    0  501  502  0.00000000000E+00  0.00000000000E+00  0.33686496197E+00  0.33686496197E+00  0.00000000000E+00 0.  1.
         21   -1    0    0  502  503 -0.00000000000E+00 -0.00000000000E+00 -0.83360483846E+02  0.83360483846E+02  0.00000000000E+00 0.  1.
          5    1    1    2  501    0 -0.73903966719E+00 -0.21223650545E+01 -0.33852683716E+02  0.34251201553E+02  0.47000000000E+01 0.  1.
         -5    1    1    2    0  503  0.73903966719E+00  0.21223650545E+01 -0.49170935168E+02  0.49446147255E+02  0.47000000000E+01 0.  1.
<mgrwt>
<rscale>  2 0.52096653E+01</rscale>
<asrwt>0</asrwt>
<pdfrwt beam="1">  1       21 0.51825402E-04 0.52096653E+01</pdfrwt>
<pdfrwt beam="2">  1       21 0.12824684E-01 0.52096653E+01</pdfrwt>
<totfact> 0.37327931E+09</totfact>
</mgrwt>
</event>
<event>
 4    1  0.3858687E+006  0.8207417E+01  0.7546771E-02  0.2194126E+00
         21   -1    0    0  501  502  0.00000000000E+00  0.00000000000E+00  0.13803294927E+02  0.13803294927E+02  0.00000000000E+00 0.  1.
         21   -1    0    0  502  503 -0.00000000000E+00 -0.00000000000E+00 -0.97789338823E+01  0.97789338823E+01  0.00000000000E+00 0. -1.
          5    1    1    2  501    0  0.50882552959E+01 -0.44024265466E+01  0.10357725038E+02  0.13215300580E+02  0.47000000000E+01 0.  1.
         -5    1    1    2    0  503 -0.50882552959E+01  0.44024265466E+01 -0.63333639929E+01  0.10366928230E+02  0.47000000000E+01 0. -1.
<mgrwt>
<rscale>  2 0.82074175E+01</rscale>
<asrwt>0</asrwt>
<pdfrwt beam="1">  1       21 0.21235838E-02 0.82074175E+01</pdfrwt>
<pdfrwt beam="2">  1       21 0.15044514E-02 0.82074175E+01</pdfrwt>
<totfact> 0.75684635E+08</totfact>
</mgrwt>
</event>
<event>
 4    1  0.3858687E+006  0.5533942E+01  0.7546771E-02  0.2480340E+00
         21   -1    0    0  503  502  0.00000000000E+00  0.00000000000E+00  0.29848206904E+03  0.29848206904E+03  0.00000000000E+00 0. -1.
         21   -1    0    0  501  503 -0.00000000000E+00 -0.00000000000E+00 -0.14033105185E+00  0.14033105185E+00  0.00000000000E+00 0.  1.
          5    1    1    2  501    0  0.47374541558E+00 -0.28827209248E+01  0.71749642433E+02  0.71962738302E+02  0.47000000000E+01 0.  1.
         -5    1    1    2    0  502 -0.47374541558E+00  0.28827209248E+01  0.22659209556E+03  0.22665966179E+03  0.47000000000E+01 0. -1.
<mgrwt>
<rscale>  2 0.55339421E+01</rscale>
<asrwt>0</asrwt>
<pdfrwt beam="1">  1       21 0.45919810E-01 0.55339421E+01</pdfrwt>
<pdfrwt beam="2">  1       21 0.21589632E-04 0.55339421E+01</pdfrwt>
<totfact> 0.15582916E+09</totfact>
</mgrwt>
</event>
<event>
 4    1  0.3858687E+006  0.6150249E+01  0.7546771E-02  0.2396269E+00
         21   -1    0    0  503  502  0.00000000000E+00  0.00000000000E+00  0.10598688089E+04  0.10598688089E+04  0.00000000000E+00 0.  1.
         21   -1    0    0  501  503 -0.00000000000E+00 -0.00000000000E+00 -0.82075697726E-01  0.82075697726E-01  0.00000000000E+00 0.  1.
          5    1    1    2  501    0  0.28505851417E+00  0.39565517424E+01  0.13146925341E+03  0.13161303185E+03  0.47000000000E+01 0.  1.
         -5    1    1    2    0  502 -0.28505851417E+00 -0.39565517424E+01  0.92831747976E+03  0.92833785271E+03  0.47000000000E+01 0.  1.
<mgrwt>
<rscale>  2 0.61502488E+01</rscale>
<asrwt>0</asrwt>
<pdfrwt beam="1">  1       21 0.16304578E+00 0.61502488E+01</pdfrwt>
<pdfrwt beam="2">  1       21 0.12627879E-04 0.61502488E+01</pdfrwt>
<totfact> 0.28204762E+08</totfact>
</mgrwt>
</event>
<event>
 4    1  0.3858687E+006  0.4815076E+01  0.7546771E-02  0.2601043E+00
         21   -1    0    0  503  502  0.00000000000E+00  0.00000000000E+00  0.76068744910E+00  0.76068744910E+00  0.00000000000E+00 0.  1.
         21   -1    0    0  501  503 -0.00000000000E+00 -0.00000000000E+00 -0.37828669128E+02  0.37828669128E+02  0.00000000000E+00 0.  1.
          5    1    1    2  501    0  0.41013135994E+00 -0.96267661698E+00 -0.27038757645E+02  0.27464146973E+02  0.47000000000E+01 0.  1.
         -5    1    1    2    0  502 -0.41013135994E+00  0.96267661698E+00 -0.10029224034E+02  0.11125209604E+02  0.47000000000E+01 0.  1.
<mgrwt>
<rscale>  2 0.48150757E+01</rscale>
<asrwt>0</asrwt>
<pdfrwt beam="1">  1       21 0.11702883E-03 0.48150757E+01</pdfrwt>
<pdfrwt beam="2">  1       21 0.58197955E-02 0.48150757E+01</pdfrwt>
<totfact> 0.38315252E+09</totfact>
</mgrwt>
</event>
<event>
 4    1  0.3858687E+006  0.5199343E+01  0.7546771E-02  0.2532961E+00
         21   -1    0    0  503  502  0.00000000000E+00  0.00000000000E+00  0.60419313484E+01  0.60419313484E+01  0.00000000000E+00 0. -1.
         21   -1    0    0  501  503 -0.00000000000E+00 -0.00000000000E+00 -0.72971020382E+01  0.72971020382E+01  0.00000000000E+00 0. -1.
          5    1    1    2  501    0  0.18197555378E+01  0.12773653619E+01 -0.47758115740E+01  0.70598547205E+01  0.47000000000E+01 0. -1.
         -5    1    1    2    0  502 -0.18197555378E+01 -0.12773653619E+01  0.35206408842E+01  0.62791786661E+01  0.47000000000E+01 0. -1.
<mgrwt>
<rscale>  2 0.51993435E+01</rscale>
<asrwt>0</asrwt>
<pdfrwt beam="1">  1       21 0.92952791E-03 0.51993435E+01</pdfrwt>
<pdfrwt beam="2">  1       21 0.11226311E-02 0.51993435E+01</pdfrwt>
<totfact> 0.25992765E+09</totfact>
</mgrwt>
</event>
<event>
 4    1  0.3858687E+006  0.5519912E+01  0.7546771E-02  0.2482437E+00
         21   -1    0    0  501  502  0.00000000000E+00  0.00000000000E+00  0.64807722690E-01  0.64807722690E-01  0.00000000000E+00 0. -1.
         21   -1    0    0  502  503 -0.00000000000E+00 -0.00000000000E+00 -0.48146288069E+03  0.48146288069E+03  0.00000000000E+00 0.  1.
          5    1    1    2  501    0  0.74996398516E-01 -0.28937531984E+01 -0.20379512387E+03  0.20386986522E+03  0.47000000000E+01 0. -1.
         -5    1    1    2    0  503 -0.74996398516E-01  0.28937531984E+01 -0.27760294910E+03  0.27765782319E+03  0.47000000000E+01 0.  1.
<mgrwt>
<rscale>  2 0.55199123E+01</rscale>
<asrwt>0</asrwt>
<pdfrwt beam="1">  1       21 0.99702231E-05 0.55199123E+01</pdfrwt>
<pdfrwt beam="2">  1       21 0.74072667E-01 0.55199123E+01</pdfrwt>
<totfact> 0.18046943E+09</totfact>
</mgrwt>
</event>
<event>
 4    1  0.3858687E+006  0.4808322E+01  0.7546771E-02  0.2602323E+00
         21   -1    0    0  501  502  0.00000000000E+00  0.00000000000E+00  0.82847724684E+01  0.82847724684E+01  0.00000000000E+00 0.  1.
         21   -1    0    0  502  503 -0.00000000000E+00 -0.00000000000E+00 -0.32861977036E+01  0.32861977036E+01  0.00000000000E+00 0.  1.
          5    1    1    2  501    0 -0.10101394972E+01  0.97861521788E-01  0.47459226904E+01  0.67560151617E+01  0.47000000000E+01 0.  1.
         -5    1    1    2    0  503  0.10101394972E+01 -0.97861521788E-01  0.25265207431E+00  0.48149550104E+01  0.47000000000E+01 0.  1.
<mgrwt>
<rscale>  2 0.48083218E+01</rscale>
<asrwt>0</asrwt>
<pdfrwt beam="1">  1       21 0.12745804E-02 0.48083218E+01</pdfrwt>
<pdfrwt beam="2">  1       21 0.50556888E-03 0.48083218E+01</pdfrwt>
<totfact> 0.46565019E+09</totfact>
</mgrwt>
</event>
<event>
 4    1  0.3858687E+006  0.6409416E+01  0.7546771E-02  0.2365000E+00
         21   -1    0    0  503  502  0.00000000000E+00  0.00000000000E+00  0.54492580175E+01  0.54492580175E+01  0.00000000000E+00 0.  1.
         21   -1    0    0  501  503 -0.00000000000E+00 -0.00000000000E+00 -0.90878526713E+01  0.90878526713E+01  0.00000000000E+00 0. -1.
          5    1    1    2  501    0 -0.21421670095E+01  0.37949620823E+01 -0.48202350098E+01  0.80196809321E+01  0.47000000000E+01 0. -1.
         -5    1    1    2    0  502  0.21421670095E+01 -0.37949620823E+01  0.11816403561E+01  0.65174297567E+01  0.47000000000E+01 0.  1.
<mgrwt>
<rscale>  2 0.64094163E+01</rscale>
<asrwt>0</asrwt>
<pdfrwt beam="1">  1       21 0.83834739E-03 0.64094163E+01</pdfrwt>
<pdfrwt beam="2">  1       21 0.13981312E-02 0.64094163E+01</pdfrwt>
<totfact> 0.26645244E+09</totfact>
</mgrwt>
</event>
<event>
 4    1  0.3858687E+006  0.5266147E+01  0.7546771E-02  0.2522000E+00
         21   -1    0    0  501  502  0.00000000000E+00  0.00000000000E+00  0.73795437469E+01  0.73795437469E+01  0.00000000000E+00 0. -1.
         21   -1    0    0  502  503 -0.00000000000E+00 -0.00000000000E+00 -0.71411206011E+01  0.71411206011E+01  0.00000000000E+00 0.  1.
          5    1    1    2  501    0  0.69825116551E-01 -0.23743263037E+01  0.51164751862E+01  0.73423851216E+01  0.47000000000E+01 0. -1.
         -5    1    1    2    0  503 -0.69825116551E-01  0.23743263037E+01 -0.48780520403E+01  0.71782792264E+01  0.47000000000E+01 0.  1.
<mgrwt>
<rscale>  2 0.52661467E+01</rscale>
<asrwt>0</asrwt>
<pdfrwt beam="1">  1       21 0.11353144E-02 0.52661467E+01</pdfrwt>
<pdfrwt beam="2">  1       21 0.10986339E-02 0.52661467E+01</pdfrwt>
<totfact> 0.20508090E+09</totfact>
</mgrwt>
</event>
<event>
 4    1  0.3858687E+006  0.6222882E+01  0.7546771E-02  0.2387287E+00
         21   -1    0    0  503  502  0.00000000000E+00  0.00000000000E+00  0.36505984643E+01  0.36505984643E+01  0.00000000000E+00 0. -1.
         21   -1    0    0  501  503 -0.00000000000E+00 -0.00000000000E+00 -0.12771952491E+02  0.12771952491E+02  0.00000000000E+00 0. -1.
          5    1    1    2  501    0  0.11671309083E+01 -0.39079497386E+01 -0.79408668730E+01  0.10088688339E+02  0.47000000000E+01 0. -1.
         -5    1    1    2    0  502 -0.11671309083E+01  0.39079497386E+01 -0.11804871536E+01  0.63338626158E+01  0.47000000000E+01 0. -1.
<mgrwt>
<rscale>  2 0.62228824E+01</rscale>
<asrwt>0</asrwt>
<pdfrwt beam="1">  1       21 0.56163054E-03 0.62228824E+01</pdfrwt>
<pdfrwt beam="2">  1       21 0.19649157E-02 0.62228824E+01</pdfrwt>
<totfact> 0.27979051E+09</totfact>
</mgrwt>
</event>
<event>
 4    1  0.3858687E+006  0.6060710E+01  0.7546771E-02  0.2407589E+00
         21   -1    0    0  501  502  0.00000000000E+00  0.00000000000E+00  0.38965851910E+00  0.38965851910E+00  0.00000000000E+00 0. -1.
         21   -1    0    0  502  503 -0.00000000000E+00 -0.00000000000E+00 -0.12241202655E+03  0.12241202655E+03  0.00000000000E+00 0. -1.
          5    1    1    2  501    0 -0.10137480793E+01  0.36897852059E+01 -0.31569817647E+02  0.32146315284E+02  0.47000000000E+01 0. -1.
         -5    1    1    2    0  503  0.10137480793E+01 -0.36897852059E+01 -0.90452550387E+02  0.90655369788E+02  0.47000000000E+01 0. -1.
<mgrwt>
<rscale>  2 0.60607095E+01</rscale>
<asrwt>0</asrwt>
<pdfrwt beam="1">  1       21 0.59947506E-04 0.60607095E+01</pdfrwt>
<pdfrwt beam="2">  1       21 0.18832606E-01 0.60607095E+01</pdfrwt>
<totfact> 0.19183055E+09</totfact>
</mgrwt>
</event>
<event>
 4    1  0.3858687E+006  0.4811080E+01  0.7546771E-02  0.2601800E+00
         21   -1    0    0  503  502  0.00000000000E+00  0.00000000000E+00  0.29071095078E+03  0.29071095078E+03  0.00000000000E+00 0.  1.
         21   -1    0    0  501  503 -0.00000000000E+00 -0.00000000000E+00 -0.26363645956E+00  0.26363645956E+00  0.00000000000E+00 0.  1.
          5    1    1    2  501    0  0.81691540484E+00 -0.62381129136E+00  0.23674957121E+02  0.24158851090E+02  0.47000000000E+01 0.  1.
         -5    1    1    2    0  502 -0.81691540484E+00  0.62381129136E+00  0.26677235720E+03  0.26681573615E+03  0.47000000000E+01 0.  1.
<mgrwt>
<rscale>  2 0.48110801E+01</rscale>
<asrwt>0</asrwt>
<pdfrwt beam="1">  1       21 0.44724505E-01 0.48110801E+01</pdfrwt>
<pdfrwt beam="2">  1       21 0.40559688E-04 0.48110801E+01</pdfrwt>
<totfact> 0.62960357E+08</totfact>
</mgrwt>
</event>
<event>
 4    1  0.3858687E+006  0.5593537E+01  0.7546771E-02  0.2471532E+00
         21   -1    0    0  501  502  0.00000000000E+00  0.00000000000E+00  0.14900687853E+02  0.14900687853E+02  0.00000000000E+00 0.  1.
         21   -1    0    0  502  503 -0.00000000000E+00 -0.00000000000E+00 -0.21233399115E+01  0.21233399115E+01  0.00000000000E+00 0.  1.
          5    1    1    2  501    0 -0.12920380582E+01  0.27437743818E+01  0.54914058574E+01  0.78385712022E+01  0.47000000000E+01 0.  1.
         -5    1    1    2    0  503  0.12920380582E+01 -0.27437743818E+01  0.72859420838E+01  0.91854565619E+01  0.47000000000E+01 0.  1.
<mgrwt>
<rscale>  2 0.55935374E+01</rscale>
<asrwt>0</asrwt>
<pdfrwt beam="1">  1       21 0.22924134E-02 0.55935374E+01</pdfrwt>
<pdfrwt beam="2">  1       21 0.32666769E-03 0.55935374E+01</pdfrwt>
<totfact> 0.43079815E+09</totfact>
</mgrwt>
</event>
<event>
 4    1  0.3858687E+006  0.5453054E+01  0.7546771E-02  0.2492556E+00
         21   -1    0    0  503  502  0.00000000000E+00  0.00000000000E+00  0.51126128845E+03  0.51126128845E+03  0.00000000000E+00 0. -1.
         21   -1    0    0  501  503 -0.00000000000E+00 -0.00000000000E+00 -0.16616907533E+00  0.16616907533E+00  0.00000000000E+00 0. -1.
          5    1    1    2  501    0 -0.11434668856E+01 -0.25175939207E+01  0.49386913054E+02  0.49687050392E+02  0.47000000000E+01 0. -1.
         -5    1    1    2    0  502  0.11434668856E+01  0.25175939207E+01  0.46170820632E+03  0.46174040714E+03  0.47000000000E+01 0. -1.
<mgrwt>
<rscale>  2 0.54530538E+01</rscale>
<asrwt>0</asrwt>
<pdfrwt beam="1">  1       21 0.78654324E-01 0.54530538E+01</pdfrwt>
<pdfrwt beam="2">  1       21 0.25564882E-04 0.54530538E+01</pdfrwt>
<totfact> 0.45651115E+08</totfact>
</mgrwt>
</event>
<event>
 4    1  0.3858687E+006  0.6370329E+01  0.7546771E-02  0.2369580E+00
         21   -1    0    0  501  502  0.00000000000E+00  0.00000000000E+00  0.10675958085E+02  0.10675958085E+02  0.00000000000E+00 0.  1.
         21   -1    0    0  502  503 -0.00000000000E+00 -0.00000000000E+00 -0.66913004545E+01  0.66913004545E+01  0.00000000000E+00 0. -1.
          5    1    1    2  501    0 -0.16805766448E+01 -0.39581254229E+01  0.76992909485E+01  0.99930063460E+01  0.47000000000E+01 0. -1.
         -5    1    1    2    0  503  0.16805766448E+01  0.39581254229E+01 -0.37146333181E+01  0.73742521933E+01  0.47000000000E+01 0. -1.
<mgrwt>
<rscale>  2 0.63703292E+01</rscale>
<asrwt>0</asrwt>
<pdfrwt beam="1">  1       21 0.16424551E-02 0.63703292E+01</pdfrwt>
<pdfrwt beam="2">  1       21 0.10294308E-02 0.63703292E+01</pdfrwt>
<totfact> 0.15746602E+09</totfact>
</mgrwt>
</event>
<event>
 4    1  0.3858687E+006  0.8350954E+01  0.7546771E-02  0.2183103E+00
         21   -1    0    0  501  502  0.00000000000E+00  0.00000000000E+00  0.11974241082E+00  0.11974241082E+00  0.00000000000E+00 0. -1.
         21   -1    0    0  502  503 -0.00000000000E+00 -0.00000000000E+00 -0.58396317170E+03  0.58396317170E+03  0.00000000000E+00 0.  1.
          5    1    1    2  501    0  0.36592226552E+01  0.58530786765E+01 -0.30701279654E+03  0.30712635133E+03  0.47000000000E+01 0.  1.
         -5    1    1    2    0  503 -0.36592226552E+01 -0.58530786765E+01 -0.27683063275E+03  0.27695656278E+03  0.47000000000E+01 0. -1.
<mgrwt>
<rscale>  2 0.83509545E+01</rscale>
<asrwt>0</asrwt>
<pdfrwt beam="1">  1       21 0.18421959E-04 0.83509545E+01</pdfrwt>
<pdfrwt beam="2">  1       21 0.89840246E-01 0.83509545E+01</pdfrwt>
<totfact> 0.71079788E+08</totfact>
</mgrwt>
</event>
<event>
 4    1  0.3858687E+006  0.4725300E+01  0.7546771E-02  0.2618321E+00
         21   -1    0    0  501  502  0.00000000000E+00  0.00000000000E+00  0.11149337337E+03  0.11149337337E+03  0.00000000000E+00 0. -1.
         21   -1    0    0  502  503 -0.00000000000E+00 -0.00000000000E+00 -0.22512089151E+00  0.22512089151E+00  0.00000000000E+00 0. -1.
          5    1    1    2  501    0  0.43608535176E-02 -0.48830051798E+00  0.74194356409E+02  0.74344676873E+02  0.47000000000E+01 0.  1.
         -5    1    1    2    0  503 -0.43608535176E-02  0.48830051798E+00  0.37073896066E+02  0.37373817385E+02  0.47000000000E+01 0.  1.
<mgrwt>
<rscale>  2 0.47252996E+01</rscale>
<asrwt>0</asrwt>
<pdfrwt beam="1">  1       21 0.17152783E-01 0.47252996E+01</pdfrwt>
<pdfrwt beam="2">  1       21 0.34634072E-04 0.47252996E+01</pdfrwt>
<totfact> 0.36789392E+09</totfact>
</mgrwt>
</event>
<event>
 4    1  0.3858687E+006  0.5827935E+01  0.7546771E-02  0.2438371E+00
         21   -1    0    0  503  502  0.00000000000E+00  0.00000000000E+00  0.25853498258E+03  0.25853498258E+03  0.00000000000E+00 0.  1.
         21   -1    0    0  501  503 -0.00000000000E+00 -0.00000000000E+00 -0.92883918513E+00  0.92883918513E+00  0.00000000000E+00 0.  1.
          5    1    1    2  501    0  0.34347502433E+01  0.27805322721E+00  0.85953499586E+01  0.10384838166E+02  0.47000000000E+01 0.  1.
         -5    1    1    2    0  502 -0.34347502433E+01 -0.27805322721E+00  0.24901079344E+03  0.24907898360E+03  0.47000000000E+01 0.  1.
<mgrwt>
<rscale>  2 0.58279347E+01</rscale>
<asrwt>0</asrwt>
<pdfrwt beam="1">  1       21 0.39774555E-01 0.58279347E+01</pdfrwt>
<pdfrwt beam="2">  1       21 0.14289854E-03 0.58279347E+01</pdfrwt>
<totfact> 0.16685264E+08</totfact>
</mgrwt>
</event>
<event>
 4    1  0.3858687E+006  0.5165353E+01  0.7546771E-02  0.2538631E+00
         21   -1    0    0  503  502  0.00000000000E+00  0.00000000000E+00  0.12949968047E+01  0.12949968047E+01  0.00000000000E+00 0.  1.
         21   -1    0    0  501  503 -0.00000000000E+00 -0.00000000000E+00 -0.21726778848E+02  0.21726778848E+02  0.00000000000E+00 0.  1.
          5    1    1    2  501    0 -0.13422210094E+01  0.16701238336E+01 -0.75980464141E+01  0.91875557233E+01  0.47000000000E+01 0.  1.
         -5    1    1    2    0  502  0.13422210094E+01 -0.16701238336E+01 -0.12833735629E+02  0.13834219929E+02  0.47000000000E+01 0.  1.
<mgrwt>
<rscale>  2 0.51653529E+01</rscale>
<asrwt>0</asrwt>
<pdfrwt beam="1">  1       21 0.19923028E-03 0.51653529E+01</pdfrwt>
<pdfrwt beam="2">  1       21 0.33425813E-02 0.51653529E+01</pdfrwt>
<totfact> 0.45313741E+09</totfact>
</mgrwt>
</event>
<event>
 4    1  0.3858687E+006  0.4976699E+01  0.7546771E-02  0.2571304E+00
         21   -1    0    0  503  502  0.00000000000E+00  0.00000000000E+00  0.25673613817E+03  0.25673613817E+03  0.00000000000E+00 0.  1.
         21   -1    0    0  501  503 -0.00000000000E+00 -0.00000000000E+00 -0.15411314225E+00  0.15411314225E+00  0.00000000000E+00 0.  1.
          5    1    1    2  501    0 -0.16363148455E+01 -0.28999657856E-02  0.49736943228E+02  0.49985308406E+02  0.47000000000E+01 0.  1.
         -5    1    1    2    0  502  0.16363148455E+01  0.28999657856E-02  0.20684508180E+03  0.20690494290E+03  0.47000000000E+01 0.  1.
<mgrwt>
<rscale>  2 0.49766992E+01</rscale>
<asrwt>0</asrwt>
<pdfrwt beam="1">  1       21 0.39497525E-01 0.49766992E+01</pdfrwt>
<pdfrwt beam="2">  1       21 0.23709920E-04 0.49766992E+01</pdfrwt>
<totfact> 0.16358147E+09</totfact>
</mgrwt>
</event>
<event>
 4    1  0.3858687E+006  0.9616286E+01  0.7546771E-02  0.2097506E+00
         21   -1    0    0  501  502  0.00000000000E+00  0.00000000000E+00  0.12878337737E+04  0.12878337737E+04  0.00000000000E+00 0.  1.
         21   -1    0    0  502  503 -0.00000000000E+00 -0.00000000000E+00 -0.24587215759E+00  0.24587215759E+00  0.00000000000E+00 0. -1.
          5    1    1    2  501    0 -0.50508211273E+01  0.66986680034E+01  0.11856905469E+04  0.11857295416E+04  0.47000000000E+01 0.  1.
         -5    1    1    2    0  503  0.50508211273E+01 -0.66986680034E+01  0.10189735472E+03  0.10235010428E+03  0.47000000000E+01 0. -1.
<mgrwt>
<rscale>  2 0.96162855E+01</rscale>
<asrwt>0</asrwt>
<pdfrwt beam="1">  1       21 0.19812287E+00 0.96162855E+01</pdfrwt>
<pdfrwt beam="2">  1       21 0.37827517E-04 0.96162855E+01</pdfrwt>
<totfact> 0.50722726E+07</totfact>
</mgrwt>
</event>
<event>
 4    1  0.3858687E+006  0.1009647E+02  0.7546771E-02  0.2069538E+00
         21   -1    0    0  503  502  0.00000000000E+00  0.00000000000E+00  0.64073194403E+03  0.64073194403E+03  0.00000000000E+00 0.  1.
         21   -1    0    0  501  503 -0.00000000000E+00 -0.00000000000E+00 -0.27324427306E+00  0.27324427306E+00  0.00000000000E+00 0. -1.
          5    1    1    2  501    0 -0.13519499376E+01  0.88329501005E+01  0.11307786301E+03  0.11352771414E+03  0.47000000000E+01 0. -1.
         -5    1    1    2    0  502  0.13519499376E+01 -0.88329501005E+01  0.52738083675E+03  0.52747747417E+03  0.47000000000E+01 0.  1.
<mgrwt>
<rscale>  2 0.10096473E+02</rscale>
<asrwt>0</asrwt>
<pdfrwt beam="1">  1       21 0.98572942E-01 0.10096473E+02</pdfrwt>
<pdfrwt beam="2">  1       21 0.42038094E-04 0.10096473E+02</pdfrwt>
<totfact> 0.21025871E+08</totfact>
</mgrwt>
</event>
<event>
 4    1  0.3858687E+006  0.1065190E+02  0.7546771E-02  0.2039681E+00
         21   -1    0    0  503  502  0.00000000000E+00  0.00000000000E+00  0.34354647488E+02  0.34354647488E+02  0.00000000000E+00 0. -1.
         21   -1    0    0  501  503 -0.00000000000E+00 -0.00000000000E+00 -0.34188083807E+01  0.34188083807E+01  0.00000000000E+00 0.  1.
          5    1    1    2  501    0  0.70931914967E+01  0.64077791728E+01  0.11987302171E+02  0.16036159543E+02  0.47000000000E+01 0.  1.
         -5    1    1    2    0  502 -0.70931914967E+01 -0.64077791728E+01  0.18948536936E+02  0.21737296325E+02  0.47000000000E+01 0. -1.
<mgrwt>
<rscale>  2 0.10651901E+02</rscale>
<asrwt>0</asrwt>
<pdfrwt beam="1">  1       21 0.52853301E-02 0.10651901E+02</pdfrwt>
<pdfrwt beam="2">  1       21 0.52597054E-03 0.10651901E+02</pdfrwt>
<totfact> 0.10252661E+09</totfact>
</mgrwt>
</event>
<event>
 4    1  0.3858687E+006  0.6024347E+01  0.7546771E-02  0.2412265E+00
         21   -1    0    0  501  502  0.00000000000E+00  0.00000000000E+00  0.15990975967E+02  0.15990975967E+02  0.00000000000E+00 0.  1.
         21   -1    0    0  502  503 -0.00000000000E+00 -0.00000000000E+00 -0.49895696285E+01  0.49895696285E+01  0.00000000000E+00 0.  1.
          5    1    1    2  501    0  0.34624697528E+01  0.14879736365E+01  0.13246017483E+02  0.14551623328E+02  0.47000000000E+01 0.  1.
         -5    1    1    2    0  503 -0.34624697528E+01 -0.14879736365E+01 -0.22446111441E+01  0.64289222674E+01  0.47000000000E+01 0.  1.
<mgrwt>
<rscale>  2 0.60243475E+01</rscale>
<asrwt>0</asrwt>
<pdfrwt beam="1">  1       21 0.24601501E-02 0.60243475E+01</pdfrwt>
<pdfrwt beam="2">  1       21 0.76762610E-03 0.60243475E+01</pdfrwt>
<totfact> 0.12711776E+09</totfact>
</mgrwt>
</event>
<event>
 4    1  0.3858687E+006  0.5717293E+01  0.7546771E-02  0.2453738E+00
         21   -1    0    0  503  502  0.00000000000E+00  0.00000000000E+00  0.18906421544E+02  0.18906421544E+02  0.00000000000E+00 0.  1.
         21   -1    0    0  501  503 -0.00000000000E+00 -0.00000000000E+00 -0.21591151670E+01  0.21591151670E+01  0.00000000000E+00 0.  1.
          5    1    1    2  501    0  0.11145250929E+01  0.30586399216E+01  0.36720717886E+01  0.67949654579E+01  0.47000000000E+01 0.  1.
         -5    1    1    2    0  502 -0.11145250929E+01 -0.30586399216E+01  0.13075234589E+02  0.14270571254E+02  0.47000000000E+01 0.  1.
<mgrwt>
<rscale>  2 0.57172934E+01</rscale>
<asrwt>0</asrwt>
<pdfrwt beam="1">  1       21 0.29086801E-02 0.57172934E+01</pdfrwt>
<pdfrwt beam="2">  1       21 0.33217158E-03 0.57172934E+01</pdfrwt>
<totfact> 0.30484266E+09</totfact>
</mgrwt>
</event>
<event>
 4    1  0.3858687E+006  0.9467965E+01  0.7546771E-02  0.2106594E+00
         21   -1    0    0  501  502  0.00000000000E+00  0.00000000000E+00  0.74769885205E+01  0.74769885205E+01  0.00000000000E+00 0. -1.
         21   -1    0    0  502  503 -0.00000000000E+00 -0.00000000000E+00 -0.26078025904E+02  0.26078025904E+02  0.00000000000E+00 0. -1.
          5    1    1    2  501    0 -0.13358339944E+01  0.81097410176E+01  0.30313543146E+01  0.99414013506E+01  0.47000000000E+01 0. -1.
         -5    1    1    2    0  503  0.13358339944E+01 -0.81097410176E+01 -0.21632391698E+02  0.23613613074E+02  0.47000000000E+01 0. -1.
<mgrwt>
<rscale>  2 0.94679645E+01</rscale>
<asrwt>0</asrwt>
<pdfrwt beam="1">  1       21 0.11503059E-02 0.94679645E+01</pdfrwt>
<pdfrwt beam="2">  1       21 0.40120040E-02 0.94679645E+01</pdfrwt>
<totfact> 0.47291913E+08</totfact>
</mgrwt>
</event>
<event>
 4    1  0.3858687E+006  0.4921421E+01  0.7546771E-02  0.2581285E+00
         21   -1    0    0  503  502  0.00000000000E+00  0.00000000000E+00  0.23883793642E+01  0.23883793642E+01  0.00000000000E+00 0. -1.
         21   -1    0    0  501  503 -0.00000000000E+00 -0.00000000000E+00 -0.11274980674E+02  0.11274980674E+02  0.00000000000E+00 0. -1.
          5    1    1    2  501    0 -0.12764732527E+01  0.70781238845E+00 -0.66099383437E+01  0.82408535510E+01  0.47000000000E+01 0. -1.
         -5    1    1    2    0  502  0.12764732527E+01 -0.70781238845E+00 -0.22766629663E+01  0.54225064873E+01  0.47000000000E+01 0. -1.
<mgrwt>
<rscale>  2 0.49214208E+01</rscale>
<asrwt>0</asrwt>
<pdfrwt beam="1">  1       21 0.36744298E-03 0.49214208E+01</pdfrwt>
<pdfrwt beam="2">  1       21 0.17346124E-02 0.49214208E+01</pdfrwt>
<totfact> 0.47897556E+09</totfact>
</mgrwt>
</event>
<event>
 4    1  0.3858687E+006  0.7860499E+01  0.7546771E-02  0.2222096E+00
         21   -1    0    0  501  502  0.00000000000E+00  0.00000000000E+00  0.62697593880E+02  0.62697593880E+02  0.00000000000E+00 0. -1.
         21   -1    0    0  502  503 -0.00000000000E+00 -0.00000000000E+00 -0.13648060546E+01  0.13648060546E+01  0.00000000000E+00 0.  1.
          5    1    1    2  501    0 -0.34823857979E+01  0.52507556615E+01  0.47552987731E+02  0.48198278891E+02  0.47000000000E+01 0. -1.
         -5    1    1    2    0  503  0.34823857979E+01 -0.52507556615E+01  0.13779800094E+02  0.15864121044E+02  0.47000000000E+01 0.  1.
<mgrwt>
<rscale>  2 0.78604991E+01</rscale>
<asrwt>0</asrwt>
<pdfrwt beam="1">  1       21 0.96457815E-02 0.78604991E+01</pdfrwt>
<pdfrwt beam="2">  1       21 0.20997021E-03 0.78604991E+01</pdfrwt>
<totfact> 0.12209697E+09</totfact>
</mgrwt>
</event>
<event>
 4    1  0.3858687E+006  0.4993455E+01  0.7546771E-02  0.2568316E+00
         21   -1    0    0  501  502  0.00000000000E+00  0.00000000000E+00  0.69309205888E+02  0.69309205888E+02  0.00000000000E+00 0.  1.
         21   -1    0    0  502  503 -0.00000000000E+00 -0.00000000000E+00 -0.30668902390E+01  0.30668902390E+01  0.00000000000E+00 0.  1.
          5    1    1    2  501    0 -0.13721984549E+01  0.98064312130E+00  0.67120516212E+02  0.67306004830E+02  0.47000000000E+01 0.  1.
         -5    1    1    2    0  503  0.13721984549E+01 -0.98064312130E+00 -0.87820056349E+00  0.50700912971E+01  0.47000000000E+01 0.  1.
<mgrwt>
<rscale>  2 0.49934547E+01</rscale>
<asrwt>0</asrwt>
<pdfrwt beam="1">  1       21 0.10662954E-01 0.49934547E+01</pdfrwt>
<pdfrwt beam="2">  1       21 0.47182932E-03 0.49934547E+01</pdfrwt>
<totfact> 0.24505826E+08</totfact>
</mgrwt>
</event>
<event>
 4    1  0.3858687E+006  0.1020000E+02  0.7546771E-02  0.2063781E+00
         21   -1    0    0  501  502  0.00000000000E+00  0.00000000000E+00  0.34087977439E+02  0.34087977439E+02  0.00000000000E+00 0.  1.
         21   -1    0    0  502  503 -0.00000000000E+00 -0.00000000000E+00 -0.10255779072E+02  0.10255779072E+02  0.00000000000E+00 0. -1.
          5    1    1    2  501    0 -0.27886106690E+01 -0.86124151333E+01  0.30498217541E+02  0.32158689605E+02  0.47000000000E+01 0.  1.
         -5    1    1    2    0  503  0.27886106690E+01  0.86124151333E+01 -0.66660191741E+01  0.12185066907E+02  0.47000000000E+01 0. -1.
<mgrwt>
<rscale>  2 0.10200002E+02</rscale>
<asrwt>0</asrwt>
<pdfrwt beam="1">  1       21 0.52443042E-02 0.10200002E+02</pdfrwt>
<pdfrwt beam="2">  1       21 0.15778122E-02 0.10200002E+02</pdfrwt>
<totfact> 0.20601014E+08</totfact>
</mgrwt>
</event>
<event>
 4    1  0.3858687E+006  0.9733004E+01  0.7546771E-02  0.2090509E+00
         21   -1    0    0  503  502  0.00000000000E+00  0.00000000000E+00  0.17958415255E+02  0.17958415255E+02  0.00000000000E+00 0.  1.
         21   -1    0    0  501  503 -0.00000000000E+00 -0.00000000000E+00 -0.14329468728E+02  0.14329468728E+02  0.00000000000E+00 0. -1.
          5    1    1    2  501    0  0.63367267641E+01 -0.56997599556E+01 -0.11018434024E+02  0.14701607327E+02  0.47000000000E+01 0. -1.
         -5    1    1    2    0  502 -0.63367267641E+01  0.56997599556E+01  0.14647380551E+02  0.17586276657E+02  0.47000000000E+01 0.  1.
<mgrwt>
<rscale>  2 0.97330041E+01</rscale>
<asrwt>0</asrwt>
<pdfrwt beam="1">  1       21 0.27628331E-02 0.97330041E+01</pdfrwt>
<pdfrwt beam="2">  1       21 0.22045337E-02 0.97330041E+01</pdfrwt>
<totfact> 0.32387403E+08</totfact>
</mgrwt>
</event>
<event>
 4    1  0.3858687E+006  0.1032735E+02  0.7546771E-02  0.2056823E+00
         21   -1    0    0  503  502  0.00000000000E+00  0.00000000000E+00  0.98641536985E-01  0.98641536985E-01  0.00000000000E+00 0.  1.
         21   -1    0    0  501  503 -0.00000000000E+00 -0.00000000000E+00 -0.11615640115E+04  0.11615640115E+04  0.00000000000E+00 0. -1.
          5    1    1    2  501    0 -0.79458754472E+01  0.46289568996E+01 -0.73348171837E+03  0.73355441881E+03  0.47000000000E+01 0. -1.
         -5    1    1    2    0  502  0.79458754472E+01 -0.46289568996E+01 -0.42798365163E+03  0.42810823426E+03  0.47000000000E+01 0.  1.
<mgrwt>
<rscale>  2 0.10327351E+02</rscale>
<asrwt>0</asrwt>
<pdfrwt beam="1">  1       21 0.15175371E-04 0.10327351E+02</pdfrwt>
<pdfrwt beam="2">  1       21 0.17870510E+00 0.10327351E+02</pdfrwt>
<totfact> 0.22958914E+08</totfact>
</mgrwt>
</event>
<event>
 4    1  0.3858687E+006  0.5277673E+01  0.7546771E-02  0.2520133E+00
         21   -1    0    0  503  502  0.00000000000E+00  0.00000000000E+00  0.11460727906E+03  0.11460727906E+03  0.00000000000E+00 0. -1.
         21   -1    0    0  501  503 -0.00000000000E+00 -0.00000000000E+00 -0.24320066884E+00  0.24320066884E+00  0.00000000000E+00 0.  1.
          5    1    1    2  501    0 -0.10638875685E+00  0.23984397996E+01  0.58670851079E+02  0.58907746506E+02  0.47000000000E+01 0. -1.
         -5    1    1    2    0  502  0.10638875685E+00 -0.23984397996E+01  0.55693227316E+02  0.55942733227E+02  0.47000000000E+01 0. -1.
<mgrwt>
<rscale>  2 0.52776730E+01</rscale>
<asrwt>0</asrwt>
<pdfrwt beam="1">  1       21 0.17631846E-01 0.52776730E+01</pdfrwt>
<pdfrwt beam="2">  1       21 0.37415579E-04 0.52776730E+01</pdfrwt>
<totfact> 0.35435929E+09</totfact>
</mgrwt>
</event>
<event>
 4    1  0.3858687E+006  0.6847991E+01  0.7546771E-02  0.2316597E+00
         21   -1    0    0  503  502  0.00000000000E+00  0.00000000000E+00  0.35549279829E+00  0.35549279829E+00  0.00000000000E+00 0.  1.
         21   -1    0    0  501  503 -0.00000000000E+00 -0.00000000000E+00 -0.21962565982E+03  0.21962565982E+03  0.00000000000E+00 0.  1.
          5    1    1    2  501    0 -0.48735199769E+01 -0.10265382151E+01 -0.17914377548E+03  0.17927461413E+03  0.47000000000E+01 0.  1.
         -5    1    1    2    0  502  0.48735199769E+01  0.10265382151E+01 -0.40126391547E+02  0.40706538495E+02  0.47000000000E+01 0.  1.
<mgrwt>
<rscale>  2 0.68479908E+01</rscale>
<asrwt>0</asrwt>
<pdfrwt beam="1">  1       21 0.54691109E-04 0.68479908E+01</pdfrwt>
<pdfrwt beam="2">  1       21 0.33788619E-01 0.68479908E+01</pdfrwt>
<totfact> 0.89887219E+08</totfact>
</mgrwt>
</event>
<event>
 4    1  0.3858687E+006  0.1013563E+02  0.7546771E-02  0.2067350E+00
         21   -1    0    0  501  502  0.00000000000E+00  0.00000000000E+00  0.77952440783E+01  0.77952440783E+01  0.00000000000E+00 0. -1.
         21   -1    0    0  502  503 -0.00000000000E+00 -0.00000000000E+00 -0.14287297898E+02  0.14287297898E+02  0.00000000000E+00 0.  1.
          5    1    1    2  501    0  0.22103887476E+00  0.89773095955E+01 -0.17037622645E+00  0.10137059426E+02  0.47000000000E+01 0.  1.
         -5    1    1    2    0  503 -0.22103887476E+00 -0.89773095955E+01 -0.63216775932E+01  0.11945482550E+02  0.47000000000E+01 0. -1.
<mgrwt>
<rscale>  2 0.10135628E+02</rscale>
<asrwt>0</asrwt>
<pdfrwt beam="1">  1       21 0.11992683E-02 0.10135628E+02</pdfrwt>
<pdfrwt beam="2">  1       21 0.21980458E-02 0.10135628E+02</pdfrwt>
<totfact> 0.11395200E+09</totfact>
</mgrwt>
</event>
<event>
 4    1  0.3858687E+006  0.5017848E+01  0.7546771E-02  0.2563997E+00
         21   -1    0    0  503  502  0.00000000000E+00  0.00000000000E+00  0.84747756033E+01  0.84747756033E+01  0.00000000000E+00 0.  1.
         21   -1    0    0  501  503 -0.00000000000E+00 -0.00000000000E+00 -0.29713699094E+01  0.29713699094E+01  0.00000000000E+00 0.  1.
          5    1    1    2  501    0 -0.17565810875E+01 -0.56786237696E-01  0.26903771364E+01  0.56935868246E+01  0.47000000000E+01 0.  1.
         -5    1    1    2    0  502  0.17565810875E+01  0.56786237696E-01  0.28130285575E+01  0.57525586880E+01  0.47000000000E+01 0.  1.
<mgrwt>
<rscale>  2 0.50178483E+01</rscale>
<asrwt>0</asrwt>
<pdfrwt beam="1">  1       21 0.13038116E-02 0.50178483E+01</pdfrwt>
<pdfrwt beam="2">  1       21 0.45713384E-03 0.50178483E+01</pdfrwt>
<totfact> 0.54218770E+09</totfact>
</mgrwt>
</event>
<event>
 4    1  0.3858687E+006  0.8771545E+01  0.7546771E-02  0.2152478E+00
         21   -1    0    0  501  502  0.00000000000E+00  0.00000000000E+00  0.11066726280E+03  0.11066726280E+03  0.00000000000E+00 0. -1.
         21   -1    0    0  502  503 -0.00000000000E+00 -0.00000000000E+00 -0.11629094254E+01  0.11629094254E+01  0.00000000000E+00 0.  1.
          5    1    1    2  501    0 -0.17959666254E+00 -0.74039006976E+01  0.90211205065E+02  0.90636645568E+02  0.47000000000E+01 0. -1.
         -5    1    1    2    0  503  0.17959666254E+00  0.74039006976E+01  0.19293148311E+02  0.21193526659E+02  0.47000000000E+01 0.  1.
<mgrwt>
<rscale>  2 0.87715449E+01</rscale>
<asrwt>0</asrwt>
<pdfrwt beam="1">  1       21 0.17025724E-01 0.87715449E+01</pdfrwt>
<pdfrwt beam="2">  1       21 0.17890923E-03 0.87715449E+01</pdfrwt>
<totfact> 0.65855728E+08</totfact>
</mgrwt>
</event>
<event>
 4    1  0.3858687E+006  0.4787893E+01  0.7546771E-02  0.2606215E+00
         21   -1    0    0  501  502  0.00000000000E+00  0.00000000000E+00  0.80233301262E+02  0.80233301262E+02  0.00000000000E+00 0.  1.
         21   -1    0    0  502  503 -0.00000000000E+00 -0.00000000000E+00 -0.85416860297E+00  0.85416860297E+00  0.00000000000E+00 0.  1.
          5    1    1    2  501    0 -0.91175684612E+00 -0.51199335041E-01  0.72764513395E+02  0.72921864565E+02  0.47000000000E+01 0.  1.
         -5    1    1    2    0  503  0.91175684612E+00  0.51199335041E-01  0.66146192639E+01  0.81656053006E+01  0.47000000000E+01 0.  1.
<mgrwt>
<rscale>  2 0.47878933E+01</rscale>
<asrwt>0</asrwt>
<pdfrwt beam="1">  1       21 0.12343579E-01 0.47878933E+01</pdfrwt>
<pdfrwt beam="2">  1       21 0.13141062E-03 0.47878933E+01</pdfrwt>
<totfact> 0.10614990E+09</totfact>
</mgrwt>
</event>
<event>
 4    1  0.3858687E+006  0.8861071E+01  0.7546771E-02  0.2146260E+00
         21   -1    0    0  501  502  0.00000000000E+00  0.00000000000E+00  0.51947069366E+02  0.51947069366E+02  0.00000000000E+00 0. -1.
         21   -1    0    0  502  503 -0.00000000000E+00 -0.00000000000E+00 -0.18479780645E+01  0.18479780645E+01  0.00000000000E+00 0.  1.
          5    1    1    2  501    0  0.22220556867E+01 -0.71757267804E+01  0.36526718705E+02  0.37586164551E+02  0.47000000000E+01 0. -1.
         -5    1    1    2    0  503 -0.22220556867E+01  0.71757267804E+01  0.13572372597E+02  0.16208882880E+02  0.47000000000E+01 0.  1.
<mgrwt>
<rscale>  2 0.88610714E+01</rscale>
<asrwt>0</asrwt>
<pdfrwt beam="1">  1       21 0.79918557E-02 0.88610714E+01</pdfrwt>
<pdfrwt beam="2">  1       21 0.28430436E-03 0.88610714E+01</pdfrwt>
<totfact> 0.11594169E+09</totfact>
</mgrwt>
</event>
<event>
 4    1  0.3858687E+006  0.7672881E+01  0.7546771E-02  0.2238068E+00
         21   -1    0    0  501  502  0.00000000000E+00  0.00000000000E+00  0.53633618083E+01  0.53633618083E+01  0.00000000000E+00 0. -1.
         21   -1    0    0  502  503 -0.00000000000E+00 -0.00000000000E+00 -0.15086800255E+02  0.15086800255E+02  0.00000000000E+00 0.  1.
          5    1    1    2  501    0 -0.39566938398E+01  0.45964855162E+01  0.47511413038E+00  0.76875769056E+01  0.47000000000E+01 0. -1.
         -5    1    1    2    0  503  0.39566938398E+01 -0.45964855162E+01 -0.10198552577E+02  0.12762585158E+02  0.47000000000E+01 0.  1.
<mgrwt>
<rscale>  2 0.76728812E+01</rscale>
<asrwt>0</asrwt>
<pdfrwt beam="1">  1       21 0.82513258E-03 0.76728812E+01</pdfrwt>
<pdfrwt beam="2">  1       21 0.23210462E-02 0.76728812E+01</pdfrwt>
<totfact> 0.15053940E+09</totfact>
</mgrwt>
</event>
<event>
 4    1  0.3858687E+006  0.6151375E+01  0.7546771E-02  0.2396129E+00
         21   -1    0    0  503  502  0.00000000000E+00  0.00000000000E+00  0.17382605808E+03  0.17382605808E+03  0.00000000000E+00 0. -1.
         21   -1    0    0  501  503 -0.00000000000E+00 -0.00000000000E+00 -0.21788603678E+00  0.21788603678E+00  0.00000000000E+00 0. -1.
          5    1    1    2  501    0 -0.13082959662E+01  0.37467025832E+01  0.84164276992E+02  0.84388772596E+02  0.47000000000E+01 0. -1.
         -5    1    1    2    0  502  0.13082959662E+01 -0.37467025832E+01  0.89443895047E+02  0.89655171517E+02  0.47000000000E+01 0. -1.
<mgrwt>
<rscale>  2 0.61513753E+01</rscale>
<asrwt>0</asrwt>
<pdfrwt beam="1">  1       21 0.26742360E-01 0.61513753E+01</pdfrwt>
<pdfrwt beam="2">  1       21 0.33521068E-04 0.61513753E+01</pdfrwt>
<totfact> 0.23808252E+09</totfact>
</mgrwt>
</event>
<event>
 4    1  0.3858687E+006  0.7691803E+01  0.7546771E-02  0.2236429E+00
         21   -1    0    0  503  502  0.00000000000E+00  0.00000000000E+00  0.21215718039E+03  0.21215718039E+03  0.00000000000E+00 0.  1.
         21   -1    0    0  501  503 -0.00000000000E+00 -0.00000000000E+00 -0.16386865038E+01  0.16386865038E+01  0.00000000000E+00 0. -1.
          5    1    1    2  501    0  0.17958388605E+01  0.58179724351E+01  0.78810227417E+01  0.11012463844E+02  0.47000000000E+01 0. -1.
         -5    1    1    2    0  502 -0.17958388605E+01 -0.58179724351E+01  0.20263747114E+03  0.20278340305E+03  0.47000000000E+01 0.  1.
<mgrwt>
<rscale>  2 0.76918035E+01</rscale>
<asrwt>0</asrwt>
<pdfrwt beam="1">  1       21 0.32639544E-01 0.76918035E+01</pdfrwt>
<pdfrwt beam="2">  1       21 0.25210578E-03 0.76918035E+01</pdfrwt>
<totfact> 0.12750805E+08</totfact>
</mgrwt>
</event>
<event>
 4    1  0.3858687E+006  0.4886884E+01  0.7546771E-02  0.2587620E+00
         21   -1    0    0  503  502  0.00000000000E+00  0.00000000000E+00  0.48043289857E+01  0.48043289857E+01  0.00000000000E+00 0.  1.
         21   -1    0    0  501  503 -0.00000000000E+00 -0.00000000000E+00 -0.94907996842E+01  0.94907996842E+01  0.00000000000E+00 0.  1.
          5    1    1    2  501    0 -0.68587603577E+00  0.11494389248E+01 -0.72758035559E+01  0.87646422153E+01  0.47000000000E+01 0.  1.
         -5    1    1    2    0  502  0.68587603577E+00 -0.11494389248E+01  0.25893328573E+01  0.55304864546E+01  0.47000000000E+01 0.  1.
<mgrwt>
<rscale>  2 0.48868841E+01</rscale>
<asrwt>0</asrwt>
<pdfrwt beam="1">  1       21 0.73912754E-03 0.48868841E+01</pdfrwt>
<pdfrwt beam="2">  1       21 0.14601230E-02 0.48868841E+01</pdfrwt>
<totfact> 0.23212282E+09</totfact>
</mgrwt>
</event>
<event>
 4    1  0.3858687E+006  0.5834117E+01  0.7546771E-02  0.2437527E+00
         21   -1    0    0  501  502  0.00000000000E+00  0.00000000000E+00  0.14177226787E+01  0.14177226787E+01  0.00000000000E+00 0.  1.
         21   -1    0    0  502  503 -0.00000000000E+00 -0.00000000000E+00 -0.28364762789E+02  0.28364762789E+02  0.00000000000E+00 0.  1.
          5    1    1    2  501    0 -0.24116795768E+01 -0.24760286721E+01 -0.76375208268E+01  0.96108605622E+01  0.47000000000E+01 0.  1.
         -5    1    1    2    0  503  0.24116795768E+01  0.24760286721E+01 -0.19309519284E+02  0.20171624906E+02  0.47000000000E+01 0.  1.
<mgrwt>
<rscale>  2 0.58341166E+01</rscale>
<asrwt>0</asrwt>
<pdfrwt beam="1">  1       21 0.21811118E-03 0.58341166E+01</pdfrwt>
<pdfrwt beam="2">  1       21 0.43638096E-02 0.58341166E+01</pdfrwt>
<totfact> 0.30525377E+09</totfact>
</mgrwt>
</event>
<event>
 4    1  0.3858687E+006  0.4839496E+01  0.7546771E-02  0.2596440E+00
         21   -1    0    0  501  502  0.00000000000E+00  0.00000000000E+00  0.97691606295E+02  0.97691606295E+02  0.00000000000E+00 0.  1.
         21   -1    0    0  502  503 -0.00000000000E+00 -0.00000000000E+00 -0.54478937719E+00  0.54478937719E+00  0.00000000000E+00 0.  1.
          5    1    1    2  501    0 -0.93669399750E+00 -0.67329388215E+00  0.85328050645E+02  0.85465179736E+02  0.47000000000E+01 0.  1.
         -5    1    1    2    0  503  0.93669399750E+00  0.67329388215E+00  0.11818766272E+02  0.12771215936E+02  0.47000000000E+01 0.  1.
<mgrwt>
<rscale>  2 0.48394959E+01</rscale>
<asrwt>0</asrwt>
<pdfrwt beam="1">  1       21 0.15029464E-01 0.48394959E+01</pdfrwt>
<pdfrwt beam="2">  1       21 0.83813828E-04 0.48394959E+01</pdfrwt>
<totfact> 0.14386860E+09</totfact>
</mgrwt>
</event>
<event>
 4    1  0.3858687E+006  0.7331623E+01  0.7546771E-02  0.2268805E+00
         21   -1    0    0  501  502  0.00000000000E+00  0.00000000000E+00  0.24970168612E+03  0.24970168612E+03  0.00000000000E+00 0. -1.
         21   -1    0    0  502  503 -0.00000000000E+00 -0.00000000000E+00 -0.12710776639E+01  0.12710776639E+01  0.00000000000E+00 0. -1.
          5    1    1    2  501    0  0.53763040867E+01  0.16607388331E+01  0.23858301790E+03  0.23869564120E+03  0.47000000000E+01 0. -1.
         -5    1    1    2    0  503 -0.53763040867E+01 -0.16607388331E+01  0.98475905561E+01  0.12277122581E+02  0.47000000000E+01 0. -1.
<mgrwt>
<rscale>  2 0.73316232E+01</rscale>
<asrwt>0</asrwt>
<pdfrwt beam="1">  1       21 0.38415605E-01 0.73316232E+01</pdfrwt>
<pdfrwt beam="2">  1       21 0.19555061E-03 0.73316232E+01</pdfrwt>
<totfact> 0.13276964E+08</totfact>
</mgrwt>
</event>
<event>
 4    1  0.3858687E+006  0.5387860E+01  0.7546771E-02  0.2502629E+00
         21   -1    0    0  501  502  0.00000000000E+00  0.00000000000E+00  0.65674915400E+00  0.65674915400E+00  0.00000000000E+00 0. -1.
         21   -1    0    0  502  503 -0.00000000000E+00 -0.00000000000E+00 -0.44221666698E+02  0.44221666698E+02  0.00000000000E+00 0.  1.
          5    1    1    2  501    0 -0.14745884527E+01  0.21828024122E+01 -0.22266333509E+02  0.22908920651E+02  0.47000000000E+01 0. -1.
         -5    1    1    2    0  503  0.14745884527E+01 -0.21828024122E+01 -0.21298584035E+02  0.21969495200E+02  0.47000000000E+01 0. -1.
<mgrwt>
<rscale>  2 0.53878602E+01</rscale>
<asrwt>0</asrwt>
<pdfrwt beam="1">  1       21 0.10103834E-03 0.53878602E+01</pdfrwt>
<pdfrwt beam="2">  1       21 0.68033327E-02 0.53878602E+01</pdfrwt>
<totfact> 0.41457462E+09</totfact>
</mgrwt>
</event>
<event>
 4    1  0.3858687E+006  0.8527789E+01  0.7546771E-02  0.2169933E+00
         21   -1    0    0  503  502  0.00000000000E+00  0.00000000000E+00  0.23025338156E+00  0.23025338156E+00  0.00000000000E+00 0. -1.
         21   -1    0    0  501  503 -0.00000000000E+00 -0.00000000000E+00 -0.40345924695E+03  0.40345924695E+03  0.00000000000E+00 0. -1.
          5    1    1    2  501    0 -0.20067875909E+01  0.68268580762E+01 -0.29567727774E+03  0.29580022947E+03  0.47000000000E+01 0. -1.
         -5    1    1    2    0  502  0.20067875909E+01 -0.68268580762E+01 -0.10755171583E+03  0.10788927086E+03  0.47000000000E+01 0. -1.
<mgrwt>
<rscale>  2 0.85277891E+01</rscale>
<asrwt>0</asrwt>
<pdfrwt beam="1">  1       21 0.35423367E-04 0.85277891E+01</pdfrwt>
<pdfrwt beam="2">  1       21 0.62071057E-01 0.85277891E+01</pdfrwt>
<totfact> 0.61456824E+08</totfact>
</mgrwt>
</event>
<event>
 4    1  0.3858687E+006  0.5732784E+01  0.7546771E-02  0.2451556E+00
         21   -1    0    0  503  502  0.00000000000E+00  0.00000000000E+00  0.78019169153E+02  0.78019169153E+02  0.00000000000E+00 0. -1.
         21   -1    0    0  501  503 -0.00000000000E+00 -0.00000000000E+00 -0.13043772311E+01  0.13043772311E+01  0.00000000000E+00 0. -1.
          5    1    1    2  501    0  0.26740862285E-01  0.32823918792E+01  0.57223246206E+01  0.80999883077E+01  0.47000000000E+01 0. -1.
         -5    1    1    2    0  502 -0.26740862285E-01 -0.32823918792E+01  0.70992467302E+02  0.71223558077E+02  0.47000000000E+01 0. -1.
<mgrwt>
<rscale>  2 0.57327839E+01</rscale>
<asrwt>0</asrwt>
<pdfrwt beam="1">  1       21 0.12002945E-01 0.57327839E+01</pdfrwt>
<pdfrwt beam="2">  1       21 0.20067348E-03 0.57327839E+01</pdfrwt>
<totfact> 0.73431014E+08</totfact>
</mgrwt>
</event>
<event>
 4    1  0.3858687E+006  0.6897194E+01  0.7546771E-02  0.2311485E+00
         21   -1    0    0  501  502  0.00000000000E+00  0.00000000000E+00  0.37287384949E+01  0.37287384949E+01  0.00000000000E+00 0. -1.
         21   -1    0    0  502  503 -0.00000000000E+00 -0.00000000000E+00 -0.22168282567E+02  0.22168282567E+02  0.00000000000E+00 0.  1.
          5    1    1    2  501    0 -0.23225568659E+01  0.44818542624E+01 -0.78341676441E+00  0.69415437657E+01  0.47000000000E+01 0. -1.
         -5    1    1    2    0  503  0.23225568659E+01 -0.44818542624E+01 -0.17656127308E+02  0.18955477296E+02  0.47000000000E+01 0.  1.
<mgrwt>
<rscale>  2 0.68971942E+01</rscale>
<asrwt>0</asrwt>
<pdfrwt beam="1">  1       21 0.57365208E-03 0.68971942E+01</pdfrwt>
<pdfrwt beam="2">  1       21 0.34105050E-02 0.68971942E+01</pdfrwt>
<totfact> 0.13222842E+09</totfact>
</mgrwt>
</event>
<event>
 4    1  0.3858687E+006  0.1130991E+02  0.7546771E-02  0.2007304E+00
         21   -1    0    0  501  502  0.00000000000E+00  0.00000000000E+00  0.34424353901E+01  0.34424353901E+01  0.00000000000E+00 0.  1.
         21   -1    0    0  502  503 -0.00000000000E+00 -0.00000000000E+00 -0.69674746693E+02  0.69674746693E+02  0.00000000000E+00 0. -1.
          5    1    1    2  501    0 -0.72517690080E+01  0.72962882582E+01 -0.81411630382E+01  0.13935297331E+02  0.47000000000E+01 0.  1.
         -5    1    1    2    0  503  0.72517690080E+01 -0.72962882582E+01 -0.58091148265E+02  0.59181884752E+02  0.47000000000E+01 0. -1.
<mgrwt>
<rscale>  2 0.11309906E+02</rscale>
<asrwt>0</asrwt>
<pdfrwt beam="1">  1       21 0.52960551E-03 0.11309906E+02</pdfrwt>
<pdfrwt beam="2">  1       21 0.10719191E-01 0.11309906E+02</pdfrwt>
<totfact> 0.34494323E+08</totfact>
</mgrwt>
</event>
<event>
 4    1  0.3858687E+006  0.4958509E+01  0.7546771E-02  0.2574567E+00
         21   -1    0    0  503  502  0.00000000000E+00  0.00000000000E+00  0.80255871648E+01  0.80255871648E+01  0.00000000000E+00 0.  1.
         21   -1    0    0  501  503 -0.00000000000E+00 -0.00000000000E+00 -0.35692501770E+01  0.35692501770E+01  0.00000000000E+00 0.  1.
          5    1    1    2  501    0  0.15787292009E+01  0.66525655380E-01  0.45984132832E-01  0.49587222238E+01  0.47000000000E+01 0.  1.
         -5    1    1    2    0  502 -0.15787292009E+01 -0.66525655380E-01  0.44103528550E+01  0.66361151179E+01  0.47000000000E+01 0.  1.
<mgrwt>
<rscale>  2 0.49585090E+01</rscale>
<asrwt>0</asrwt>
<pdfrwt beam="1">  1       21 0.12347057E-02 0.49585090E+01</pdfrwt>
<pdfrwt beam="2">  1       21 0.54911541E-03 0.49585090E+01</pdfrwt>
<totfact> 0.44922657E+09</totfact>
</mgrwt>
</event>
<event>
 4    1  0.3858687E+006  0.1060949E+02  0.7546771E-02  0.2041874E+00
         21   -1    0    0  503  502  0.00000000000E+00  0.00000000000E+00  0.25813852260E+03  0.25813852260E+03  0.00000000000E+00 0. -1.
         21   -1    0    0  501  503 -0.00000000000E+00 -0.00000000000E+00 -0.90845645029E+00  0.90845645029E+00  0.00000000000E+00 0.  1.
          5    1    1    2  501    0 -0.67711197424E+01  0.66800679452E+01  0.35213443144E+02  0.36777002982E+02  0.47000000000E+01 0.  1.
         -5    1    1    2    0  502  0.67711197424E+01 -0.66800679452E+01  0.22201662301E+03  0.22226997607E+03  0.47000000000E+01 0. -1.
<mgrwt>
<rscale>  2 0.10609494E+02</rscale>
<asrwt>0</asrwt>
<pdfrwt beam="1">  1       21 0.39713560E-01 0.10609494E+02</pdfrwt>
<pdfrwt beam="2">  1       21 0.13976274E-03 0.10609494E+02</pdfrwt>
<totfact> 0.23936094E+08</totfact>
</mgrwt>
</event>
<event>
 4    1  0.3858687E+006  0.7345651E+01  0.7546771E-02  0.2267496E+00
         21   -1    0    0  501  502  0.00000000000E+00  0.00000000000E+00  0.80457825596E+01  0.80457825596E+01  0.00000000000E+00 0. -1.
         21   -1    0    0  502  503 -0.00000000000E+00 -0.00000000000E+00 -0.12285569969E+02  0.12285569969E+02  0.00000000000E+00 0. -1.
          5    1    1    2  501    0 -0.39067122810E+01  0.40750691310E+01  0.47305974238E+01  0.87371128673E+01  0.47000000000E+01 0. -1.
         -5    1    1    2    0  503  0.39067122810E+01 -0.40750691310E+01 -0.89703848331E+01  0.11594239661E+02  0.47000000000E+01 0. -1.
<mgrwt>
<rscale>  2 0.73456510E+01</rscale>
<asrwt>0</asrwt>
<pdfrwt beam="1">  1       21 0.12378127E-02 0.73456510E+01</pdfrwt>
<pdfrwt beam="2">  1       21 0.18900877E-02 0.73456510E+01</pdfrwt>
<totfact> 0.11019387E+09</totfact>
</mgrwt>
</event>
<event>
 4    1  0.3858687E+006  0.6033324E+01  0.7546771E-02  0.2411107E+00
         21   -1    0    0  501  502  0.00000000000E+00  0.00000000000E+00  0.10836867505E+02  0.10836867505E+02  0.00000000000E+00 0. -1.
         21   -1    0    0  502  503 -0.00000000000E+00 -0.00000000000E+00 -0.48753561688E+01  0.48753561688E+01  0.00000000000E+00 0.  1.
          5    1    1    2  501    0 -0.26721074704E+01  0.26778420897E+01  0.73620823938E+01  0.95184690872E+01  0.47000000000E+01 0. -1.
         -5    1    1    2    0  503  0.26721074704E+01 -0.26778420897E+01 -0.14005710576E+01  0.61937545865E+01  0.47000000000E+01 0. -1.
<mgrwt>
<rscale>  2 0.60333238E+01</rscale>
<asrwt>0</asrwt>
<pdfrwt beam="1">  1       21 0.16672104E-02 0.60333238E+01</pdfrwt>
<pdfrwt beam="2">  1       21 0.75005480E-03 0.60333238E+01</pdfrwt>
<totfact> 0.22999881E+09</totfact>
</mgrwt>
</event>
<event>
 4    1  0.3858687E+006  0.4924873E+01  0.7546771E-02  0.2580656E+00
         21   -1    0    0  501  502  0.00000000000E+00  0.00000000000E+00  0.38534549731E+03  0.38534549731E+03  0.00000000000E+00 0. -1.
         21   -1    0    0  502  503 -0.00000000000E+00 -0.00000000000E+00 -0.74525022670E-01  0.74525022670E-01  0.00000000000E+00 0. -1.
          5    1    1    2  501    0  0.57140101731E+00 -0.13556826663E+01  0.26860969721E+03  0.26865484140E+03  0.47000000000E+01 0. -1.
         -5    1    1    2    0  503 -0.57140101731E+00  0.13556826663E+01  0.11666127508E+03  0.11676518093E+03  0.47000000000E+01 0. -1.
<mgrwt>
<rscale>  2 0.49248731E+01</rscale>
<asrwt>0</asrwt>
<pdfrwt beam="1">  1       21 0.59282327E-01 0.49248731E+01</pdfrwt>
<pdfrwt beam="2">  1       21 0.11465697E-04 0.49248731E+01</pdfrwt>
<totfact> 0.20684479E+09</totfact>
</mgrwt>
</event>
<event>
 4    1  0.3858687E+006  0.4764061E+01  0.7546771E-02  0.2610792E+00
         21   -1    0    0  501  502  0.00000000000E+00  0.00000000000E+00  0.48127697679E+02  0.48127697679E+02  0.00000000000E+00 0.  1.
         21   -1    0    0  502  503 -0.00000000000E+00 -0.00000000000E+00 -0.47221999251E+00  0.47221999251E+00  0.00000000000E+00 0.  1.
          5    1    1    2  501    0 -0.54557935839E+00 -0.55553542332E+00  0.22936308992E+02  0.23425852100E+02  0.47000000000E+01 0. -1.
         -5    1    1    2    0  503  0.54557935839E+00  0.55553542332E+00  0.24719168695E+02  0.25174065571E+02  0.47000000000E+01 0. -1.
<mgrwt>
<rscale>  2 0.47640609E+01</rscale>
<asrwt>0</asrwt>
<pdfrwt beam="1">  1       21 0.74042573E-02 0.47640609E+01</pdfrwt>
<pdfrwt beam="2">  1       21 0.72649268E-04 0.47640609E+01</pdfrwt>
<totfact> 0.49951440E+09</totfact>
</mgrwt>
</event>
<event>
 4    1  0.3858687E+006  0.4987152E+01  0.7546771E-02  0.2569438E+00
         21   -1    0    0  501  502  0.00000000000E+00  0.00000000000E+00  0.13808919130E+03  0.13808919130E+03  0.00000000000E+00 0.  1.
         21   -1    0    0  502  503 -0.00000000000E+00 -0.00000000000E+00 -0.18515460876E+00  0.18515460876E+00  0.00000000000E+00 0.  1.
          5    1    1    2  501    0 -0.16651111084E+01 -0.95316425465E-01  0.80360350359E+02  0.80514952587E+02  0.47000000000E+01 0.  1.
         -5    1    1    2    0  503  0.16651111084E+01  0.95316425465E-01  0.57543686334E+02  0.57759393323E+02  0.47000000000E+01 0.  1.
<mgrwt>
<rscale>  2 0.49871515E+01</rscale>
<asrwt>0</asrwt>
<pdfrwt beam="1">  1       21 0.21244409E-01 0.49871515E+01</pdfrwt>
<pdfrwt beam="2">  1       21 0.28485435E-04 0.49871515E+01</pdfrwt>
<totfact> 0.35839971E+09</totfact>
</mgrwt>
</event>
<event>
 4    1  0.3858687E+006  0.6317649E+01  0.7546771E-02  0.2375828E+00
         21   -1    0    0  503  502  0.00000000000E+00  0.00000000000E+00  0.10330689316E+00  0.10330689316E+00  0.00000000000E+00 0. -1.
         21   -1    0    0  501  503 -0.00000000000E+00 -0.00000000000E+00 -0.39329313532E+03  0.39329313532E+03  0.00000000000E+00 0. -1.
          5    1    1    2  501    0 -0.23147697002E+01  0.35305132504E+01 -0.22272859402E+03  0.22281817537E+03  0.47000000000E+01 0. -1.
         -5    1    1    2    0  502  0.23147697002E+01 -0.35305132504E+01 -0.17046123441E+03  0.17057826684E+03  0.47000000000E+01 0. -1.
<mgrwt>
<rscale>  2 0.63176485E+01</rscale>
<asrwt>0</asrwt>
<pdfrwt beam="1">  1       21 0.15893304E-04 0.63176485E+01</pdfrwt>
<pdfrwt beam="2">  1       21 0.60506880E-01 0.63176485E+01</pdfrwt>
<totfact> 0.15697328E+09</totfact>
</mgrwt>
</event>
<event>
 4    1  0.3858687E+006  0.9703918E+01  0.7546771E-02  0.2092240E+00
         21   -1    0    0  503  502  0.00000000000E+00  0.00000000000E+00  0.11920455654E+02  0.11920455654E+02  0.00000000000E+00 0. -1.
         21   -1    0    0  501  503 -0.00000000000E+00 -0.00000000000E+00 -0.87935790384E+01  0.87935790384E+01  0.00000000000E+00 0.  1.
          5    1    1    2  501    0  0.84636560245E+01  0.66525046522E+00 -0.17389781248E+01  0.98585027464E+01  0.47000000000E+01 0.  1.
         -5    1    1    2    0  502 -0.84636560245E+01 -0.66525046522E+00  0.48658547408E+01  0.10855531946E+02  0.47000000000E+01 0. -1.
<mgrwt>
<rscale>  2 0.97039184E+01</rscale>
<asrwt>0</asrwt>
<pdfrwt beam="1">  1       21 0.18339163E-02 0.97039184E+01</pdfrwt>
<pdfrwt beam="2">  1       21 0.13528583E-02 0.97039184E+01</pdfrwt>
<totfact> 0.12176574E+09</totfact>
</mgrwt>
</event>
<event>
 4    1  0.3858687E+006  0.1124840E+02  0.7546771E-02  0.2010205E+00
         21   -1    0    0  501  502  0.00000000000E+00  0.00000000000E+00  0.33535649889E+02  0.33535649889E+02  0.00000000000E+00 0. -1.
         21   -1    0    0  502  503 -0.00000000000E+00 -0.00000000000E+00 -0.40658492232E+01  0.40658492232E+01  0.00000000000E+00 0.  1.
          5    1    1    2  501    0 -0.32582910743E+01 -0.96860751825E+01  0.19781499434E+02  0.22755971370E+02  0.47000000000E+01 0. -1.
         -5    1    1    2    0  503  0.32582910743E+01  0.96860751825E+01  0.96883012318E+01  0.14845527741E+02  0.47000000000E+01 0.  1.
<mgrwt>
<rscale>  2 0.11248400E+02</rscale>
<asrwt>0</asrwt>
<pdfrwt beam="1">  1       21 0.51593306E-02 0.11248400E+02</pdfrwt>
<pdfrwt beam="2">  1       21 0.62551529E-03 0.11248400E+02</pdfrwt>
<totfact> 0.85473629E+08</totfact>
</mgrwt>
</event>
<event>
 4    1  0.3858687E+006  0.5098553E+01  0.7546771E-02  0.2549962E+00
         21   -1    0    0  501  502  0.00000000000E+00  0.00000000000E+00  0.66443555517E+03  0.66443555517E+03  0.00000000000E+00 0. -1.
         21   -1    0    0  502  503 -0.00000000000E+00 -0.00000000000E+00 -0.47435446474E-01  0.47435446474E-01  0.00000000000E+00 0. -1.
          5    1    1    2  501    0  0.10700063463E+00  0.19732691050E+01  0.47126809396E+03  0.47129567325E+03  0.47000000000E+01 0. -1.
         -5    1    1    2    0  503 -0.10700063463E+00 -0.19732691050E+01  0.19312002577E+03  0.19318731737E+03  0.47000000000E+01 0. -1.
<mgrwt>
<rscale>  2 0.50985527E+01</rscale>
<asrwt>0</asrwt>
<pdfrwt beam="1">  1       21 0.10221340E+00 0.50985527E+01</pdfrwt>
<pdfrwt beam="2">  1       21 0.72982932E-05 0.50985527E+01</pdfrwt>
<totfact> 0.13696251E+09</totfact>
</mgrwt>
</event>
<event>
 4    1  0.3858687E+006  0.9779885E+01  0.7546771E-02  0.2087735E+00
         21   -1    0    0  503  502  0.00000000000E+00  0.00000000000E+00  0.18034259873E+04  0.18034259873E+04  0.00000000000E+00 0.  1.
         21   -1    0    0  501  503 -0.00000000000E+00 -0.00000000000E+00 -0.36005649404E+00  0.36005649404E+00  0.00000000000E+00 0. -1.
          5    1    1    2  501    0  0.72875855108E+01 -0.45218643876E+01  0.68708414654E+02  0.69400953916E+02  0.47000000000E+01 0. -1.
         -5    1    1    2    0  502 -0.72875855108E+01  0.45218643876E+01  0.17343575162E+04  0.17343850899E+04  0.47000000000E+01 0.  1.
<mgrwt>
<rscale>  2 0.97798855E+01</rscale>
<asrwt>0</asrwt>
<pdfrwt beam="1">  1       21 0.27744292E+00 0.97798855E+01</pdfrwt>
<pdfrwt beam="2">  1       21 0.55394751E-04 0.97798855E+01</pdfrwt>
<totfact> 0.13020703E+07</totfact>
</mgrwt>
</event>
<event>
 4    1  0.3858687E+006  0.5725723E+01  0.7546771E-02  0.2452549E+00
         21   -1    0    0  501  502  0.00000000000E+00  0.00000000000E+00  0.36416986108E+00  0.36416986108E+00  0.00000000000E+00 0. -1.
         21   -1    0    0  502  503 -0.00000000000E+00 -0.00000000000E+00 -0.15387122145E+03  0.15387122145E+03  0.00000000000E+00 0.  1.
          5    1    1    2  501    0 -0.27195204835E+00 -0.32588253940E+01 -0.27077421784E+02  0.27676175157E+02  0.47000000000E+01 0. -1.
         -5    1    1    2    0  503  0.27195204835E+00  0.32588253940E+01 -0.12642962981E+03  0.12655921615E+03  0.47000000000E+01 0.  1.
<mgrwt>
<rscale>  2 0.57257227E+01</rscale>
<asrwt>0</asrwt>
<pdfrwt beam="1">  1       21 0.56026216E-04 0.57257227E+01</pdfrwt>
<pdfrwt beam="2">  1       21 0.23672460E-01 0.57257227E+01</pdfrwt>
<totfact> 0.13842214E+09</totfact>
</mgrwt>
</event>
<event>
 4    1  0.3858687E+006  0.6248947E+01  0.7546771E-02  0.2384107E+00
         21   -1    0    0  503  502  0.00000000000E+00  0.00000000000E+00  0.13128147916E+02  0.13128147916E+02  0.00000000000E+00 0.  1.
         21   -1    0    0  501  503 -0.00000000000E+00 -0.00000000000E+00 -0.38269787929E+01  0.38269787929E+01  0.00000000000E+00 0.  1.
          5    1    1    2  501    0 -0.25149666697E-01  0.41180951469E+01  0.64937475826E+00  0.62825972114E+01  0.47000000000E+01 0.  1.
         -5    1    1    2    0  502  0.25149666697E-01 -0.41180951469E+01  0.86517943653E+01  0.10672529498E+02  0.47000000000E+01 0.  1.
<mgrwt>
<rscale>  2 0.62489471E+01</rscale>
<asrwt>0</asrwt>
<pdfrwt beam="1">  1       21 0.20197150E-02 0.62489471E+01</pdfrwt>
<pdfrwt beam="2">  1       21 0.58876598E-03 0.62489471E+01</pdfrwt>
<totfact> 0.25268571E+09</totfact>
</mgrwt>
</event>
<event>
 4    1  0.3858687E+006  0.7306847E+01  0.7546771E-02  0.2271128E+00
         21   -1    0    0  501  502  0.00000000000E+00  0.00000000000E+00  0.33492742532E+02  0.33492742532E+02  0.00000000000E+00 0. -1.
         21   -1    0    0  502  503 -0.00000000000E+00 -0.00000000000E+00 -0.24704112834E+01  0.24704112834E+01  0.00000000000E+00 0.  1.
          5    1    1    2  501    0 -0.54774289183E+01  0.11392043059E+01  0.26220883221E+02  0.27219932603E+02  0.47000000000E+01 0. -1.
         -5    1    1    2    0  503  0.54774289183E+01 -0.11392043059E+01  0.48014480268E+01  0.87432212119E+01  0.47000000000E+01 0.  1.
<mgrwt>
<rscale>  2 0.73068471E+01</rscale>
<asrwt>0</asrwt>
<pdfrwt beam="1">  1       21 0.51527293E-02 0.73068471E+01</pdfrwt>
<pdfrwt beam="2">  1       21 0.38006330E-03 0.73068471E+01</pdfrwt>
<totfact> 0.13282886E+09</totfact>
</mgrwt>
</event>
<event>
 4    1  0.3858687E+006  0.6073444E+01  0.7546771E-02  0.2405962E+00
         21   -1    0    0  503  502  0.00000000000E+00  0.00000000000E+00  0.80100095457E+01  0.80100095457E+01  0.00000000000E+00 0. -1.
         21   -1    0    0  501  503 -0.00000000000E+00 -0.00000000000E+00 -0.55997392139E+01  0.55997392139E+01  0.00000000000E+00 0. -1.
          5    1    1    2  501    0 -0.23218553625E+01 -0.30668735536E+01  0.40730986198E+01  0.73127872993E+01  0.47000000000E+01 0. -1.
         -5    1    1    2    0  502  0.23218553625E+01  0.30668735536E+01 -0.16628282880E+01  0.62969614604E+01  0.47000000000E+01 0. -1.
<mgrwt>
<rscale>  2 0.60734443E+01</rscale>
<asrwt>0</asrwt>
<pdfrwt beam="1">  1       21 0.12323092E-02 0.60734443E+01</pdfrwt>
<pdfrwt beam="2">  1       21 0.86149834E-03 0.60734443E+01</pdfrwt>
<totfact> 0.29289653E+09</totfact>
</mgrwt>
</event>
<event>
 4    1  0.3858687E+006  0.5530081E+01  0.7546771E-02  0.2480916E+00
         21   -1    0    0  503  502  0.00000000000E+00  0.00000000000E+00  0.51479534338E+03  0.51479534338E+03  0.00000000000E+00 0. -1.
         21   -1    0    0  501  503 -0.00000000000E+00 -0.00000000000E+00 -0.72467986479E-01  0.72467986479E-01  0.00000000000E+00 0.  1.
          5    1    1    2  501    0 -0.27151649927E+01  0.10581492561E+01  0.14806613277E+03  0.14816936753E+03  0.47000000000E+01 0. -1.
         -5    1    1    2    0  502  0.27151649927E+01 -0.10581492561E+01  0.36665674262E+03  0.36669844384E+03  0.47000000000E+01 0. -1.
<mgrwt>
<rscale>  2 0.55300814E+01</rscale>
<asrwt>0</asrwt>
<pdfrwt beam="1">  1       21 0.79196355E-01 0.55300814E+01</pdfrwt>
<pdfrwt beam="2">  1       21 0.11149333E-04 0.55300814E+01</pdfrwt>
<totfact> 0.13702997E+09</totfact>
</mgrwt>
</event>
<event>
 4    1  0.3858687E+006  0.1431394E+02  0.7546771E-02  0.1889755E+00
         21   -1    0    0  501  502  0.00000000000E+00  0.00000000000E+00  0.76794062554E+02  0.76794062554E+02  0.00000000000E+00 0. -1.
         21   -1    0    0  502  503 -0.00000000000E+00 -0.00000000000E+00 -0.95646086420E+01  0.95646086420E+01  0.00000000000E+00 0.  1.
          5    1    1    2  501    0  0.68240194501E+01  0.11671830255E+02  0.70280361009E+02  0.71723204101E+02  0.47000000000E+01 0. -1.
         -5    1    1    2    0  503 -0.68240194501E+01 -0.11671830255E+02 -0.30509070973E+01  0.14635467095E+02  0.47000000000E+01 0.  1.
<mgrwt>
<rscale>  2 0.14313939E+02</rscale>
<asrwt>0</asrwt>
<pdfrwt beam="1">  1       21 0.11814471E-01 0.14313939E+02</pdfrwt>
<pdfrwt beam="2">  1       21 0.14714783E-02 0.14313939E+02</pdfrwt>
<totfact> 0.72842743E+07</totfact>
</mgrwt>
</event>
<event>
 4    1  0.3858687E+006  0.5666758E+01  0.7546771E-02  0.2460924E+00
         21   -1    0    0  503  502  0.00000000000E+00  0.00000000000E+00  0.23799627351E+03  0.23799627351E+03  0.00000000000E+00 0.  1.
         21   -1    0    0  501  503 -0.00000000000E+00 -0.00000000000E+00 -0.81412133127E+00  0.81412133127E+00  0.00000000000E+00 0.  1.
          5    1    1    2  501    0 -0.25677715075E+01 -0.18516738176E+01  0.95285232670E+01  0.11086248333E+02  0.47000000000E+01 0.  1.
         -5    1    1    2    0  502  0.25677715075E+01  0.18516738176E+01  0.22765362891E+03  0.22772414651E+03  0.47000000000E+01 0.  1.
<mgrwt>
<rscale>  2 0.56667580E+01</rscale>
<asrwt>0</asrwt>
<pdfrwt beam="1">  1       21 0.36614756E-01 0.56667580E+01</pdfrwt>
<pdfrwt beam="2">  1       21 0.12524963E-03 0.56667580E+01</pdfrwt>
<totfact> 0.22559060E+08</totfact>
</mgrwt>
</event>
<event>
 4    1  0.3858687E+006  0.8078402E+01  0.7546771E-02  0.2204302E+00
         21   -1    0    0  503  502  0.00000000000E+00  0.00000000000E+00  0.54152362773E+00  0.54152362773E+00  0.00000000000E+00 0. -1.
         21   -1    0    0  501  503 -0.00000000000E+00 -0.00000000000E+00 -0.22126580681E+03  0.22126580681E+03  0.00000000000E+00 0. -1.
          5    1    1    2  501    0 -0.51083576781E+01 -0.41322221741E+01 -0.18519934618E+03  0.18537545254E+03  0.47000000000E+01 0. -1.
         -5    1    1    2    0  502  0.51083576781E+01  0.41322221741E+01 -0.35524937001E+02  0.36431877898E+02  0.47000000000E+01 0. -1.
<mgrwt>
<rscale>  2 0.80784020E+01</rscale>
<asrwt>0</asrwt>
<pdfrwt beam="1">  1       21 0.83311254E-04 0.80784020E+01</pdfrwt>
<pdfrwt beam="2">  1       21 0.34040923E-01 0.80784020E+01</pdfrwt>
<totfact> 0.55731060E+08</totfact>
</mgrwt>
</event>
<event>
 4    1  0.3858687E+006  0.4948391E+01  0.7546771E-02  0.2576391E+00
         21   -1    0    0  501  502  0.00000000000E+00  0.00000000000E+00  0.97930126768E+01  0.97930126768E+01  0.00000000000E+00 0. -1.
         21   -1    0    0  502  503 -0.00000000000E+00 -0.00000000000E+00 -0.32834221401E+01  0.32834221401E+01  0.00000000000E+00 0. -1.
          5    1    1    2  501    0 -0.47342902937E+00  0.14739186159E+01  0.64476529149E+01  0.81276564423E+01  0.47000000000E+01 0. -1.
         -5    1    1    2    0  503  0.47342902937E+00 -0.14739186159E+01  0.61937621857E-01  0.49487783746E+01  0.47000000000E+01 0. -1.
<mgrwt>
<rscale>  2 0.49483908E+01</rscale>
<asrwt>0</asrwt>
<pdfrwt beam="1">  1       21 0.15066173E-02 0.49483908E+01</pdfrwt>
<pdfrwt beam="2">  1       21 0.50514187E-03 0.49483908E+01</pdfrwt>
<totfact> 0.38019746E+09</totfact>
</mgrwt>
</event>
<event>
 4    1  0.3858687E+006  0.1177197E+02  0.7546771E-02  0.1986263E+00
         21   -1    0    0  503  502  0.00000000000E+00  0.00000000000E+00  0.50319772074E+02  0.50319772074E+02  0.00000000000E+00 0. -1.
         21   -1    0    0  501  503 -0.00000000000E+00 -0.00000000000E+00 -0.35374478457E+01  0.35374478457E+01  0.00000000000E+00 0. -1.
          5    1    1    2  501    0 -0.92463825343E+01  0.55671876873E+01  0.10718083465E+02  0.15920316639E+02  0.47000000000E+01 0. -1.
         -5    1    1    2    0  502  0.92463825343E+01 -0.55671876873E+01  0.36064240763E+02  0.37936903280E+02  0.47000000000E+01 0. -1.
<mgrwt>
<rscale>  2 0.11771965E+02</rscale>
<asrwt>0</asrwt>
<pdfrwt beam="1">  1       21 0.77415029E-02 0.11771965E+02</pdfrwt>
<pdfrwt beam="2">  1       21 0.54422278E-03 0.11771965E+02</pdfrwt>
<totfact> 0.56779770E+08</totfact>
</mgrwt>
</event>
<event>
 4    1  0.3858687E+006  0.6499522E+01  0.7546771E-02  0.2354616E+00
         21   -1    0    0  501  502  0.00000000000E+00  0.00000000000E+00  0.86423191058E+02  0.86423191058E+02  0.00000000000E+00 0. -1.
         21   -1    0    0  502  503 -0.00000000000E+00 -0.00000000000E+00 -0.60054896033E+00  0.60054896033E+00  0.00000000000E+00 0. -1.
          5    1    1    2  501    0 -0.23823254616E+01  0.38050382914E+01  0.61680801187E+02  0.62022294589E+02  0.47000000000E+01 0. -1.
         -5    1    1    2    0  503  0.23823254616E+01 -0.38050382914E+01  0.24141840911E+02  0.25001445429E+02  0.47000000000E+01 0. -1.
<mgrwt>
<rscale>  2 0.64995224E+01</rscale>
<asrwt>0</asrwt>
<pdfrwt beam="1">  1       21 0.13295866E-01 0.64995224E+01</pdfrwt>
<pdfrwt beam="2">  1       21 0.92392216E-04 0.64995224E+01</pdfrwt>
<totfact> 0.19729748E+09</totfact>
</mgrwt>
</event>
<event>
 4    1  0.3858687E+006  0.6470065E+01  0.7546771E-02  0.2357984E+00
         21   -1    0    0  501  502  0.00000000000E+00  0.00000000000E+00  0.55734169061E+00  0.55734169061E+00  0.00000000000E+00 0.  1.
         21   -1    0    0  502  503 -0.00000000000E+00 -0.00000000000E+00 -0.28757499135E+03  0.28757499135E+03  0.00000000000E+00 0. -1.
          5    1    1    2  501    0  0.22379720374E+01 -0.38422931478E+01 -0.19677506322E+02  0.20713908143E+02  0.47000000000E+01 0.  1.
         -5    1    1    2    0  503 -0.22379720374E+01  0.38422931478E+01 -0.26734014333E+03  0.26741842490E+03  0.47000000000E+01 0. -1.
<mgrwt>
<rscale>  2 0.64700646E+01</rscale>
<asrwt>0</asrwt>
<pdfrwt beam="1">  1       21 0.85744678E-04 0.64700646E+01</pdfrwt>
<pdfrwt beam="2">  1       21 0.44242408E-01 0.64700646E+01</pdfrwt>
<totfact> 0.29480529E+08</totfact>
</mgrwt>
</event>
<event>
 4    1  0.3858687E+006  0.5029735E+01  0.7546771E-02  0.2561906E+00
         21   -1    0    0  501  502  0.00000000000E+00  0.00000000000E+00  0.28704669679E-01  0.28704669679E-01  0.00000000000E+00 0. -1.
         21   -1    0    0  502  503 -0.00000000000E+00 -0.00000000000E+00 -0.24033212309E+04  0.24033212309E+04  0.00000000000E+00 0.  1.
          5    1    1    2  501    0 -0.20263760590E+00  0.17796545280E+01 -0.24536103357E+03  0.24541258123E+03  0.47000000000E+01 0. -1.
         -5    1    1    2    0  503  0.20263760590E+00 -0.17796545280E+01 -0.21579314926E+04  0.21579373543E+04  0.47000000000E+01 0.  1.
<mgrwt>
<rscale>  2 0.50297348E+01</rscale>
<asrwt>0</asrwt>
<pdfrwt beam="1">  1       21 0.44166893E-05 0.50297348E+01</pdfrwt>
<pdfrwt beam="2">  1       21 0.36969265E+00 0.50297348E+01</pdfrwt>
<totfact> 0.13977710E+08</totfact>
</mgrwt>
</event>
<event>
 4    1  0.3858687E+006  0.5131888E+01  0.7546771E-02  0.2544276E+00
         21   -1    0    0  503  502  0.00000000000E+00  0.00000000000E+00  0.16655226110E+00  0.16655226110E+00  0.00000000000E+00 0.  1.
         21   -1    0    0  501  503 -0.00000000000E+00 -0.00000000000E+00 -0.26336469187E+03  0.26336469187E+03  0.00000000000E+00 0.  1.
          5    1    1    2  501    0  0.18966849436E+01 -0.80551958246E+00 -0.21489248251E+03  0.21495375157E+03  0.47000000000E+01 0.  1.
         -5    1    1    2    0  502 -0.18966849436E+01  0.80551958246E+00 -0.48305657104E+02  0.48577492564E+02  0.47000000000E+01 0.  1.
<mgrwt>
<rscale>  2 0.51318881E+01</rscale>
<asrwt>0</asrwt>
<pdfrwt beam="1">  1       21 0.25623428E-04 0.51318881E+01</pdfrwt>
<pdfrwt beam="2">  1       21 0.40517639E-01 0.51318881E+01</pdfrwt>
<totfact> 0.14509837E+09</totfact>
</mgrwt>
</event>
<event>
 4    1  0.3858687E+006  0.4887634E+01  0.7546771E-02  0.2587482E+00
         21   -1    0    0  503  502  0.00000000000E+00  0.00000000000E+00  0.17047890947E+01  0.17047890947E+01  0.00000000000E+00 0.  1.
         21   -1    0    0  501  503 -0.00000000000E+00 -0.00000000000E+00 -0.14058272046E+02  0.14058272046E+02  0.00000000000E+00 0.  1.
          5    1    1    2  501    0  0.45536263652E-01 -0.13404838769E+01 -0.57287898916E+01  0.75304717115E+01  0.47000000000E+01 0.  1.
         -5    1    1    2    0  502 -0.45536263652E-01  0.13404838769E+01 -0.66246930600E+01  0.82325894295E+01  0.47000000000E+01 0.  1.
<mgrwt>
<rscale>  2 0.48876345E+01</rscale>
<asrwt>0</asrwt>
<pdfrwt beam="1">  1       21 0.26227525E-03 0.48876345E+01</pdfrwt>
<pdfrwt beam="2">  1       21 0.21628111E-02 0.48876345E+01</pdfrwt>
<totfact> 0.54988143E+09</totfact>
</mgrwt>
</event>
<event>
 4    1  0.3858687E+006  0.5839750E+01  0.7546771E-02  0.2436759E+00
         21   -1    0    0  503  502  0.00000000000E+00  0.00000000000E+00  0.61258628728E+01  0.61258628728E+01  0.00000000000E+00 0.  1.
         21   -1    0    0  501  503 -0.00000000000E+00 -0.00000000000E+00 -0.12293294122E+02  0.12293294122E+02  0.00000000000E+00 0.  1.
          5    1    1    2  501    0 -0.28187728579E+01 -0.20167292153E+01 -0.98960122859E+01  0.11490593384E+02  0.47000000000E+01 0.  1.
         -5    1    1    2    0  502  0.28187728579E+01  0.20167292153E+01  0.37285810371E+01  0.69285636104E+01  0.47000000000E+01 0.  1.
<mgrwt>
<rscale>  2 0.58397498E+01</rscale>
<asrwt>0</asrwt>
<pdfrwt beam="1">  1       21 0.94244046E-03 0.58397498E+01</pdfrwt>
<pdfrwt beam="2">  1       21 0.18912760E-02 0.58397498E+01</pdfrwt>
<totfact> 0.13549337E+09</totfact>
</mgrwt>
</event>
<event>
 4    1  0.3858687E+006  0.4744534E+01  0.7546771E-02  0.2614572E+00
         21   -1    0    0  503  502  0.00000000000E+00  0.00000000000E+00  0.32900233857E+02  0.32900233857E+02  0.00000000000E+00 0. -1.
         21   -1    0    0  501  503 -0.00000000000E+00 -0.00000000000E+00 -0.68809780342E+00  0.68809780342E+00  0.00000000000E+00 0. -1.
          5    1    1    2  501    0  0.36871629389E+00 -0.53352408578E+00  0.14843359235E+02  0.15583193288E+02  0.47000000000E+01 0.  1.
         -5    1    1    2    0  502 -0.36871629389E+00  0.53352408578E+00  0.17368776818E+02  0.18005138373E+02  0.47000000000E+01 0.  1.
<mgrwt>
<rscale>  2 0.47445337E+01</rscale>
<asrwt>0</asrwt>
<pdfrwt beam="1">  1       21 0.50615732E-02 0.47445337E+01</pdfrwt>
<pdfrwt beam="2">  1       21 0.10586123E-03 0.47445337E+01</pdfrwt>
<totfact> 0.52834920E+09</totfact>
</mgrwt>
</event>
<event>
 4    1  0.3858687E+006  0.1201453E+02  0.7546771E-02  0.1975720E+00
         21   -1    0    0  503  502  0.00000000000E+00  0.00000000000E+00  0.73498382890E+03  0.73498382890E+03  0.00000000000E+00 0.  1.
         21   -1    0    0  501  503 -0.00000000000E+00 -0.00000000000E+00 -0.22861267403E+00  0.22861267403E+00  0.00000000000E+00 0. -1.
          5    1    1    2  501    0  0.84130809050E+01 -0.71748810400E+01  0.22938233530E+03  0.22969676662E+03  0.47000000000E+01 0. -1.
         -5    1    1    2    0  502 -0.84130809050E+01  0.71748810400E+01  0.50537288092E+03  0.50551567495E+03  0.47000000000E+01 0. -1.
<mgrwt>
<rscale>  2 0.12014527E+02</rscale>
<asrwt>0</asrwt>
<pdfrwt beam="1">  1       21 0.11307254E+00 0.12014527E+02</pdfrwt>
<pdfrwt beam="2">  1       21 0.35171769E-04 0.12014527E+02</pdfrwt>
<totfact> 0.21524432E+08</totfact>
</mgrwt>
</event>
<event>
 4    1  0.3858687E+006  0.5445269E+01  0.7546771E-02  0.2493748E+00
         21   -1    0    0  503  502  0.00000000000E+00  0.00000000000E+00  0.65549510308E+01  0.65549510308E+01  0.00000000000E+00 0.  1.
         21   -1    0    0  501  503 -0.00000000000E+00 -0.00000000000E+00 -0.61808470663E+01  0.61808470663E+01  0.00000000000E+00 0.  1.
          5    1    1    2  501    0 -0.52223989629E+00  0.26996696605E+01 -0.31104593926E+01  0.62710372681E+01  0.47000000000E+01 0.  1.
         -5    1    1    2    0  502  0.52223989629E+00 -0.26996696605E+01  0.34845633571E+01  0.64647608289E+01  0.47000000000E+01 0.  1.
<mgrwt>
<rscale>  2 0.54452687E+01</rscale>
<asrwt>0</asrwt>
<pdfrwt beam="1">  1       21 0.10084540E-02 0.54452687E+01</pdfrwt>
<pdfrwt beam="2">  1       21 0.95089955E-03 0.54452687E+01</pdfrwt>
<totfact> 0.30634297E+09</totfact>
</mgrwt>
</event>
<event>
 4    1  0.3858687E+006  0.5131479E+01  0.7546771E-02  0.2544345E+00
         21   -1    0    0  501  502  0.00000000000E+00  0.00000000000E+00  0.14422945890E+01  0.14422945890E+01  0.00000000000E+00 0.  1.
         21   -1    0    0  502  503 -0.00000000000E+00 -0.00000000000E+00 -0.23443103757E+02  0.23443103757E+02  0.00000000000E+00 0.  1.
          5    1    1    2  501    0  0.17623454123E+01 -0.10659327739E+01 -0.51481300073E+01  0.72687905874E+01  0.47000000000E+01 0.  1.
         -5    1    1    2    0  503 -0.17623454123E+01  0.10659327739E+01 -0.16852679160E+02  0.17616607758E+02  0.47000000000E+01 0.  1.
<mgrwt>
<rscale>  2 0.51314787E+01</rscale>
<asrwt>0</asrwt>
<pdfrwt beam="1">  1       21 0.22189149E-03 0.51314787E+01</pdfrwt>
<pdfrwt beam="2">  1       21 0.36066311E-02 0.51314787E+01</pdfrwt>
<totfact> 0.34871179E+09</totfact>
</mgrwt>
</event>
<event>
 4    1  0.3858687E+006  0.6949148E+01  0.7546771E-02  0.2306151E+00
         21   -1    0    0  501  502  0.00000000000E+00  0.00000000000E+00  0.92619316702E+03  0.92619316702E+03  0.00000000000E+00 0.  1.
         21   -1    0    0  502  503 -0.00000000000E+00 -0.00000000000E+00 -0.62733061391E-01  0.62733061391E-01  0.00000000000E+00 0. -1.
          5    1    1    2  501    0 -0.40840659049E+01 -0.30856216281E+01  0.65338629062E+03  0.65342324372E+03  0.47000000000E+01 0.  1.
         -5    1    1    2    0  503  0.40840659049E+01  0.30856216281E+01  0.27274414333E+03  0.27283265636E+03  0.47000000000E+01 0. -1.
<mgrwt>
<rscale>  2 0.69491478E+01</rscale>
<asrwt>0</asrwt>
<pdfrwt beam="1">  1       21 0.14248031E+00 0.69491478E+01</pdfrwt>
<pdfrwt beam="2">  1       21 0.96519820E-05 0.69491478E+01</pdfrwt>
<totfact> 0.58028926E+08</totfact>
</mgrwt>
</event>
<event>
 4    1  0.3858687E+006  0.5265788E+01  0.7546771E-02  0.2522058E+00
         21   -1    0    0  503  502  0.00000000000E+00  0.00000000000E+00  0.11359134789E+01  0.11359134789E+01  0.00000000000E+00 0. -1.
         21   -1    0    0  501  503 -0.00000000000E+00 -0.00000000000E+00 -0.27689282587E+02  0.27689282587E+02  0.00000000000E+00 0.  1.
          5    1    1    2  501    0  0.23611067483E+01 -0.25239055563E+00 -0.83173357759E+01  0.98441150176E+01  0.47000000000E+01 0. -1.
         -5    1    1    2    0  502 -0.23611067483E+01  0.25239055563E+00 -0.18236033332E+02  0.18981081048E+02  0.47000000000E+01 0.  1.
<mgrwt>
<rscale>  2 0.52657883E+01</rscale>
<asrwt>0</asrwt>
<pdfrwt beam="1">  1       21 0.17475595E-03 0.52657883E+01</pdfrwt>
<pdfrwt beam="2">  1       21 0.42598890E-02 0.52657883E+01</pdfrwt>
<totfact> 0.38776644E+09</totfact>
</mgrwt>
</event>
<event>
 4    1  0.3858687E+006  0.4746476E+01  0.7546771E-02  0.2614194E+00
         21   -1    0    0  503  502  0.00000000000E+00  0.00000000000E+00  0.82036785194E+01  0.82036785194E+01  0.00000000000E+00 0. -1.
         21   -1    0    0  501  503 -0.00000000000E+00 -0.00000000000E+00 -0.27103391978E+02  0.27103391978E+02  0.00000000000E+00 0. -1.
          5    1    1    2  501    0 -0.26780764662E+00  0.60606140173E+00 -0.26185151968E+02  0.26611862298E+02  0.47000000000E+01 0. -1.
         -5    1    1    2    0  502  0.26780764662E+00 -0.60606140173E+00  0.72854385096E+01  0.86952081996E+01  0.47000000000E+01 0. -1.
<mgrwt>
<rscale>  2 0.47464757E+01</rscale>
<asrwt>0</asrwt>
<pdfrwt beam="1">  1       21 0.12621044E-02 0.47464757E+01</pdfrwt>
<pdfrwt beam="2">  1       21 0.41697525E-02 0.47464757E+01</pdfrwt>
<totfact> 0.24104169E+08</totfact>
</mgrwt>
</event>
<event>
 4    1  0.3858687E+006  0.5100099E+01  0.7546771E-02  0.2549697E+00
         21   -1    0    0  503  502  0.00000000000E+00  0.00000000000E+00  0.62045797588E+01  0.62045797588E+01  0.00000000000E+00 0. -1.
         21   -1    0    0  501  503 -0.00000000000E+00 -0.00000000000E+00 -0.41955120809E+01  0.41955120809E+01  0.00000000000E+00 0. -1.
          5    1    1    2  501    0 -0.19679691220E+01 -0.21933584177E+00  0.85903943159E+00  0.51719396189E+01  0.47000000000E+01 0. -1.
         -5    1    1    2    0  502  0.19679691220E+01  0.21933584177E+00  0.11500282463E+01  0.52281522208E+01  0.47000000000E+01 0. -1.
<mgrwt>
<rscale>  2 0.51000991E+01</rscale>
<asrwt>0</asrwt>
<pdfrwt beam="1">  1       21 0.95455073E-03 0.51000991E+01</pdfrwt>
<pdfrwt beam="2">  1       21 0.64546340E-03 0.51000991E+01</pdfrwt>
<totfact> 0.53065133E+09</totfact>
</mgrwt>
</event>
<event>
 4    1  0.3858687E+006  0.4777671E+01  0.7546771E-02  0.2608173E+00
         21   -1    0    0  503  502  0.00000000000E+00  0.00000000000E+00  0.10445689526E+01  0.10445689526E+01  0.00000000000E+00 0.  1.
         21   -1    0    0  501  503 -0.00000000000E+00 -0.00000000000E+00 -0.30500020834E+02  0.30500020834E+02  0.00000000000E+00 0.  1.
          5    1    1    2  501    0  0.76171098091E+00 -0.39488799877E+00 -0.23126152137E+02  0.23614509371E+02  0.47000000000E+01 0.  1.
         -5    1    1    2    0  502 -0.76171098091E+00  0.39488799877E+00 -0.63292997441E+01  0.79300804158E+01  0.47000000000E+01 0.  1.
<mgrwt>
<rscale>  2 0.47776710E+01</rscale>
<asrwt>0</asrwt>
<pdfrwt beam="1">  1       21 0.16070292E-03 0.47776710E+01</pdfrwt>
<pdfrwt beam="2">  1       21 0.46923108E-02 0.47776710E+01</pdfrwt>
<totfact> 0.34112016E+09</totfact>
</mgrwt>
</event>
<event>
 4    1  0.3858687E+006  0.6146731E+01  0.7546771E-02  0.2396709E+00
         21   -1    0    0  503  502  0.00000000000E+00  0.00000000000E+00  0.71808326255E+02  0.71808326255E+02  0.00000000000E+00 0.  1.
         21   -1    0    0  501  503 -0.00000000000E+00 -0.00000000000E+00 -0.77700821735E+00  0.77700821735E+00  0.00000000000E+00 0. -1.
          5    1    1    2  501    0 -0.26907228705E+01 -0.29072852424E+01  0.14894357446E+02  0.16112857623E+02  0.47000000000E+01 0. -1.
         -5    1    1    2    0  502  0.26907228705E+01  0.29072852424E+01  0.56136960591E+02  0.56472476849E+02  0.47000000000E+01 0.  1.
<mgrwt>
<rscale>  2 0.61467306E+01</rscale>
<asrwt>0</asrwt>
<pdfrwt beam="1">  1       21 0.11047430E-01 0.61467306E+01</pdfrwt>
<pdfrwt beam="2">  1       21 0.11953978E-03 0.61467306E+01</pdfrwt>
<totfact> 0.17795271E+09</totfact>
</mgrwt>
</event>
<event>
 4    1  0.3858687E+006  0.5008662E+01  0.7546771E-02  0.2565619E+00
         21   -1    0    0  503  502  0.00000000000E+00  0.00000000000E+00  0.18337646921E+01  0.18337646921E+01  0.00000000000E+00 0.  1.
         21   -1    0    0  501  503 -0.00000000000E+00 -0.00000000000E+00 -0.27627762636E+02  0.27627762636E+02  0.00000000000E+00 0.  1.
          5    1    1    2  501    0  0.16988671303E+01  0.33248596872E+00 -0.23363413333E+02  0.23894262471E+02  0.47000000000E+01 0.  1.
         -5    1    1    2    0  502 -0.16988671303E+01 -0.33248596872E+00 -0.24305846114E+01  0.55672648580E+01  0.47000000000E+01 0.  1.
<mgrwt>
<rscale>  2 0.50086621E+01</rscale>
<asrwt>0</asrwt>
<pdfrwt beam="1">  1       21 0.28211766E-03 0.50086621E+01</pdfrwt>
<pdfrwt beam="2">  1       21 0.42504248E-02 0.50086621E+01</pdfrwt>
<totfact> 0.19381065E+09</totfact>
</mgrwt>
</event>
<event>
 4    1  0.3858687E+006  0.6793692E+01  0.7546771E-02  0.2322309E+00
         21   -1    0    0  503  502  0.00000000000E+00  0.00000000000E+00  0.45935902878E+03  0.45935902878E+03  0.00000000000E+00 0. -1.
         21   -1    0    0  501  503 -0.00000000000E+00 -0.00000000000E+00 -0.10079551524E+00  0.10079551524E+00  0.00000000000E+00 0.  1.
          5    1    1    2  501    0  0.47937751795E+01 -0.10411384813E+01  0.24257697350E+03  0.24267208806E+03  0.47000000000E+01 0. -1.
         -5    1    1    2    0  502 -0.47937751795E+01  0.10411384813E+01  0.21668125977E+03  0.21678773624E+03  0.47000000000E+01 0.  1.
<mgrwt>
<rscale>  2 0.67936919E+01</rscale>
<asrwt>0</asrwt>
<pdfrwt beam="1">  1       21 0.70668944E-01 0.67936919E+01</pdfrwt>
<pdfrwt beam="2">  1       21 0.15507370E-04 0.67936919E+01</pdfrwt>
<totfact> 0.12710136E+09</totfact>
</mgrwt>
</event>
<event>
 4    1  0.3858687E+006  0.4795890E+01  0.7546771E-02  0.2604688E+00
         21   -1    0    0  503  502  0.00000000000E+00  0.00000000000E+00  0.30943308499E+02  0.30943308499E+02  0.00000000000E+00 0. -1.
         21   -1    0    0  501  503 -0.00000000000E+00 -0.00000000000E+00 -0.13887382596E+01  0.13887382596E+01  0.00000000000E+00 0. -1.
          5    1    1    2  501    0  0.91241052520E+00 -0.27940926803E+00  0.37564122698E+01  0.60918958992E+01  0.47000000000E+01 0. -1.
         -5    1    1    2    0  502 -0.91241052520E+00  0.27940926803E+00  0.25798157969E+02  0.26240150859E+02  0.47000000000E+01 0. -1.
<mgrwt>
<rscale>  2 0.47958902E+01</rscale>
<asrwt>0</asrwt>
<pdfrwt beam="1">  1       21 0.47605085E-02 0.47958902E+01</pdfrwt>
<pdfrwt beam="2">  1       21 0.21365206E-03 0.47958902E+01</pdfrwt>
<totfact> 0.22903204E+09</totfact>
</mgrwt>
</event>
<event>
 4    1  0.3858687E+006  0.8071952E+01  0.7546771E-02  0.2204818E+00
         21   -1    0    0  501  502  0.00000000000E+00  0.00000000000E+00  0.18467087378E+01  0.18467087378E+01  0.00000000000E+00 0.  1.
         21   -1    0    0  502  503 -0.00000000000E+00 -0.00000000000E+00 -0.56430219869E+02  0.56430219869E+02  0.00000000000E+00 0. -1.
          5    1    1    2  501    0 -0.20453568887E+01  0.62356168175E+01 -0.94538806683E+01  0.12431100578E+02  0.47000000000E+01 0.  1.
         -5    1    1    2    0  503  0.20453568887E+01 -0.62356168175E+01 -0.45129630463E+02  0.45845828028E+02  0.47000000000E+01 0. -1.
<mgrwt>
<rscale>  2 0.80719516E+01</rscale>
<asrwt>0</asrwt>
<pdfrwt beam="1">  1       21 0.28410903E-03 0.80719516E+01</pdfrwt>
<pdfrwt beam="2">  1       21 0.86815726E-02 0.80719516E+01</pdfrwt>
<totfact> 0.96190427E+08</totfact>
</mgrwt>
</event>
<event>
 4    1  0.3858687E+006  0.8990340E+01  0.7546771E-02  0.2137456E+00
         21   -1    0    0  501  502  0.00000000000E+00  0.00000000000E+00  0.96749386194E+02  0.96749386194E+02  0.00000000000E+00 0.  1.
         21   -1    0    0  502  503 -0.00000000000E+00 -0.00000000000E+00 -0.90492861484E+00  0.90492861484E+00  0.00000000000E+00 0.  1.
          5    1    1    2  501    0  0.46350658661E+01  0.61034721801E+01  0.34389702090E+02  0.35545433154E+02  0.47000000000E+01 0.  1.
         -5    1    1    2    0  503 -0.46350658661E+01 -0.61034721801E+01  0.61454755489E+02  0.62108881655E+02  0.47000000000E+01 0.  1.
<mgrwt>
<rscale>  2 0.89903397E+01</rscale>
<asrwt>0</asrwt>
<pdfrwt beam="1">  1       21 0.14884513E-01 0.89903397E+01</pdfrwt>
<pdfrwt beam="2">  1       21 0.13921986E-03 0.89903397E+01</pdfrwt>
<totfact> 0.11768237E+09</totfact>
</mgrwt>
</event>
<event>
 4    1  0.3858687E+006  0.5154245E+01  0.7546771E-02  0.2540497E+00
         21   -1    0    0  503  502  0.00000000000E+00  0.00000000000E+00  0.25400185999E+02  0.25400185999E+02  0.00000000000E+00 0.  1.
         21   -1    0    0  501  503 -0.00000000000E+00 -0.00000000000E+00 -0.16611204546E+01  0.16611204546E+01  0.00000000000E+00 0.  1.
          5    1    1    2  501    0  0.18590760177E+01  0.10099911612E+01  0.20103913177E+02  0.20754121779E+02  0.47000000000E+01 0.  1.
         -5    1    1    2    0  502 -0.18590760177E+01 -0.10099911612E+01  0.36351523670E+01  0.63071846744E+01  0.47000000000E+01 0.  1.
<mgrwt>
<rscale>  2 0.51542454E+01</rscale>
<asrwt>0</asrwt>
<pdfrwt beam="1">  1       21 0.39077206E-02 0.51542454E+01</pdfrwt>
<pdfrwt beam="2">  1       21 0.25555701E-03 0.51542454E+01</pdfrwt>
<totfact> 0.25757730E+09</totfact>
</mgrwt>
</event>
<event>
 4    1  0.3858687E+006  0.9205211E+01  0.7546771E-02  0.2123258E+00
         21   -1    0    0  503  502  0.00000000000E+00  0.00000000000E+00  0.12809371525E+02  0.12809371525E+02  0.00000000000E+00 0. -1.
         21   -1    0    0  501  503 -0.00000000000E+00 -0.00000000000E+00 -0.68743480051E+01  0.68743480051E+01  0.00000000000E+00 0.  1.
          5    1    1    2  501    0 -0.77891052960E+01  0.14056133068E+01  0.10564377676E+01  0.92656338605E+01  0.47000000000E+01 0. -1.
         -5    1    1    2    0  502  0.77891052960E+01 -0.14056133068E+01  0.48785857528E+01  0.10418085670E+02  0.47000000000E+01 0. -1.
<mgrwt>
<rscale>  2 0.92052110E+01</rscale>
<asrwt>0</asrwt>
<pdfrwt beam="1">  1       21 0.19706725E-02 0.92052110E+01</pdfrwt>
<pdfrwt beam="2">  1       21 0.10575920E-02 0.92052110E+01</pdfrwt>
<totfact> 0.15157368E+09</totfact>
</mgrwt>
</event>
<event>
 4    1  0.3858687E+006  0.8459785E+01  0.7546771E-02  0.2174945E+00
         21   -1    0    0  501  502  0.00000000000E+00  0.00000000000E+00  0.21185177479E+03  0.21185177479E+03  0.00000000000E+00 0.  1.
         21   -1    0    0  502  503 -0.00000000000E+00 -0.00000000000E+00 -0.38573420708E+00  0.38573420708E+00  0.00000000000E+00 0. -1.
          5    1    1    2  501    0  0.17301025521E+01  0.68179699092E+01  0.14313339034E+03  0.14338317684E+03  0.47000000000E+01 0.  1.
         -5    1    1    2    0  503 -0.17301025521E+01 -0.68179699092E+01  0.68332650237E+02  0.68854332158E+02  0.47000000000E+01 0. -1.
<mgrwt>
<rscale>  2 0.84597854E+01</rscale>
<asrwt>0</asrwt>
<pdfrwt beam="1">  1       21 0.32592488E-01 0.84597854E+01</pdfrwt>
<pdfrwt beam="2">  1       21 0.59343893E-04 0.84597854E+01</pdfrwt>
<totfact> 0.98030385E+08</totfact>
</mgrwt>
</event>
<event>
 4    1  0.3858687E+006  0.4816286E+01  0.7546771E-02  0.2600814E+00
         21   -1    0    0  501  502  0.00000000000E+00  0.00000000000E+00  0.34969849205E+02  0.34969849205E+02  0.00000000000E+00 0. -1.
         21   -1    0    0  502  503 -0.00000000000E+00 -0.00000000000E+00 -0.73587626620E+00  0.73587626620E+00  0.00000000000E+00 0. -1.
          5    1    1    2  501    0 -0.96071123868E+00  0.42854273021E+00  0.11511575659E+02  0.12478501076E+02  0.47000000000E+01 0. -1.
         -5    1    1    2    0  503  0.96071123868E+00 -0.42854273021E+00  0.22722397279E+02  0.23227224395E+02  0.47000000000E+01 0. -1.
<mgrwt>
<rscale>  2 0.48162864E+01</rscale>
<asrwt>0</asrwt>
<pdfrwt beam="1">  1       21 0.53799755E-02 0.48162864E+01</pdfrwt>
<pdfrwt beam="2">  1       21 0.11321176E-03 0.48162864E+01</pdfrwt>
<totfact> 0.44935526E+09</totfact>
</mgrwt>
</event>
<event>
 4    1  0.3858687E+006  0.4743856E+01  0.7546771E-02  0.2614703E+00
         21   -1    0    0  503  502  0.00000000000E+00  0.00000000000E+00  0.45116287561E+01  0.45116287561E+01  0.00000000000E+00 0.  1.
         21   -1    0    0  501  503 -0.00000000000E+00 -0.00000000000E+00 -0.51770188469E+01  0.51770188469E+01  0.00000000000E+00 0.  1.
          5    1    1    2  501    0  0.55981774844E+00  0.31745561633E+00  0.59286078105E+00  0.47807591328E+01  0.47000000000E+01 0.  1.
         -5    1    1    2    0  502 -0.55981774844E+00 -0.31745561633E+00 -0.12582508718E+01  0.49078884702E+01  0.47000000000E+01 0.  1.
<mgrwt>
<rscale>  2 0.47438564E+01</rscale>
<asrwt>0</asrwt>
<pdfrwt beam="1">  1       21 0.69409674E-03 0.47438564E+01</pdfrwt>
<pdfrwt beam="2">  1       21 0.79646443E-03 0.47438564E+01</pdfrwt>
<totfact> 0.57067051E+09</totfact>
</mgrwt>
</event>
<event>
 4    1  0.3858687E+006  0.5433704E+01  0.7546771E-02  0.2495524E+00
         21   -1    0    0  501  502  0.00000000000E+00  0.00000000000E+00  0.14594172635E+03  0.14594172635E+03  0.00000000000E+00 0. -1.
         21   -1    0    0  502  503 -0.00000000000E+00 -0.00000000000E+00 -0.33821578916E+00  0.33821578916E+00  0.00000000000E+00 0.  1.
          5    1    1    2  501    0  0.19073548058E+01  0.19486256023E+01  0.11916570207E+03  0.11928952047E+03  0.47000000000E+01 0. -1.
         -5    1    1    2    0  503 -0.19073548058E+01 -0.19486256023E+01  0.26437808495E+02  0.26990421673E+02  0.47000000000E+01 0.  1.
<mgrwt>
<rscale>  2 0.54337045E+01</rscale>
<asrwt>0</asrwt>
<pdfrwt beam="1">  1       21 0.22452523E-01 0.54337045E+01</pdfrwt>
<pdfrwt beam="2">  1       21 0.52033315E-04 0.54337045E+01</pdfrwt>
<totfact> 0.15941956E+09</totfact>
</mgrwt>
</event>
<event>
 4    1  0.3858687E+006  0.1246065E+02  0.7546771E-02  0.1957160E+00
         21   -1    0    0  503  502  0.00000000000E+00  0.00000000000E+00  0.25044133081E+03  0.25044133081E+03  0.00000000000E+00 0. -1.
         21   -1    0    0  501  503 -0.00000000000E+00 -0.00000000000E+00 -0.79036991047E+00  0.79036991047E+00  0.00000000000E+00 0.  1.
          5    1    1    2  501    0  0.19948213806E+00  0.11538547489E+02  0.66500450300E+02  0.67657798969E+02  0.47000000000E+01 0.  1.
         -5    1    1    2    0  502 -0.19948213806E+00 -0.11538547489E+02  0.18315051060E+03  0.18357390175E+03  0.47000000000E+01 0. -1.
<mgrwt>
<rscale>  2 0.12460653E+02</rscale>
<asrwt>0</asrwt>
<pdfrwt beam="1">  1       21 0.38529372E-01 0.12460653E+02</pdfrwt>
<pdfrwt beam="2">  1       21 0.12159557E-03 0.12460653E+02</pdfrwt>
<totfact> 0.32950634E+08</totfact>
</mgrwt>
</event>
<event>
 4    1  0.3858687E+006  0.7445921E+01  0.7546771E-02  0.2258256E+00
         21   -1    0    0  503  502  0.00000000000E+00  0.00000000000E+00  0.26467463796E+02  0.26467463796E+02  0.00000000000E+00 0. -1.
         21   -1    0    0  501  503 -0.00000000000E+00 -0.00000000000E+00 -0.77376613252E+01  0.77376613252E+01  0.00000000000E+00 0. -1.
          5    1    1    2  501    0  0.50146076025E+01 -0.28645152701E+01 -0.52403613944E+01  0.91051153031E+01  0.47000000000E+01 0. -1.
         -5    1    1    2    0  502 -0.50146076025E+01  0.28645152701E+01  0.23970163866E+02  0.25100009818E+02  0.47000000000E+01 0. -1.
<mgrwt>
<rscale>  2 0.74459208E+01</rscale>
<asrwt>0</asrwt>
<pdfrwt beam="1">  1       21 0.40719175E-02 0.74459208E+01</pdfrwt>
<pdfrwt beam="2">  1       21 0.11904095E-02 0.74459208E+01</pdfrwt>
<totfact> 0.38048751E+08</totfact>
</mgrwt>
</event>
<event>
 4    1  0.3858687E+006  0.5482966E+01  0.7546771E-02  0.2488003E+00
         21   -1    0    0  501  502  0.00000000000E+00  0.00000000000E+00  0.87052494282E+01  0.87052494282E+01  0.00000000000E+00 0.  1.
         21   -1    0    0  502  503 -0.00000000000E+00 -0.00000000000E+00 -0.37803644983E+01  0.37803644983E+01  0.00000000000E+00 0.  1.
          5    1    1    2  501    0  0.26108998005E+01 -0.10752310320E+01  0.42983350061E+01  0.69669651474E+01  0.47000000000E+01 0.  1.
         -5    1    1    2    0  503 -0.26108998005E+01  0.10752310320E+01  0.62654992386E+00  0.55186487791E+01  0.47000000000E+01 0.  1.
<mgrwt>
<rscale>  2 0.54829663E+01</rscale>
<asrwt>0</asrwt>
<pdfrwt beam="1">  1       21 0.13392691E-02 0.54829663E+01</pdfrwt>
<pdfrwt beam="2">  1       21 0.58159454E-03 0.54829663E+01</pdfrwt>
<totfact> 0.41030045E+09</totfact>
</mgrwt>
</event>
<event>
 4    1  0.3858687E+006  0.6495665E+01  0.7546771E-02  0.2355055E+00
         21   -1    0    0  503  502  0.00000000000E+00  0.00000000000E+00  0.15052321400E+01  0.15052321400E+01  0.00000000000E+00 0.  1.
         21   -1    0    0  501  503 -0.00000000000E+00 -0.00000000000E+00 -0.40559859331E+02  0.40559859331E+02  0.00000000000E+00 0. -1.
          5    1    1    2  501    0 -0.33857249526E+00 -0.44709093596E+01 -0.31216751667E+02  0.31885408049E+02  0.47000000000E+01 0. -1.
         -5    1    1    2    0  502  0.33857249526E+00  0.44709093596E+01 -0.78378755244E+01  0.10179683422E+02  0.47000000000E+01 0.  1.
<mgrwt>
<rscale>  2 0.64956648E+01</rscale>
<asrwt>0</asrwt>
<pdfrwt beam="1">  1       21 0.23157420E-03 0.64956648E+01</pdfrwt>
<pdfrwt beam="2">  1       21 0.62399776E-02 0.64956648E+01</pdfrwt>
<totfact> 0.18093326E+09</totfact>
</mgrwt>
</event>
<event>
 4    1  0.3858687E+006  0.6932516E+01  0.7546771E-02  0.2307851E+00
         21   -1    0    0  503  502  0.00000000000E+00  0.00000000000E+00  0.15372613805E+02  0.15372613805E+02  0.00000000000E+00 0. -1.
         21   -1    0    0  501  503 -0.00000000000E+00 -0.00000000000E+00 -0.41792975693E+01  0.41792975693E+01  0.00000000000E+00 0.  1.
          5    1    1    2  501    0  0.12244071130E+01 -0.49467779335E+01  0.68965724952E+00  0.69667360954E+01  0.47000000000E+01 0.  1.
         -5    1    1    2    0  502 -0.12244071130E+01  0.49467779335E+01  0.10503658986E+02  0.12585175279E+02  0.47000000000E+01 0. -1.
<mgrwt>
<rscale>  2 0.69325165E+01</rscale>
<asrwt>0</asrwt>
<pdfrwt beam="1">  1       21 0.23650175E-02 0.69325165E+01</pdfrwt>
<pdfrwt beam="2">  1       21 0.64296886E-03 0.69325165E+01</pdfrwt>
<totfact> 0.19332104E+09</totfact>
</mgrwt>
</event>
<event>
 4    1  0.3858687E+006  0.5142697E+01  0.7546771E-02  0.2542446E+00
         21   -1    0    0  503  502  0.00000000000E+00  0.00000000000E+00  0.88768480932E+01  0.88768480932E+01  0.00000000000E+00 0.  1.
         21   -1    0    0  501  503 -0.00000000000E+00 -0.00000000000E+00 -0.43949524148E+01  0.43949524148E+01  0.00000000000E+00 0.  1.
          5    1    1    2  501    0  0.48908420578E+00 -0.20293172785E+01 -0.15251515171E+01  0.53640860477E+01  0.47000000000E+01 0.  1.
         -5    1    1    2    0  502 -0.48908420578E+00  0.20293172785E+01  0.60070471954E+01  0.79077144603E+01  0.47000000000E+01 0.  1.
<mgrwt>
<rscale>  2 0.51426970E+01</rscale>
<asrwt>0</asrwt>
<pdfrwt beam="1">  1       21 0.13656689E-02 0.51426970E+01</pdfrwt>
<pdfrwt beam="2">  1       21 0.67614653E-03 0.51426970E+01</pdfrwt>
<totfact> 0.30388403E+09</totfact>
</mgrwt>
</event>
<event>
 4    1  0.3858687E+006  0.4954464E+01  0.7546771E-02  0.2575296E+00
         21   -1    0    0  501  502  0.00000000000E+00  0.00000000000E+00  0.56464512091E+00  0.56464512091E+00  0.00000000000E+00 0.  1.
         21   -1    0    0  502  503 -0.00000000000E+00 -0.00000000000E+00 -0.25294975732E+04  0.25294975732E+04  0.00000000000E+00 0.  1.
          5    1    1    2  501    0  0.17808050654E+00  0.15572425062E+01 -0.10353098782E+02  0.11477515902E+02  0.47000000000E+01 0.  1.
         -5    1    1    2    0  503 -0.17808050654E+00 -0.15572425062E+01 -0.25185798293E+04  0.25185847024E+04  0.47000000000E+01 0.  1.
<mgrwt>
<rscale>  2 0.49544643E+01</rscale>
<asrwt>0</asrwt>
<pdfrwt beam="1">  1       21 0.86868678E-04 0.49544643E+01</pdfrwt>
<pdfrwt beam="2">  1       21 0.38915259E+00 0.49544643E+01</pdfrwt>
<totfact> 0.22169945E+06</totfact>
</mgrwt>
</event>
<event>
 4    1  0.3858687E+006  0.5099029E+01  0.7546771E-02  0.2549880E+00
         21   -1    0    0  501  502  0.00000000000E+00  0.00000000000E+00  0.30100401339E+02  0.30100401339E+02  0.00000000000E+00 0.  1.
         21   -1    0    0  502  503 -0.00000000000E+00 -0.00000000000E+00 -0.12169636323E+01  0.12169636323E+01  0.00000000000E+00 0.  1.
          5    1    1    2  501    0 -0.12624749692E+00  0.19733613031E+01  0.22877345380E+02  0.23438707833E+02  0.47000000000E+01 0.  1.
         -5    1    1    2    0  503  0.12624749692E+00 -0.19733613031E+01  0.60060923271E+01  0.78786571384E+01  0.47000000000E+01 0.  1.
<mgrwt>
<rscale>  2 0.50990287E+01</rscale>
<asrwt>0</asrwt>
<pdfrwt beam="1">  1       21 0.46308304E-02 0.50990287E+01</pdfrwt>
<pdfrwt beam="2">  1       21 0.18722520E-03 0.50990287E+01</pdfrwt>
<totfact> 0.30296363E+09</totfact>
</mgrwt>
</event>
<event>
 4    1  0.3858687E+006  0.4962540E+01  0.7546771E-02  0.2573842E+00
         21   -1    0    0  501  502  0.00000000000E+00  0.00000000000E+00  0.83868508718E+02  0.83868508718E+02  0.00000000000E+00 0.  1.
         21   -1    0    0  502  503 -0.00000000000E+00 -0.00000000000E+00 -0.58190033038E+00  0.58190033038E+00  0.00000000000E+00 0.  1.
          5    1    1    2  501    0 -0.11218288391E+01 -0.11306212299E+01  0.71362906597E+02  0.71535244756E+02  0.47000000000E+01 0.  1.
         -5    1    1    2    0  503  0.11218288391E+01  0.11306212299E+01  0.11923701790E+02  0.12915164292E+02  0.47000000000E+01 0.  1.
<mgrwt>
<rscale>  2 0.49625401E+01</rscale>
<asrwt>0</asrwt>
<pdfrwt beam="1">  1       21 0.12902838E-01 0.49625401E+01</pdfrwt>
<pdfrwt beam="2">  1       21 0.89523194E-04 0.49625401E+01</pdfrwt>
<totfact> 0.17088119E+09</totfact>
</mgrwt>
</event>
<event>
 4    1  0.3858687E+006  0.5145923E+01  0.7546771E-02  0.2541901E+00
         21   -1    0    0  503  502  0.00000000000E+00  0.00000000000E+00  0.13815102382E+01  0.13815102382E+01  0.00000000000E+00 0.  1.
         21   -1    0    0  501  503 -0.00000000000E+00 -0.00000000000E+00 -0.23863188577E+02  0.23863188577E+02  0.00000000000E+00 0.  1.
          5    1    1    2  501    0  0.14994847858E+01 -0.14635801881E+01 -0.16839851294E+02  0.17608552274E+02  0.47000000000E+01 0.  1.
         -5    1    1    2    0  502 -0.14994847858E+01  0.14635801881E+01 -0.56418270440E+01  0.76361465403E+01  0.47000000000E+01 0.  1.
<mgrwt>
<rscale>  2 0.51459228E+01</rscale>
<asrwt>0</asrwt>
<pdfrwt beam="1">  1       21 0.21254006E-03 0.51459228E+01</pdfrwt>
<pdfrwt beam="2">  1       21 0.36712595E-02 0.51459228E+01</pdfrwt>
<totfact> 0.36123500E+09</totfact>
</mgrwt>
</event>
<event>
 4    1  0.3858687E+006  0.5620541E+01  0.7546771E-02  0.2467592E+00
         21   -1    0    0  501  502  0.00000000000E+00  0.00000000000E+00  0.11296124384E+02  0.11296124384E+02  0.00000000000E+00 0.  1.
         21   -1    0    0  502  503 -0.00000000000E+00 -0.00000000000E+00 -0.75708864875E+01  0.75708864875E+01  0.00000000000E+00 0. -1.
          5    1    1    2  501    0 -0.10194101752E+01  0.29088281557E+01  0.93538817688E+01  0.10912634077E+02  0.47000000000E+01 0.  1.
         -5    1    1    2    0  503  0.10194101752E+01 -0.29088281557E+01 -0.56286438726E+01  0.79543767946E+01  0.47000000000E+01 0. -1.
<mgrwt>
<rscale>  2 0.56205408E+01</rscale>
<asrwt>0</asrwt>
<pdfrwt beam="1">  1       21 0.17378653E-02 0.56205408E+01</pdfrwt>
<pdfrwt beam="2">  1       21 0.11647518E-02 0.56205408E+01</pdfrwt>
<totfact> 0.10981496E+09</totfact>
</mgrwt>
</event>
<event>
 4    1  0.3858687E+006  0.5401635E+01  0.7546771E-02  0.2500483E+00
         21   -1    0    0  503  502  0.00000000000E+00  0.00000000000E+00  0.54294483811E+00  0.54294483811E+00  0.00000000000E+00 0.  1.
         21   -1    0    0  501  503 -0.00000000000E+00 -0.00000000000E+00 -0.53740550697E+02  0.53740550697E+02  0.00000000000E+00 0.  1.
          5    1    1    2  501    0 -0.25161217432E+01  0.86993782991E+00 -0.26487107479E+02  0.27032286678E+02  0.47000000000E+01 0.  1.
         -5    1    1    2    0  502  0.25161217432E+01 -0.86993782991E+00 -0.26710498379E+02  0.27251208856E+02  0.47000000000E+01 0.  1.
<mgrwt>
<rscale>  2 0.54016350E+01</rscale>
<asrwt>0</asrwt>
<pdfrwt beam="1">  1       21 0.83529944E-04 0.54016350E+01</pdfrwt>
<pdfrwt beam="2">  1       21 0.82677801E-02 0.54016350E+01</pdfrwt>
<totfact> 0.39999243E+09</totfact>
</mgrwt>
</event>
<event>
 4    1  0.3858687E+006  0.5965792E+01  0.7546771E-02  0.2419897E+00
         21   -1    0    0  503  502  0.00000000000E+00  0.00000000000E+00  0.94321279769E-01  0.94321279769E-01  0.00000000000E+00 0. -1.
         21   -1    0    0  501  503 -0.00000000000E+00 -0.00000000000E+00 -0.86610219292E+03  0.86610219292E+03  0.00000000000E+00 0.  1.
          5    1    1    2  501    0  0.36409816030E+01 -0.49389417623E+00 -0.75835564056E+03  0.75837910588E+03  0.47000000000E+01 0.  1.
         -5    1    1    2    0  502 -0.36409816030E+01  0.49389417623E+00 -0.10765223108E+03  0.10781740831E+03  0.47000000000E+01 0. -1.
<mgrwt>
<rscale>  2 0.59657924E+01</rscale>
<asrwt>0</asrwt>
<pdfrwt beam="1">  1       21 0.14510625E-04 0.59657924E+01</pdfrwt>
<pdfrwt beam="2">  1       21 0.13324963E+00 0.59657924E+01</pdfrwt>
<totfact> 0.35471168E+08</totfact>
</mgrwt>
</event>
<event>
 4    1  0.3858687E+006  0.1012849E+02  0.7546771E-02  0.2067748E+00
         21   -1    0    0  503  502  0.00000000000E+00  0.00000000000E+00  0.34259334078E+03  0.34259334078E+03  0.00000000000E+00 0. -1.
         21   -1    0    0  501  503 -0.00000000000E+00 -0.00000000000E+00 -0.34005430598E+00  0.34005430598E+00  0.00000000000E+00 0.  1.
          5    1    1    2  501    0  0.89566278108E+01  0.52449514912E+00  0.11186916287E+03  0.11232673715E+03  0.47000000000E+01 0.  1.
         -5    1    1    2    0  502 -0.89566278108E+01 -0.52449514912E+00  0.23038412360E+03  0.23060665793E+03  0.47000000000E+01 0. -1.
<mgrwt>
<rscale>  2 0.10128488E+02</rscale>
<asrwt>0</asrwt>
<pdfrwt beam="1">  1       21 0.52706392E-01 0.10128488E+02</pdfrwt>
<pdfrwt beam="2">  1       21 0.52316321E-04 0.10128488E+02</pdfrwt>
<totfact> 0.53863753E+08</totfact>
</mgrwt>
</event>
<event>
 4    1  0.3858687E+006  0.4828179E+01  0.7546771E-02  0.2598568E+00
         21   -1    0    0  503  502  0.00000000000E+00  0.00000000000E+00  0.60710853538E+01  0.60710853538E+01  0.00000000000E+00 0.  1.
         21   -1    0    0  501  503 -0.00000000000E+00 -0.00000000000E+00 -0.62580436685E+01  0.62580436685E+01  0.00000000000E+00 0. -1.
          5    1    1    2  501    0 -0.10855844950E+01 -0.20693730449E+00  0.37386452280E+01  0.61064543628E+01  0.47000000000E+01 0.  1.
         -5    1    1    2    0  502  0.10855844950E+01  0.20693730449E+00 -0.39256035427E+01  0.62226746595E+01  0.47000000000E+01 0. -1.
<mgrwt>
<rscale>  2 0.48281794E+01</rscale>
<asrwt>0</asrwt>
<pdfrwt beam="1">  1       21 0.93401313E-03 0.48281794E+01</pdfrwt>
<pdfrwt beam="2">  1       21 0.96277595E-03 0.48281794E+01</pdfrwt>
<totfact> 0.29654114E+09</totfact>
</mgrwt>
</event>
<event>
 4    1  0.3858687E+006  0.8591453E+01  0.7546771E-02  0.2165298E+00
         21   -1    0    0  503  502  0.00000000000E+00  0.00000000000E+00  0.11311499665E+02  0.11311499665E+02  0.00000000000E+00 0.  1.
         21   -1    0    0  501  503 -0.00000000000E+00 -0.00000000000E+00 -0.95638356741E+01  0.95638356741E+01  0.00000000000E+00 0. -1.
          5    1    1    2  501    0 -0.19648786219E-01 -0.71918477916E+01 -0.50092664014E+01  0.99451400499E+01  0.47000000000E+01 0. -1.
         -5    1    1    2    0  502  0.19648786219E-01  0.71918477916E+01  0.67569303918E+01  0.10930195289E+02  0.47000000000E+01 0. -1.
<mgrwt>
<rscale>  2 0.85914528E+01</rscale>
<asrwt>0</asrwt>
<pdfrwt beam="1">  1       21 0.17402307E-02 0.85914528E+01</pdfrwt>
<pdfrwt beam="2">  1       21 0.14713593E-02 0.85914528E+01</pdfrwt>
<totfact> 0.10774430E+09</totfact>
</mgrwt>
</event>
<event>
 4    1  0.3858687E+006  0.5581796E+01  0.7546771E-02  0.2473254E+00
         21   -1    0    0  503  502  0.00000000000E+00  0.00000000000E+00  0.14412893424E+01  0.14412893424E+01  0.00000000000E+00 0.  1.
         21   -1    0    0  501  503 -0.00000000000E+00 -0.00000000000E+00 -0.30540617552E+02  0.30540617552E+02  0.00000000000E+00 0. -1.
          5    1    1    2  501    0  0.20133015693E+01 -0.22389870604E+01 -0.23193456547E+02  0.23855667520E+02  0.47000000000E+01 0. -1.
         -5    1    1    2    0  502 -0.20133015693E+01  0.22389870604E+01 -0.59058716635E+01  0.81262393745E+01  0.47000000000E+01 0.  1.
<mgrwt>
<rscale>  2 0.55817960E+01</rscale>
<asrwt>0</asrwt>
<pdfrwt beam="1">  1       21 0.22173682E-03 0.55817960E+01</pdfrwt>
<pdfrwt beam="2">  1       21 0.46985566E-02 0.55817960E+01</pdfrwt>
<totfact> 0.25734626E+09</totfact>
</mgrwt>
</event>
<event>
 4    1  0.3858687E+006  0.6721948E+01  0.7546771E-02  0.2329973E+00
         21   -1    0    0  503  502  0.00000000000E+00  0.00000000000E+00  0.81322888232E+01  0.81322888232E+01  0.00000000000E+00 0. -1.
         21   -1    0    0  501  503 -0.00000000000E+00 -0.00000000000E+00 -0.14329935108E+02  0.14329935108E+02  0.00000000000E+00 0.  1.
          5    1    1    2  501    0  0.20780080200E+01 -0.43331823301E+01 -0.11886883193E+02  0.13655862422E+02  0.47000000000E+01 0.  1.
         -5    1    1    2    0  502 -0.20780080200E+01  0.43331823301E+01  0.56892369082E+01  0.88063615095E+01  0.47000000000E+01 0. -1.
<mgrwt>
<rscale>  2 0.67219481E+01</rscale>
<asrwt>0</asrwt>
<pdfrwt beam="1">  1       21 0.12511214E-02 0.67219481E+01</pdfrwt>
<pdfrwt beam="2">  1       21 0.22046054E-02 0.67219481E+01</pdfrwt>
<totfact> 0.81370781E+08</totfact>
</mgrwt>
</event>
<event>
 4    1  0.3858687E+006  0.6634664E+01  0.7546771E-02  0.2339480E+00
         21   -1    0    0  503  502  0.00000000000E+00  0.00000000000E+00  0.70729512358E-01  0.70729512358E-01  0.00000000000E+00 0. -1.
         21   -1    0    0  501  503 -0.00000000000E+00 -0.00000000000E+00 -0.98528169642E+03  0.98528169642E+03  0.00000000000E+00 0.  1.
          5    1    1    2  501    0  0.14227412610E+01 -0.44614537391E+01 -0.79161961950E+03  0.79164742199E+03  0.47000000000E+01 0.  1.
         -5    1    1    2    0  502 -0.14227412610E+01  0.44614537391E+01 -0.19359134740E+03  0.19370500394E+03  0.47000000000E+01 0. -1.
<mgrwt>
<rscale>  2 0.66346637E+01</rscale>
<asrwt>0</asrwt>
<pdfrwt beam="1">  1       21 0.10881103E-04 0.66346637E+01</pdfrwt>
<pdfrwt beam="2">  1       21 0.15158682E+00 0.66346637E+01</pdfrwt>
<totfact> 0.42084412E+08</totfact>
</mgrwt>
</event>
<event>
 4    1  0.3858687E+006  0.5215142E+01  0.7546771E-02  0.2530347E+00
         21   -1    0    0  501  502  0.00000000000E+00  0.00000000000E+00  0.15489757011E+01  0.15489757011E+01  0.00000000000E+00 0.  1.
         21   -1    0    0  502  503 -0.00000000000E+00 -0.00000000000E+00 -0.19968384484E+02  0.19968384484E+02  0.00000000000E+00 0.  1.
          5    1    1    2  501    0  0.16942335362E+01 -0.14957529918E+01 -0.54721734071E+01  0.75592583026E+01  0.47000000000E+01 0.  1.
         -5    1    1    2    0  503 -0.16942335362E+01  0.14957529918E+01 -0.12947235376E+02  0.13958101882E+02  0.47000000000E+01 0.  1.
<mgrwt>
<rscale>  2 0.52151418E+01</rscale>
<asrwt>0</asrwt>
<pdfrwt beam="1">  1       21 0.23830395E-03 0.52151418E+01</pdfrwt>
<pdfrwt beam="2">  1       21 0.30720592E-02 0.52151418E+01</pdfrwt>
<totfact> 0.40574077E+09</totfact>
</mgrwt>
</event>
<event>
 4    1  0.3858687E+006  0.6251696E+01  0.7546771E-02  0.2383773E+00
         21   -1    0    0  503  502  0.00000000000E+00  0.00000000000E+00  0.14545715381E+01  0.14545715381E+01  0.00000000000E+00 0. -1.
         21   -1    0    0  501  503 -0.00000000000E+00 -0.00000000000E+00 -0.27813873534E+02  0.27813873534E+02  0.00000000000E+00 0. -1.
          5    1    1    2  501    0 -0.23230118602E+01  0.34054831557E+01 -0.15876127521E+02  0.17062682224E+02  0.47000000000E+01 0. -1.
         -5    1    1    2    0  502  0.23230118602E+01 -0.34054831557E+01 -0.10483174476E+02  0.12205762848E+02  0.47000000000E+01 0. -1.
<mgrwt>
<rscale>  2 0.62516957E+01</rscale>
<asrwt>0</asrwt>
<pdfrwt beam="1">  1       21 0.22378021E-03 0.62516957E+01</pdfrwt>
<pdfrwt beam="2">  1       21 0.42790579E-02 0.62516957E+01</pdfrwt>
<totfact> 0.32233130E+09</totfact>
</mgrwt>
</event>
<event>
 4    1  0.3858687E+006  0.1627192E+02  0.7546771E-02  0.1831567E+00
         21   -1    0    0  501  502  0.00000000000E+00  0.00000000000E+00  0.14978443475E+03  0.14978443475E+03  0.00000000000E+00 0. -1.
         21   -1    0    0  502  503 -0.00000000000E+00 -0.00000000000E+00 -0.51983720334E+01  0.51983720334E+01  0.00000000000E+00 0.  1.
          5    1    1    2  501    0 -0.21572717044E+01  0.15428266160E+02  0.13524494125E+03  0.13622029714E+03  0.47000000000E+01 0. -1.
         -5    1    1    2    0  503  0.21572717044E+01 -0.15428266160E+02  0.93411214595E+01  0.18762509641E+02  0.47000000000E+01 0.  1.
<mgrwt>
<rscale>  2 0.16271915E+02</rscale>
<asrwt>0</asrwt>
<pdfrwt beam="1">  1       21 0.23043756E-01 0.16271915E+02</pdfrwt>
<pdfrwt beam="2">  1       21 0.79974966E-03 0.16271915E+02</pdfrwt>
<totfact> 0.60859754E+07</totfact>
</mgrwt>
</event>
<event>
 4    1  0.3858687E+006  0.4932728E+01  0.7546771E-02  0.2579228E+00
         21   -1    0    0  503  502  0.00000000000E+00  0.00000000000E+00  0.21340486469E+02  0.21340486469E+02  0.00000000000E+00 0.  1.
         21   -1    0    0  501  503 -0.00000000000E+00 -0.00000000000E+00 -0.19425862725E+01  0.19425862725E+01  0.00000000000E+00 0. -1.
          5    1    1    2  501    0  0.14959814654E+01  0.62021302564E-01  0.22169158521E+01  0.54080054625E+01  0.47000000000E+01 0. -1.
         -5    1    1    2    0  502 -0.14959814654E+01 -0.62021302564E-01  0.17180984345E+02  0.17875067279E+02  0.47000000000E+01 0.  1.
<mgrwt>
<rscale>  2 0.49327282E+01</rscale>
<asrwt>0</asrwt>
<pdfrwt beam="1">  1       21 0.32831516E-02 0.49327282E+01</pdfrwt>
<pdfrwt beam="2">  1       21 0.29885944E-03 0.49327282E+01</pdfrwt>
<totfact> 0.25633989E+09</totfact>
</mgrwt>
</event>
<event>
 4    1  0.3858687E+006  0.9244078E+01  0.7546771E-02  0.2120746E+00
         21   -1    0    0  503  502  0.00000000000E+00  0.00000000000E+00  0.12049082031E+01  0.12049082031E+01  0.00000000000E+00 0. -1.
         21   -1    0    0  501  503 -0.00000000000E+00 -0.00000000000E+00 -0.72681556836E+02  0.72681556836E+02  0.00000000000E+00 0.  1.
          5    1    1    2  501    0 -0.55097924607E+01 -0.57450120084E+01 -0.41488490983E+02  0.42505856772E+02  0.47000000000E+01 0. -1.
         -5    1    1    2    0  502  0.55097924607E+01  0.57450120084E+01 -0.29988157650E+02  0.31380608266E+02  0.47000000000E+01 0. -1.
<mgrwt>
<rscale>  2 0.92440779E+01</rscale>
<asrwt>0</asrwt>
<pdfrwt beam="1">  1       21 0.18537057E-03 0.92440779E+01</pdfrwt>
<pdfrwt beam="2">  1       21 0.11181773E-01 0.92440779E+01</pdfrwt>
<totfact> 0.12744887E+09</totfact>
</mgrwt>
</event>
<event>
 4    1  0.3858687E+006  0.4915559E+01  0.7546771E-02  0.2582355E+00
         21   -1    0    0  503  502  0.00000000000E+00  0.00000000000E+00  0.25083362409E+03  0.25083362409E+03  0.00000000000E+00 0. -1.
         21   -1    0    0  501  503 -0.00000000000E+00 -0.00000000000E+00 -0.11033528664E+00  0.11033528664E+00  0.00000000000E+00 0. -1.
          5    1    1    2  501    0 -0.13564868038E+01 -0.48235738322E+00  0.80658265196E+02  0.80807910934E+02  0.47000000000E+01 0. -1.
         -5    1    1    2    0  502  0.13564868038E+01  0.48235738322E+00  0.17006502361E+03  0.17013604844E+03  0.47000000000E+01 0. -1.
<mgrwt>
<rscale>  2 0.49155595E+01</rscale>
<asrwt>0</asrwt>
<pdfrwt beam="1">  1       21 0.38589332E-01 0.49155595E+01</pdfrwt>
<pdfrwt beam="2">  1       21 0.16974860E-04 0.49155595E+01</pdfrwt>
<totfact> 0.26194650E+09</totfact>
</mgrwt>
</event>
<event>
 4    1  0.3858687E+006  0.4962022E+01  0.7546771E-02  0.2573935E+00
         21   -1    0    0  503  502  0.00000000000E+00  0.00000000000E+00  0.84837566367E+02  0.84837566367E+02  0.00000000000E+00 0.  1.
         21   -1    0    0  501  503 -0.00000000000E+00 -0.00000000000E+00 -0.58048587599E+00  0.58048587599E+00  0.00000000000E+00 0.  1.
          5    1    1    2  501    0 -0.13313653534E+01  0.87128211219E+00  0.11927570979E+02  0.12918537676E+02  0.47000000000E+01 0.  1.
         -5    1    1    2    0  502  0.13313653534E+01 -0.87128211219E+00  0.72329509512E+02  0.72499514567E+02  0.47000000000E+01 0.  1.
<mgrwt>
<rscale>  2 0.49620224E+01</rscale>
<asrwt>0</asrwt>
<pdfrwt beam="1">  1       21 0.13051923E-01 0.49620224E+01</pdfrwt>
<pdfrwt beam="2">  1       21 0.89305587E-04 0.49620224E+01</pdfrwt>
<totfact> 0.16841629E+09</totfact>
</mgrwt>
</event>
<event>
 4    1  0.3858687E+006  0.5281478E+01  0.7546771E-02  0.2519518E+00
         21   -1    0    0  501  502  0.00000000000E+00  0.00000000000E+00  0.73306553262E+03  0.73306553262E+03  0.00000000000E+00 0.  1.
         21   -1    0    0  502  503 -0.00000000000E+00 -0.00000000000E+00 -0.12845176730E+00  0.12845176730E+00  0.00000000000E+00 0.  1.
          5    1    1    2  501    0 -0.24089427734E+01 -0.31700441061E-01  0.67401056990E+03  0.67403126215E+03  0.47000000000E+01 0.  1.
         -5    1    1    2    0  503  0.24089427734E+01  0.31700441061E-01  0.58926510946E+02  0.59162722237E+02  0.47000000000E+01 0.  1.
<mgrwt>
<rscale>  2 0.52814780E+01</rscale>
<asrwt>0</asrwt>
<pdfrwt beam="1">  1       21 0.11277596E+00 0.52814780E+01</pdfrwt>
<pdfrwt beam="2">  1       21 0.19762397E-04 0.52814780E+01</pdfrwt>
<totfact> 0.30709824E+08</totfact>
</mgrwt>
</event>
<event>
 4    1  0.3858687E+006  0.6240258E+01  0.7546771E-02  0.2385165E+00
         21   -1    0    0  501  502  0.00000000000E+00  0.00000000000E+00  0.66459681514E+03  0.66459681514E+03  0.00000000000E+00 0.  1.
         21   -1    0    0  502  503 -0.00000000000E+00 -0.00000000000E+00 -0.10839191450E+00  0.10839191450E+00  0.00000000000E+00 0.  1.
          5    1    1    2  501    0 -0.85907606110E+00  0.40140766211E+01  0.55751761124E+03  0.55755253355E+03  0.47000000000E+01 0.  1.
         -5    1    1    2    0  503  0.85907606110E+00 -0.40140766211E+01  0.10697081198E+03  0.10715267351E+03  0.47000000000E+01 0.  1.
<mgrwt>
<rscale>  2 0.62402582E+01</rscale>
<asrwt>0</asrwt>
<pdfrwt beam="1">  1       21 0.10224240E+00 0.62402582E+01</pdfrwt>
<pdfrwt beam="2">  1       21 0.16676211E-04 0.62402582E+01</pdfrwt>
<totfact> 0.52593457E+08</totfact>
</mgrwt>
</event>
<event>
 4    1  0.3858687E+006  0.5829737E+01  0.7546771E-02  0.2438125E+00
         21   -1    0    0  503  502  0.00000000000E+00  0.00000000000E+00  0.18227044270E+02  0.18227044270E+02  0.00000000000E+00 0. -1.
         21   -1    0    0  501  503 -0.00000000000E+00 -0.00000000000E+00 -0.77691699655E+01  0.77691699655E+01  0.00000000000E+00 0. -1.
          5    1    1    2  501    0 -0.22441249350E+01 -0.26191102273E+01 -0.61025670903E+01  0.84396184865E+01  0.47000000000E+01 0. -1.
         -5    1    1    2    0  502  0.22441249350E+01  0.26191102273E+01  0.16560441395E+02  0.17556595749E+02  0.47000000000E+01 0. -1.
<mgrwt>
<rscale>  2 0.58297371E+01</rscale>
<asrwt>0</asrwt>
<pdfrwt beam="1">  1       21 0.28041607E-02 0.58297371E+01</pdfrwt>
<pdfrwt beam="2">  1       21 0.11952569E-02 0.58297371E+01</pdfrwt>
<totfact> 0.54889746E+08</totfact>
</mgrwt>
</event>
<event>
 4    1  0.3858687E+006  0.9917819E+01  0.7546771E-02  0.2079695E+00
         21   -1    0    0  501  502  0.00000000000E+00  0.00000000000E+00  0.11994423826E+04  0.11994423826E+04  0.00000000000E+00 0. -1.
         21   -1    0    0  502  503 -0.00000000000E+00 -0.00000000000E+00 -0.28009350286E+00  0.28009350286E+00  0.00000000000E+00 0.  1.
          5    1    1    2  501    0 -0.44885342315E+01  0.74917414700E+01  0.11040406450E+04  0.11040851910E+04  0.47000000000E+01 0. -1.
         -5    1    1    2    0  503  0.44885342315E+01 -0.74917414700E+01  0.95121644011E+02  0.95637285037E+02  0.47000000000E+01 0.  1.
<mgrwt>
<rscale>  2 0.99178188E+01</rscale>
<asrwt>0</asrwt>
<pdfrwt beam="1">  1       21 0.18452549E+00 0.99178188E+01</pdfrwt>
<pdfrwt beam="2">  1       21 0.43092268E-04 0.99178188E+01</pdfrwt>
<totfact> 0.50711765E+07</totfact>
</mgrwt>
</event>
<event>
 4    1  0.3858687E+006  0.1296303E+02  0.7546771E-02  0.1937443E+00
         21   -1    0    0  501  502  0.00000000000E+00  0.00000000000E+00  0.34410101867E+00  0.34410101867E+00  0.00000000000E+00 0.  1.
         21   -1    0    0  502  503 -0.00000000000E+00 -0.00000000000E+00 -0.82080891712E+03  0.82080891712E+03  0.00000000000E+00 0. -1.
          5    1    1    2  501    0 -0.12066230703E+02 -0.59675458775E+00 -0.14892888120E+03  0.14949197870E+03  0.47000000000E+01 0.  1.
         -5    1    1    2    0  503  0.12066230703E+02  0.59675458775E+00 -0.67153593489E+03  0.67166103943E+03  0.47000000000E+01 0. -1.
<mgrwt>
<rscale>  2 0.12963026E+02</rscale>
<asrwt>0</asrwt>
<pdfrwt beam="1">  1       21 0.52938781E-04 0.12963026E+02</pdfrwt>
<pdfrwt beam="2">  1       21 0.12627791E+00 0.12963026E+02</pdfrwt>
<totfact> 0.98881306E+07</totfact>
</mgrwt>
</event>
<event>
 4    1  0.3858687E+006  0.7370798E+01  0.7546771E-02  0.2265160E+00
         21   -1    0    0  503  502  0.00000000000E+00  0.00000000000E+00  0.83523278265E+02  0.83523278265E+02  0.00000000000E+00 0. -1.
         21   -1    0    0  501  503 -0.00000000000E+00 -0.00000000000E+00 -0.15831571438E+01  0.15831571438E+01  0.00000000000E+00 0. -1.
          5    1    1    2  501    0 -0.30256313346E+01  0.48046033786E+01  0.83082377914E+01  0.11106550941E+02  0.47000000000E+01 0. -1.
         -5    1    1    2    0  502  0.30256313346E+01 -0.48046033786E+01  0.73631883330E+02  0.73999884469E+02  0.47000000000E+01 0. -1.
<mgrwt>
<rscale>  2 0.73707977E+01</rscale>
<asrwt>0</asrwt>
<pdfrwt beam="1">  1       21 0.12849732E-01 0.73707977E+01</pdfrwt>
<pdfrwt beam="2">  1       21 0.24356270E-03 0.73707977E+01</pdfrwt>
<totfact> 0.60682689E+08</totfact>
</mgrwt>
</event>
<event>
 4    1  0.3858687E+006  0.5436964E+01  0.7546771E-02  0.2495023E+00
         21   -1    0    0  503  502  0.00000000000E+00  0.00000000000E+00  0.14723454285E+02  0.14723454285E+02  0.00000000000E+00 0. -1.
         21   -1    0    0  501  503 -0.00000000000E+00 -0.00000000000E+00 -0.24900951444E+01  0.24900951444E+01  0.00000000000E+00 0.  1.
          5    1    1    2  501    0  0.16514860602E+01  0.21778830271E+01  0.23285510070E+01  0.59146200621E+01  0.47000000000E+01 0. -1.
         -5    1    1    2    0  502 -0.16514860602E+01 -0.21778830271E+01  0.99048081336E+01  0.11298929367E+02  0.47000000000E+01 0. -1.
<mgrwt>
<rscale>  2 0.54369643E+01</rscale>
<asrwt>0</asrwt>
<pdfrwt beam="1">  1       21 0.22651468E-02 0.54369643E+01</pdfrwt>
<pdfrwt beam="2">  1       21 0.38309157E-03 0.54369643E+01</pdfrwt>
<totfact> 0.34293945E+09</totfact>
</mgrwt>
</event>
<event>
 4    1  0.3858687E+006  0.6066662E+01  0.7546771E-02  0.2406827E+00
         21   -1    0    0  501  502  0.00000000000E+00  0.00000000000E+00  0.91787826778E-01  0.91787826778E-01  0.00000000000E+00 0. -1.
         21   -1    0    0  502  503 -0.00000000000E+00 -0.00000000000E+00 -0.42029583272E+03  0.42029583272E+03  0.00000000000E+00 0.  1.
          5    1    1    2  501    0  0.81132815646E+00 -0.37491510278E+01 -0.16503235816E+03  0.16514382709E+03  0.47000000000E+01 0.  1.
         -5    1    1    2    0  503 -0.81132815646E+00  0.37491510278E+01 -0.25517168673E+03  0.25524379345E+03  0.47000000000E+01 0. -1.
<mgrwt>
<rscale>  2 0.60666619E+01</rscale>
<asrwt>0</asrwt>
<pdfrwt beam="1">  1       21 0.14121116E-04 0.60666619E+01</pdfrwt>
<pdfrwt beam="2">  1       21 0.64661299E-01 0.60666619E+01</pdfrwt>
<totfact> 0.15767215E+09</totfact>
</mgrwt>
</event>
<event>
 4    1  0.3858687E+006  0.6404160E+01  0.7546771E-02  0.2365613E+00
         21   -1    0    0  501  502  0.00000000000E+00  0.00000000000E+00  0.13200365612E+01  0.13200365612E+01  0.00000000000E+00 0.  1.
         21   -1    0    0  502  503 -0.00000000000E+00 -0.00000000000E+00 -0.39175588331E+02  0.39175588331E+02  0.00000000000E+00 0.  1.
          5    1    1    2  501    0 -0.43470655285E+01  0.16212177817E+00 -0.28137957058E+02  0.28857544760E+02  0.47000000000E+01 0.  1.
         -5    1    1    2    0  503  0.43470655285E+01 -0.16212177817E+00 -0.97175947125E+01  0.11638080133E+02  0.47000000000E+01 0.  1.
<mgrwt>
<rscale>  2 0.64041598E+01</rscale>
<asrwt>0</asrwt>
<pdfrwt beam="1">  1       21 0.20308255E-03 0.64041598E+01</pdfrwt>
<pdfrwt beam="2">  1       21 0.60270135E-02 0.64041598E+01</pdfrwt>
<totfact> 0.22554692E+09</totfact>
</mgrwt>
</event>
<event>
 4    1  0.3858687E+006  0.9742472E+01  0.7546771E-02  0.2089947E+00
         21   -1    0    0  501  502  0.00000000000E+00  0.00000000000E+00  0.81652449088E+03  0.81652449088E+03  0.00000000000E+00 0. -1.
         21   -1    0    0  502  503 -0.00000000000E+00 -0.00000000000E+00 -0.13512339206E+00  0.13512339206E+00  0.00000000000E+00 0.  1.
          5    1    1    2  501    0 -0.69495332517E+01 -0.49527515859E+01  0.56082619872E+03  0.56091081370E+03  0.47000000000E+01 0. -1.
         -5    1    1    2    0  503  0.69495332517E+01  0.49527515859E+01  0.25556316877E+03  0.25574880057E+03  0.47000000000E+01 0.  1.
<mgrwt>
<rscale>  2 0.97424720E+01</rscale>
<asrwt>0</asrwt>
<pdfrwt beam="1">  1       21 0.12561520E+00 0.97424720E+01</pdfrwt>
<pdfrwt beam="2">  1       21 0.20788868E-04 0.97424720E+01</pdfrwt>
<totfact> 0.32202633E+08</totfact>
</mgrwt>
</event>
<event>
 4    1  0.3858687E+006  0.6976904E+01  0.7546771E-02  0.2303328E+00
         21   -1    0    0  503  502  0.00000000000E+00  0.00000000000E+00  0.47556660532E+03  0.47556660532E+03  0.00000000000E+00 0.  1.
         21   -1    0    0  501  503 -0.00000000000E+00 -0.00000000000E+00 -0.11323948184E+00  0.11323948184E+00  0.00000000000E+00 0.  1.
          5    1    1    2  501    0  0.50849986269E+01  0.85438666117E+00  0.16399300795E+03  0.16414135324E+03  0.47000000000E+01 0.  1.
         -5    1    1    2    0  502 -0.50849986269E+01 -0.85438666117E+00  0.31146035788E+03  0.31153849156E+03  0.47000000000E+01 0.  1.
<mgrwt>
<rscale>  2 0.69769039E+01</rscale>
<asrwt>0</asrwt>
<pdfrwt beam="1">  1       21 0.73162494E-01 0.69769039E+01</pdfrwt>
<pdfrwt beam="2">  1       21 0.17421839E-04 0.69769039E+01</pdfrwt>
<totfact> 0.10350663E+09</totfact>
</mgrwt>
</event>
<event>
 4    1  0.3858687E+006  0.5767749E+01  0.7546771E-02  0.2446668E+00
         21   -1    0    0  501  502  0.00000000000E+00  0.00000000000E+00  0.12666947016E+01  0.12666947016E+01  0.00000000000E+00 0. -1.
         21   -1    0    0  502  503 -0.00000000000E+00 -0.00000000000E+00 -0.27430550875E+02  0.27430550875E+02  0.00000000000E+00 0.  1.
          5    1    1    2  501    0 -0.50700697639E+00  0.33045237607E+01 -0.16042464725E+02  0.17047803607E+02  0.47000000000E+01 0. -1.
         -5    1    1    2    0  503  0.50700697639E+00 -0.33045237607E+01 -0.10121391448E+02  0.11649441970E+02  0.47000000000E+01 0.  1.
<mgrwt>
<rscale>  2 0.57677494E+01</rscale>
<asrwt>0</asrwt>
<pdfrwt beam="1">  1       21 0.19487612E-03 0.57677494E+01</pdfrwt>
<pdfrwt beam="2">  1       21 0.42200845E-02 0.57677494E+01</pdfrwt>
<totfact> 0.36986726E+09</totfact>
</mgrwt>
</event>
<event>
 4    1  0.3858687E+006  0.6582885E+01  0.7546771E-02  0.2345219E+00
         21   -1    0    0  501  502  0.00000000000E+00  0.00000000000E+00  0.51460873936E+01  0.51460873936E+01  0.00000000000E+00 0.  1.
         21   -1    0    0  502  503 -0.00000000000E+00 -0.00000000000E+00 -0.11217915327E+02  0.11217915327E+02  0.00000000000E+00 0.  1.
          5    1    1    2  501    0 -0.44366709146E+01  0.12491324593E+01  0.10496829536E+01  0.66660494304E+01  0.47000000000E+01 0.  1.
         -5    1    1    2    0  503  0.44366709146E+01 -0.12491324593E+01 -0.71215108869E+01  0.96979532901E+01  0.47000000000E+01 0.  1.
<mgrwt>
<rscale>  2 0.65828854E+01</rscale>
<asrwt>0</asrwt>
<pdfrwt beam="1">  1       21 0.79170577E-03 0.65828854E+01</pdfrwt>
<pdfrwt beam="2">  1       21 0.17258331E-02 0.65828854E+01</pdfrwt>
<totfact> 0.21842354E+09</totfact>
</mgrwt>
</event>
<event>
 4    1  0.3858687E+006  0.5151583E+01  0.7546771E-02  0.2540946E+00
         21   -1    0    0  501  502  0.00000000000E+00  0.00000000000E+00  0.92948541657E+00  0.92948541657E+00  0.00000000000E+00 0.  1.
         21   -1    0    0  502  503 -0.00000000000E+00 -0.00000000000E+00 -0.41740818633E+02  0.41740818633E+02  0.00000000000E+00 0.  1.
          5    1    1    2  501    0 -0.16544270804E+01  0.13083110820E+01 -0.32398332709E+02  0.32805346656E+02  0.47000000000E+01 0.  1.
         -5    1    1    2    0  503  0.16544270804E+01 -0.13083110820E+01 -0.84130005070E+01  0.98649573938E+01  0.47000000000E+01 0.  1.
<mgrwt>
<rscale>  2 0.51515829E+01</rscale>
<asrwt>0</asrwt>
<pdfrwt beam="1">  1       21 0.14299775E-03 0.51515829E+01</pdfrwt>
<pdfrwt beam="2">  1       21 0.64216645E-02 0.51515829E+01</pdfrwt>
<totfact> 0.27170522E+09</totfact>
</mgrwt>
</event>
<event>
 4    1  0.3858687E+006  0.4708609E+01  0.7546771E-02  0.2621596E+00
         21   -1    0    0  501  502  0.00000000000E+00  0.00000000000E+00  0.19097677398E+04  0.19097677398E+04  0.00000000000E+00 0. -1.
         21   -1    0    0  502  503 -0.00000000000E+00 -0.00000000000E+00 -0.11809021220E-01  0.11809021220E-01  0.00000000000E+00 0. -1.
          5    1    1    2  501    0  0.22408238433E+00 -0.17544760619E+00  0.10790715875E+04  0.10790818606E+04  0.47000000000E+01 0. -1.
         -5    1    1    2    0  503 -0.22408238433E+00  0.17544760619E+00  0.83068434330E+03  0.83069768821E+03  0.47000000000E+01 0. -1.
<mgrwt>
<rscale>  2 0.47086086E+01</rscale>
<asrwt>0</asrwt>
<pdfrwt beam="1">  1       21 0.29356326E+00 0.47086086E+01</pdfrwt>
<pdfrwt beam="2">  1       21 0.18183021E-05 0.47086086E+01</pdfrwt>
<totfact> 0.89442944E+08</totfact>
</mgrwt>
</event>
<event>
 4    1  0.3858687E+006  0.5553334E+01  0.7546771E-02  0.2477456E+00
         21   -1    0    0  501  502  0.00000000000E+00  0.00000000000E+00  0.11783795372E+02  0.11783795372E+02  0.00000000000E+00 0. -1.
         21   -1    0    0  502  503 -0.00000000000E+00 -0.00000000000E+00 -0.46509151786E+01  0.46509151786E+01  0.00000000000E+00 0.  1.
          5    1    1    2  501    0 -0.26326509206E+01 -0.13485791876E+01  0.90004105824E+01  0.10575769823E+02  0.47000000000E+01 0. -1.
         -5    1    1    2    0  503  0.26326509206E+01  0.13485791876E+01 -0.18675303892E+01  0.58589407276E+01  0.47000000000E+01 0.  1.
<mgrwt>
<rscale>  2 0.55533338E+01</rscale>
<asrwt>0</asrwt>
<pdfrwt beam="1">  1       21 0.18128916E-02 0.55533338E+01</pdfrwt>
<pdfrwt beam="2">  1       21 0.71552542E-03 0.55533338E+01</pdfrwt>
<totfact> 0.20257183E+09</totfact>
</mgrwt>
</event>
<event>
 4    1  0.3858687E+006  0.5580076E+01  0.7546771E-02  0.2473507E+00
         21   -1    0    0  503  502  0.00000000000E+00  0.00000000000E+00  0.94262944280E+01  0.94262944280E+01  0.00000000000E+00 0. -1.
         21   -1    0    0  501  503 -0.00000000000E+00 -0.00000000000E+00 -0.55845289034E+01  0.55845289034E+01  0.00000000000E+00 0.  1.
          5    1    1    2  501    0 -0.29473607000E+01  0.60025842690E+00 -0.28761432375E+01  0.62776942581E+01  0.47000000000E+01 0.  1.
         -5    1    1    2    0  502  0.29473607000E+01 -0.60025842690E+00  0.67179087621E+01  0.87331290733E+01  0.47000000000E+01 0. -1.
<mgrwt>
<rscale>  2 0.55800757E+01</rscale>
<asrwt>0</asrwt>
<pdfrwt beam="1">  1       21 0.14501991E-02 0.55800757E+01</pdfrwt>
<pdfrwt beam="2">  1       21 0.85915830E-03 0.55800757E+01</pdfrwt>
<totfact> 0.21639634E+09</totfact>
</mgrwt>
</event>
<event>
 4    1  0.3858687E+006  0.5620150E+01  0.7546771E-02  0.2467649E+00
         21   -1    0    0  503  502  0.00000000000E+00  0.00000000000E+00  0.25286692336E+02  0.25286692336E+02  0.00000000000E+00 0.  1.
         21   -1    0    0  501  503 -0.00000000000E+00 -0.00000000000E+00 -0.24160945218E+01  0.24160945218E+01  0.00000000000E+00 0.  1.
          5    1    1    2  501    0 -0.11938017579E-02  0.30815708935E+01  0.18088207172E+01  0.59040590261E+01  0.47000000000E+01 0.  1.
         -5    1    1    2    0  502  0.11938017579E-02 -0.30815708935E+01  0.21061777097E+02  0.21798727832E+02  0.47000000000E+01 0.  1.
<mgrwt>
<rscale>  2 0.56201495E+01</rscale>
<asrwt>0</asrwt>
<pdfrwt beam="1">  1       21 0.38902602E-02 0.56201495E+01</pdfrwt>
<pdfrwt beam="2">  1       21 0.37170687E-03 0.56201495E+01</pdfrwt>
<totfact> 0.16855883E+09</totfact>
</mgrwt>
</event>
<event>
 4    1  0.3858687E+006  0.6288505E+01  0.7546771E-02  0.2379321E+00
         21   -1    0    0  503  502  0.00000000000E+00  0.00000000000E+00  0.78433339471E+00  0.78433339471E+00  0.00000000000E+00 0. -1.
         21   -1    0    0  501  503 -0.00000000000E+00 -0.00000000000E+00 -0.54805100583E+02  0.54805100583E+02  0.00000000000E+00 0.  1.
          5    1    1    2  501    0 -0.37144118708E+01 -0.19127044864E+01 -0.19147320118E+02  0.20153539682E+02  0.47000000000E+01 0. -1.
         -5    1    1    2    0  502  0.37144118708E+01  0.19127044864E+01 -0.34873447070E+02  0.35435894295E+02  0.47000000000E+01 0.  1.
<mgrwt>
<rscale>  2 0.62885049E+01</rscale>
<asrwt>0</asrwt>
<pdfrwt beam="1">  1       21 0.12066670E-03 0.62885049E+01</pdfrwt>
<pdfrwt beam="2">  1       21 0.84315526E-02 0.62885049E+01</pdfrwt>
<totfact> 0.27115322E+09</totfact>
</mgrwt>
</event>
<event>
 4    1  0.3858687E+006  0.4768854E+01  0.7546771E-02  0.2609868E+00
         21   -1    0    0  503  502  0.00000000000E+00  0.00000000000E+00  0.19000554212E+03  0.19000554212E+03  0.00000000000E+00 0.  1.
         21   -1    0    0  501  503 -0.00000000000E+00 -0.00000000000E+00 -0.16441618058E+00  0.16441618058E+00  0.00000000000E+00 0.  1.
          5    1    1    2  501    0 -0.13998449480E+00 -0.79521833617E+00  0.45328141038E+02  0.45578309949E+02  0.47000000000E+01 0.  1.
         -5    1    1    2    0  502  0.13998449480E+00  0.79521833617E+00  0.14451298491E+03  0.14459164836E+03  0.47000000000E+01 0.  1.
<mgrwt>
<rscale>  2 0.47688539E+01</rscale>
<asrwt>0</asrwt>
<pdfrwt beam="1">  1       21 0.29231446E-01 0.47688539E+01</pdfrwt>
<pdfrwt beam="2">  1       21 0.25294949E-04 0.47688539E+01</pdfrwt>
<totfact> 0.23937854E+09</totfact>
</mgrwt>
</event>
<event>
 4    1  0.3858687E+006  0.5412425E+01  0.7546771E-02  0.2498809E+00
         21   -1    0    0  501  502  0.00000000000E+00  0.00000000000E+00  0.15658816559E+03  0.15658816559E+03  0.00000000000E+00 0.  1.
         21   -1    0    0  502  503 -0.00000000000E+00 -0.00000000000E+00 -0.18734647630E+00  0.18734647630E+00  0.00000000000E+00 0.  1.
          5    1    1    2  501    0  0.84064224370E+00 -0.25490521848E+01  0.75238135842E+02  0.75432562143E+02  0.47000000000E+01 0. -1.
         -5    1    1    2    0  503 -0.84064224370E+00  0.25490521848E+01  0.81162683274E+02  0.81342949926E+02  0.47000000000E+01 0. -1.
<mgrwt>
<rscale>  2 0.54124252E+01</rscale>
<asrwt>0</asrwt>
<pdfrwt beam="1">  1       21 0.24090382E-01 0.54124252E+01</pdfrwt>
<pdfrwt beam="2">  1       21 0.28822660E-04 0.54124252E+01</pdfrwt>
<totfact> 0.31076244E+09</totfact>
</mgrwt>
</event>
<event>
 4    1  0.3858687E+006  0.5365026E+01  0.7546771E-02  0.2506206E+00
         21   -1    0    0  501  502  0.00000000000E+00  0.00000000000E+00  0.43164571705E+02  0.43164571705E+02  0.00000000000E+00 0. -1.
         21   -1    0    0  502  503 -0.00000000000E+00 -0.00000000000E+00 -0.11541456195E+01  0.11541456195E+01  0.00000000000E+00 0. -1.
          5    1    1    2  501    0 -0.57346367923E+00 -0.25228234383E+01  0.35404180617E+02  0.35808371980E+02  0.47000000000E+01 0. -1.
         -5    1    1    2    0  503  0.57346367923E+00  0.25228234383E+01  0.66062454682E+01  0.85103453443E+01  0.47000000000E+01 0. -1.
<mgrwt>
<rscale>  2 0.53650255E+01</rscale>
<asrwt>0</asrwt>
<pdfrwt beam="1">  1       21 0.66407021E-02 0.53650255E+01</pdfrwt>
<pdfrwt beam="2">  1       21 0.17756090E-03 0.53650255E+01</pdfrwt>
<totfact> 0.20095194E+09</totfact>
</mgrwt>
</event>
<event>
 4    1  0.3858687E+006  0.5297066E+01  0.7546771E-02  0.2517007E+00
         21   -1    0    0  503  502  0.00000000000E+00  0.00000000000E+00  0.24457779708E+01  0.24457779708E+01  0.00000000000E+00 0. -1.
         21   -1    0    0  501  503 -0.00000000000E+00 -0.00000000000E+00 -0.13676102394E+02  0.13676102394E+02  0.00000000000E+00 0. -1.
          5    1    1    2  501    0  0.22657265297E+01 -0.91399760006E+00 -0.88509676691E+01  0.10314966650E+02  0.47000000000E+01 0. -1.
         -5    1    1    2    0  502 -0.22657265297E+01  0.91399760006E+00 -0.23793567538E+01  0.58069137140E+01  0.47000000000E+01 0. -1.
<mgrwt>
<rscale>  2 0.52970660E+01</rscale>
<asrwt>0</asrwt>
<pdfrwt beam="1">  1       21 0.37627354E-03 0.52970660E+01</pdfrwt>
<pdfrwt beam="2">  1       21 0.21040157E-02 0.52970660E+01</pdfrwt>
<totfact> 0.38057970E+09</totfact>
</mgrwt>
</event>
<event>
 4    1  0.3858687E+006  0.5337161E+01  0.7546771E-02  0.2510606E+00
         21   -1    0    0  503  502  0.00000000000E+00  0.00000000000E+00  0.18259632874E+00  0.18259632874E+00  0.00000000000E+00 0.  1.
         21   -1    0    0  501  503 -0.00000000000E+00 -0.00000000000E+00 -0.20657668416E+03  0.20657668416E+03  0.00000000000E+00 0. -1.
          5    1    1    2  501    0 -0.25276753534E+01 -0.78370447545E-01 -0.15434914666E+03  0.15444139458E+03  0.47000000000E+01 0. -1.
         -5    1    1    2    0  502  0.25276753534E+01  0.78370447545E-01 -0.52044941172E+02  0.52317885912E+02  0.47000000000E+01 0.  1.
<mgrwt>
<rscale>  2 0.53371607E+01</rscale>
<asrwt>0</asrwt>
<pdfrwt beam="1">  1       21 0.28091807E-04 0.53371607E+01</pdfrwt>
<pdfrwt beam="2">  1       21 0.31780956E-01 0.53371607E+01</pdfrwt>
<totfact> 0.20084559E+09</totfact>
</mgrwt>
</event>
<event>
 4    1  0.3858687E+006  0.2163182E+02  0.7546771E-02  0.1714698E+00
         21   -1    0    0  503  502  0.00000000000E+00  0.00000000000E+00  0.18897276431E+02  0.18897276431E+02  0.00000000000E+00 0.  1.
         21   -1    0    0  501  503 -0.00000000000E+00 -0.00000000000E+00 -0.83376593229E+02  0.83376593229E+02  0.00000000000E+00 0.  1.
          5    1    1    2  501    0 -0.21103987126E+02  0.68375489115E+00 -0.75115752584E+02  0.78168485208E+02  0.47000000000E+01 0.  1.
         -5    1    1    2    0  502  0.21103987126E+02 -0.68375489115E+00  0.10636435786E+02  0.24105384452E+02  0.47000000000E+01 0.  1.
<mgrwt>
<rscale>  2 0.21631824E+02</rscale>
<asrwt>0</asrwt>
<pdfrwt beam="1">  1       21 0.29072733E-02 0.21631824E+02</pdfrwt>
<pdfrwt beam="2">  1       21 0.12827168E-01 0.21631824E+02</pdfrwt>
<totfact> 0.25460495E+07</totfact>
</mgrwt>
</event>
<event>
 4    1  0.3858687E+006  0.7708821E+01  0.7546771E-02  0.2234960E+00
         21   -1    0    0  501  502  0.00000000000E+00  0.00000000000E+00  0.32015776054E+02  0.32015776054E+02  0.00000000000E+00 0. -1.
         21   -1    0    0  502  503 -0.00000000000E+00 -0.00000000000E+00 -0.22998505874E+01  0.22998505874E+01  0.00000000000E+00 0. -1.
          5    1    1    2  501    0  0.25875946279E+01 -0.55353653705E+01  0.22394288818E+02  0.23683962662E+02  0.47000000000E+01 0. -1.
         -5    1    1    2    0  503 -0.25875946279E+01  0.55353653705E+01  0.73216366485E+01  0.10631663979E+02  0.47000000000E+01 0. -1.
<mgrwt>
<rscale>  2 0.77088206E+01</rscale>
<asrwt>0</asrwt>
<pdfrwt beam="1">  1       21 0.49255037E-02 0.77088206E+01</pdfrwt>
<pdfrwt beam="2">  1       21 0.35382319E-03 0.77088206E+01</pdfrwt>
<totfact> 0.16327685E+09</totfact>
</mgrwt>
</event>
<event>
 4    1  0.3858687E+006  0.6799973E+01  0.7546771E-02  0.2321644E+00
         21   -1    0    0  503  502  0.00000000000E+00  0.00000000000E+00  0.24633585442E+02  0.24633585442E+02  0.00000000000E+00 0.  1.
         21   -1    0    0  501  503 -0.00000000000E+00 -0.00000000000E+00 -0.82844000062E+01  0.82844000062E+01  0.00000000000E+00 0. -1.
          5    1    1    2  501    0 -0.13145270968E+01  0.47351500402E+01 -0.63001334679E+01  0.92699141908E+01  0.47000000000E+01 0. -1.
         -5    1    1    2    0  502  0.13145270968E+01 -0.47351500402E+01  0.22649318903E+02  0.23648071257E+02  0.47000000000E+01 0.  1.
<mgrwt>
<rscale>  2 0.67999726E+01</rscale>
<asrwt>0</asrwt>
<pdfrwt beam="1">  1       21 0.37897823E-02 0.67999726E+01</pdfrwt>
<pdfrwt beam="2">  1       21 0.12745231E-02 0.67999726E+01</pdfrwt>
<totfact> 0.36140369E+08</totfact>
</mgrwt>
</event>
<event>
 4    1  0.3858687E+006  0.6495094E+01  0.7546771E-02  0.2355121E+00
         21   -1    0    0  501  502  0.00000000000E+00  0.00000000000E+00  0.50733418004E+02  0.50733418004E+02  0.00000000000E+00 0. -1.
         21   -1    0    0  502  503 -0.00000000000E+00 -0.00000000000E+00 -0.16022851207E+01  0.16022851207E+01  0.00000000000E+00 0. -1.
          5    1    1    2  501    0  0.35950203619E+01 -0.26780732988E+01  0.42714745857E+02  0.43205737600E+02  0.47000000000E+01 0. -1.
         -5    1    1    2    0  503 -0.35950203619E+01  0.26780732988E+01  0.64163870262E+01  0.91299655239E+01  0.47000000000E+01 0. -1.
<mgrwt>
<rscale>  2 0.64950941E+01</rscale>
<asrwt>0</asrwt>
<pdfrwt beam="1">  1       21 0.78051400E-02 0.64950941E+01</pdfrwt>
<pdfrwt beam="2">  1       21 0.24650544E-03 0.64950941E+01</pdfrwt>
<totfact> 0.11832841E+09</totfact>
</mgrwt>
</event>
<event>
 4    1  0.3858687E+006  0.5489788E+01  0.7546771E-02  0.2486971E+00
         21   -1    0    0  501  502  0.00000000000E+00  0.00000000000E+00  0.29688563023E+02  0.29688563023E+02  0.00000000000E+00 0. -1.
         21   -1    0    0  502  503 -0.00000000000E+00 -0.00000000000E+00 -0.71731252500E+01  0.71731252500E+01  0.00000000000E+00 0. -1.
          5    1    1    2  501    0  0.30413885917E+00 -0.28205082809E+01  0.28334683350E+02  0.28861601618E+02  0.47000000000E+01 0. -1.
         -5    1    1    2    0  503 -0.30413885917E+00  0.28205082809E+01 -0.58192455768E+01  0.80000866553E+01  0.47000000000E+01 0. -1.
<mgrwt>
<rscale>  2 0.54897876E+01</rscale>
<asrwt>0</asrwt>
<pdfrwt beam="1">  1       21 0.45674711E-02 0.54897876E+01</pdfrwt>
<pdfrwt beam="2">  1       21 0.11035578E-02 0.54897876E+01</pdfrwt>
<totfact> 0.28797189E+08</totfact>
</mgrwt>
</event>
<event>
 4    1  0.3858687E+006  0.5965481E+01  0.7546771E-02  0.2419938E+00
         21   -1    0    0  503  502  0.00000000000E+00  0.00000000000E+00  0.12057600983E+01  0.12057600983E+01  0.00000000000E+00 0. -1.
         21   -1    0    0  501  503 -0.00000000000E+00 -0.00000000000E+00 -0.60390506329E+02  0.60390506329E+02  0.00000000000E+00 0.  1.
          5    1    1    2  501    0  0.74249787242E+00  0.35980079279E+01 -0.51614192584E+02  0.51957789023E+02  0.47000000000E+01 0.  1.
         -5    1    1    2    0  502 -0.74249787242E+00 -0.35980079279E+01 -0.75705536468E+01  0.96384774036E+01  0.47000000000E+01 0. -1.
<mgrwt>
<rscale>  2 0.59654810E+01</rscale>
<asrwt>0</asrwt>
<pdfrwt beam="1">  1       21 0.18550158E-03 0.59654810E+01</pdfrwt>
<pdfrwt beam="2">  1       21 0.92908456E-02 0.59654810E+01</pdfrwt>
<totfact> 0.12503922E+09</totfact>
</mgrwt>
</event>
<event>
 4    1  0.3858687E+006  0.4749509E+01  0.7546771E-02  0.2613606E+00
         21   -1    0    0  503  502  0.00000000000E+00  0.00000000000E+00  0.91807843321E+02  0.91807843321E+02  0.00000000000E+00 0.  1.
         21   -1    0    0  501  503 -0.00000000000E+00 -0.00000000000E+00 -0.24980786734E+00  0.24980786734E+00  0.00000000000E+00 0.  1.
          5    1    1    2  501    0  0.35965406986E+00  0.58179335173E+00  0.51676436028E+02  0.51894237397E+02  0.47000000000E+01 0. -1.
         -5    1    1    2    0  502 -0.35965406986E+00 -0.58179335173E+00  0.39881599427E+02  0.40163413791E+02  0.47000000000E+01 0. -1.
<mgrwt>
<rscale>  2 0.47495089E+01</rscale>
<asrwt>0</asrwt>
<pdfrwt beam="1">  1       21 0.14124257E-01 0.47495089E+01</pdfrwt>
<pdfrwt beam="2">  1       21 0.38432053E-04 0.47495089E+01</pdfrwt>
<totfact> 0.43569082E+09</totfact>
</mgrwt>
</event>
<event>
 4    1  0.3858687E+006  0.5392113E+01  0.7546771E-02  0.2501965E+00
         21   -1    0    0  503  502  0.00000000000E+00  0.00000000000E+00  0.10774114085E+04  0.10774114085E+04  0.00000000000E+00 0.  1.
         21   -1    0    0  501  503 -0.00000000000E+00 -0.00000000000E+00 -0.28746242036E-01  0.28746242036E-01  0.00000000000E+00 0. -1.
          5    1    1    2  501    0 -0.16163459434E+01 -0.20910062867E+01  0.40537751421E+03  0.40541337411E+03  0.47000000000E+01 0. -1.
         -5    1    1    2    0  502  0.16163459434E+01  0.20910062867E+01  0.67200514805E+03  0.67202678063E+03  0.47000000000E+01 0. -1.
<mgrwt>
<rscale>  2 0.53921129E+01</rscale>
<asrwt>0</asrwt>
<pdfrwt beam="1">  1       21 0.16572327E+00 0.53921129E+01</pdfrwt>
<pdfrwt beam="2">  1       21 0.44233617E-05 0.53921129E+01</pdfrwt>
<totfact> 0.10210945E+09</totfact>
</mgrwt>
</event>
<event>
 4    1  0.3858687E+006  0.5466386E+01  0.7546771E-02  0.2490522E+00
         21   -1    0    0  501  502  0.00000000000E+00  0.00000000000E+00  0.19909948171E+03  0.19909948171E+03  0.00000000000E+00 0. -1.
         21   -1    0    0  502  503 -0.00000000000E+00 -0.00000000000E+00 -0.22396272284E+00  0.22396272284E+00  0.00000000000E+00 0.  1.
          5    1    1    2  501    0  0.18403133641E-01 -0.27912420795E+01  0.42197146456E+02  0.42549741950E+02  0.47000000000E+01 0.  1.
         -5    1    1    2    0  503 -0.18403133641E-01  0.27912420795E+01  0.15667837253E+03  0.15677370248E+03  0.47000000000E+01 0. -1.
<mgrwt>
<rscale>  2 0.54663856E+01</rscale>
<asrwt>0</asrwt>
<pdfrwt beam="1">  1       21 0.30630548E-01 0.54663856E+01</pdfrwt>
<pdfrwt beam="2">  1       21 0.34455963E-04 0.54663856E+01</pdfrwt>
<totfact> 0.16623827E+09</totfact>
</mgrwt>
</event>
<event>
 4    1  0.3858687E+006  0.8732351E+01  0.7546771E-02  0.2155232E+00
         21   -1    0    0  501  502  0.00000000000E+00  0.00000000000E+00  0.90334242819E+01  0.90334242819E+01  0.00000000000E+00 0.  1.
         21   -1    0    0  502  503 -0.00000000000E+00 -0.00000000000E+00 -0.30929231212E+02  0.30929231212E+02  0.00000000000E+00 0. -1.
          5    1    1    2  501    0  0.51429359946E+01 -0.52644238954E+01  0.60899320217E+01  0.10646183430E+02  0.47000000000E+01 0.  1.
         -5    1    1    2    0  503 -0.51429359946E+01  0.52644238954E+01 -0.27985738951E+02  0.29316472064E+02  0.47000000000E+01 0. -1.
<mgrwt>
<rscale>  2 0.87323507E+01</rscale>
<asrwt>0</asrwt>
<pdfrwt beam="1">  1       21 0.13897576E-02 0.87323507E+01</pdfrwt>
<pdfrwt beam="2">  1       21 0.47583433E-02 0.87323507E+01</pdfrwt>
<totfact> 0.26498761E+08</totfact>
</mgrwt>
</event>
<event>
 4    1  0.3858687E+006  0.6115809E+01  0.7546771E-02  0.2400590E+00
         21   -1    0    0  501  502  0.00000000000E+00  0.00000000000E+00  0.25919555584E+01  0.25919555584E+01  0.00000000000E+00 0. -1.
         21   -1    0    0  502  503 -0.00000000000E+00 -0.00000000000E+00 -0.17544875759E+02  0.17544875759E+02  0.00000000000E+00 0.  1.
          5    1    1    2  501    0  0.17718138838E+01  0.34890972580E+01 -0.32344282075E+01  0.69184282857E+01  0.47000000000E+01 0. -1.
         -5    1    1    2    0  503 -0.17718138838E+01 -0.34890972580E+01 -0.11718491993E+02  0.13218403031E+02  0.47000000000E+01 0. -1.
<mgrwt>
<rscale>  2 0.61158094E+01</rscale>
<asrwt>0</asrwt>
<pdfrwt beam="1">  1       21 0.39876239E-03 0.61158094E+01</pdfrwt>
<pdfrwt beam="2">  1       21 0.26992117E-02 0.61158094E+01</pdfrwt>
<totfact> 0.28038347E+09</totfact>
</mgrwt>
</event>
<event>
 4    1  0.3858687E+006  0.5921202E+01  0.7546771E-02  0.2425793E+00
         21   -1    0    0  501  502  0.00000000000E+00  0.00000000000E+00  0.67473864773E+00  0.67473864773E+00  0.00000000000E+00 0. -1.
         21   -1    0    0  502  503 -0.00000000000E+00 -0.00000000000E+00 -0.26644176012E+03  0.26644176012E+03  0.00000000000E+00 0. -1.
          5    1    1    2  501    0 -0.19489314118E+00 -0.35961997506E+01 -0.13054236472E+02  0.14334354741E+02  0.47000000000E+01 0. -1.
         -5    1    1    2    0  503  0.19489314118E+00  0.35961997506E+01 -0.25271278500E+03  0.25278214402E+03  0.47000000000E+01 0. -1.
<mgrwt>
<rscale>  2 0.59212022E+01</rscale>
<asrwt>0</asrwt>
<pdfrwt beam="1">  1       21 0.10380605E-03 0.59212022E+01</pdfrwt>
<pdfrwt beam="2">  1       21 0.40990998E-01 0.59212022E+01</pdfrwt>
<totfact> 0.24603106E+08</totfact>
</mgrwt>
</event>
<event>
 4    1  0.3858687E+006  0.6563281E+01  0.7546771E-02  0.2347411E+00
         21   -1    0    0  501  502  0.00000000000E+00  0.00000000000E+00  0.24333827777E+01  0.24333827777E+01  0.00000000000E+00 0.  1.
         21   -1    0    0  502  503 -0.00000000000E+00 -0.00000000000E+00 -0.20596687796E+02  0.20596687796E+02  0.00000000000E+00 0. -1.
          5    1    1    2  501    0  0.19252627082E+01  0.41569251401E+01 -0.47650799527E+01  0.81106504099E+01  0.47000000000E+01 0.  1.
         -5    1    1    2    0  503 -0.19252627082E+01 -0.41569251401E+01 -0.13398225065E+02  0.14919420164E+02  0.47000000000E+01 0. -1.
<mgrwt>
<rscale>  2 0.65632814E+01</rscale>
<asrwt>0</asrwt>
<pdfrwt beam="1">  1       21 0.37436657E-03 0.65632814E+01</pdfrwt>
<pdfrwt beam="2">  1       21 0.31687213E-02 0.65632814E+01</pdfrwt>
<totfact> 0.25720596E+09</totfact>
</mgrwt>
</event>
<event>
 4    1  0.3858687E+006  0.5278023E+01  0.7546771E-02  0.2520076E+00
         21   -1    0    0  501  502  0.00000000000E+00  0.00000000000E+00  0.17295771368E+01  0.17295771368E+01  0.00000000000E+00 0.  1.
         21   -1    0    0  502  503 -0.00000000000E+00 -0.00000000000E+00 -0.58924908467E+02  0.58924908467E+02  0.00000000000E+00 0.  1.
          5    1    1    2  501    0  0.20729830392E+01  0.12125455463E+01 -0.27454087691E+01  0.59493524599E+01  0.47000000000E+01 0.  1.
         -5    1    1    2    0  503 -0.20729830392E+01 -0.12125455463E+01 -0.54449922561E+02  0.54705133144E+02  0.47000000000E+01 0.  1.
<mgrwt>
<rscale>  2 0.52780229E+01</rscale>
<asrwt>0</asrwt>
<pdfrwt beam="1">  1       21 0.26608874E-03 0.52780229E+01</pdfrwt>
<pdfrwt beam="2">  1       21 0.90653722E-02 0.52780229E+01</pdfrwt>
<totfact> 0.71814026E+08</totfact>
</mgrwt>
</event>
<event>
 4    1  0.3858687E+006  0.7199117E+01  0.7546771E-02  0.2281376E+00
         21   -1    0    0  501  502  0.00000000000E+00  0.00000000000E+00  0.63001292277E+00  0.63001292277E+00  0.00000000000E+00 0. -1.
         21   -1    0    0  502  503 -0.00000000000E+00 -0.00000000000E+00 -0.10909131699E+03  0.10909131699E+03  0.00000000000E+00 0. -1.
          5    1    1    2  501    0 -0.37447973437E+01 -0.39640615949E+01 -0.27025210903E+02  0.27967647663E+02  0.47000000000E+01 0. -1.
         -5    1    1    2    0  503  0.37447973437E+01  0.39640615949E+01 -0.81436093162E+02  0.81753682248E+02  0.47000000000E+01 0. -1.
<mgrwt>
<rscale>  2 0.71991174E+01</rscale>
<asrwt>0</asrwt>
<pdfrwt beam="1">  1       21 0.96925030E-04 0.71991174E+01</pdfrwt>
<pdfrwt beam="2">  1       21 0.16783286E-01 0.71991174E+01</pdfrwt>
<totfact> 0.13760581E+09</totfact>
</mgrwt>
</event>
<event>
 4    1  0.3858687E+006  0.7178670E+01  0.7546771E-02  0.2283349E+00
         21   -1    0    0  501  502  0.00000000000E+00  0.00000000000E+00  0.26241807786E+00  0.26241807786E+00  0.00000000000E+00 0.  1.
         21   -1    0    0  502  503 -0.00000000000E+00 -0.00000000000E+00 -0.28955927374E+03  0.28955927374E+03  0.00000000000E+00 0.  1.
          5    1    1    2  501    0 -0.13392307576E+01  0.52583048645E+01 -0.62444049713E+02  0.62855331147E+02  0.47000000000E+01 0.  1.
         -5    1    1    2    0  503  0.13392307576E+01 -0.52583048645E+01 -0.22685280595E+03  0.22696636067E+03  0.47000000000E+01 0.  1.
<mgrwt>
<rscale>  2 0.71786704E+01</rscale>
<asrwt>0</asrwt>
<pdfrwt beam="1">  1       21 0.40371938E-04 0.71786704E+01</pdfrwt>
<pdfrwt beam="2">  1       21 0.44547662E-01 0.71786704E+01</pdfrwt>
<totfact> 0.85843995E+08</totfact>
</mgrwt>
</event>
<event>
 4    1  0.3858687E+006  0.9157561E+01  0.7546771E-02  0.2126361E+00
         21   -1    0    0  501  502  0.00000000000E+00  0.00000000000E+00  0.15580921600E+01  0.15580921600E+01  0.00000000000E+00 0.  1.
         21   -1    0    0  502  503 -0.00000000000E+00 -0.00000000000E+00 -0.10931301921E+03  0.10931301921E+03  0.00000000000E+00 0. -1.
          5    1    1    2  501    0 -0.98887358966E-01  0.78588260643E+01 -0.14380785250E+02  0.17048985607E+02  0.47000000000E+01 0.  1.
         -5    1    1    2    0  503  0.98887358966E-01 -0.78588260643E+01 -0.93374141795E+02  0.93822125758E+02  0.47000000000E+01 0. -1.
<mgrwt>
<rscale>  2 0.91575611E+01</rscale>
<asrwt>0</asrwt>
<pdfrwt beam="1">  1       21 0.23970646E-03 0.91575611E+01</pdfrwt>
<pdfrwt beam="2">  1       21 0.16817389E-01 0.91575611E+01</pdfrwt>
<totfact> 0.45834966E+08</totfact>
</mgrwt>
</event>
<event>
 4    1  0.3858687E+006  0.7020163E+01  0.7546771E-02  0.2298966E+00
         21   -1    0    0  503  502  0.00000000000E+00  0.00000000000E+00  0.12681861795E+04  0.12681861795E+04  0.00000000000E+00 0. -1.
         21   -1    0    0  501  503 -0.00000000000E+00 -0.00000000000E+00 -0.41421481443E-01  0.41421481443E-01  0.00000000000E+00 0.  1.
          5    1    1    2  501    0 -0.18792287963E+00  0.52112737967E+01  0.79173721224E+03  0.79176833477E+03  0.47000000000E+01 0. -1.
         -5    1    1    2    0  502  0.18792287963E+00 -0.52112737967E+01  0.47640754575E+03  0.47645926619E+03  0.47000000000E+01 0.  1.
<mgrwt>
<rscale>  2 0.70201631E+01</rscale>
<asrwt>0</asrwt>
<pdfrwt beam="1">  1       21 0.19507447E+00 0.70201631E+01</pdfrwt>
<pdfrwt beam="2">  1       21 0.63735513E-05 0.70201631E+01</pdfrwt>
<totfact> 0.50844225E+08</totfact>
</mgrwt>
</event>
<event>
 4    1  0.3858687E+006  0.5452533E+01  0.7546771E-02  0.2492636E+00
         21   -1    0    0  501  502  0.00000000000E+00  0.00000000000E+00  0.60900791527E+00  0.60900791527E+00  0.00000000000E+00 0. -1.
         21   -1    0    0  502  503 -0.00000000000E+00 -0.00000000000E+00 -0.48959065859E+02  0.48959065859E+02  0.00000000000E+00 0. -1.
          5    1    1    2  501    0  0.27133311118E+01 -0.52721136300E+00 -0.25508712465E+02  0.26084948326E+02  0.47000000000E+01 0. -1.
         -5    1    1    2    0  503 -0.27133311118E+01  0.52721136300E+00 -0.22841345478E+02  0.23483125448E+02  0.47000000000E+01 0. -1.
<mgrwt>
<rscale>  2 0.54525331E+01</rscale>
<asrwt>0</asrwt>
<pdfrwt beam="1">  1       21 0.93693504E-04 0.54525331E+01</pdfrwt>
<pdfrwt beam="2">  1       21 0.75321657E-02 0.54525331E+01</pdfrwt>
<totfact> 0.39832983E+09</totfact>
</mgrwt>
</event>
<event>
 4    1  0.3858687E+006  0.7299190E+01  0.7546771E-02  0.2271848E+00
         21   -1    0    0  501  502  0.00000000000E+00  0.00000000000E+00  0.11803384414E+03  0.11803384414E+03  0.00000000000E+00 0. -1.
         21   -1    0    0  502  503 -0.00000000000E+00 -0.00000000000E+00 -0.49092905069E+00  0.49092905069E+00  0.00000000000E+00 0. -1.
          5    1    1    2  501    0 -0.55840757673E+01 -0.79224173639E-01  0.75591803158E+02  0.75943392624E+02  0.47000000000E+01 0. -1.
         -5    1    1    2    0  503  0.55840757673E+01  0.79224173639E-01  0.41951111929E+02  0.42581380564E+02  0.47000000000E+01 0. -1.
<mgrwt>
<rscale>  2 0.72991903E+01</rscale>
<asrwt>0</asrwt>
<pdfrwt beam="1">  1       21 0.18159030E-01 0.72991903E+01</pdfrwt>
<pdfrwt beam="2">  1       21 0.75527640E-04 0.72991903E+01</pdfrwt>
<totfact> 0.17151343E+09</totfact>
</mgrwt>
</event>
<event>
 4    1  0.3858687E+006  0.5660503E+01  0.7546771E-02  0.2461821E+00
         21   -1    0    0  501  502  0.00000000000E+00  0.00000000000E+00  0.21658279043E+02  0.21658279043E+02  0.00000000000E+00 0. -1.
         21   -1    0    0  502  503 -0.00000000000E+00 -0.00000000000E+00 -0.26995203528E+01  0.26995203528E+01  0.00000000000E+00 0. -1.
          5    1    1    2  501    0 -0.30418683958E+01 -0.83566239522E+00  0.17667152141E+02  0.18551807452E+02  0.47000000000E+01 0. -1.
         -5    1    1    2    0  503  0.30418683958E+01  0.83566239522E+00  0.12916065499E+01  0.58059919442E+01  0.47000000000E+01 0. -1.
<mgrwt>
<rscale>  2 0.56605031E+01</rscale>
<asrwt>0</asrwt>
<pdfrwt beam="1">  1       21 0.33320428E-02 0.56605031E+01</pdfrwt>
<pdfrwt beam="2">  1       21 0.41531084E-03 0.56605031E+01</pdfrwt>
<totfact> 0.18245774E+09</totfact>
</mgrwt>
</event>
<event>
 4    1  0.3858687E+006  0.7442603E+01  0.7546771E-02  0.2258558E+00
         21   -1    0    0  503  502  0.00000000000E+00  0.00000000000E+00  0.11364622963E+02  0.11364622963E+02  0.00000000000E+00 0. -1.
         21   -1    0    0  501  503 -0.00000000000E+00 -0.00000000000E+00 -0.18608861674E+02  0.18608861674E+02  0.00000000000E+00 0.  1.
          5    1    1    2  501    0  0.46514742348E-01 -0.57706302786E+01 -0.16497434278E+02  0.18098554506E+02  0.47000000000E+01 0. -1.
         -5    1    1    2    0  502 -0.46514742348E-01  0.57706302786E+01  0.92531955667E+01  0.11874930132E+02  0.47000000000E+01 0. -1.
<mgrwt>
<rscale>  2 0.74426029E+01</rscale>
<asrwt>0</asrwt>
<pdfrwt beam="1">  1       21 0.17484035E-02 0.74426029E+01</pdfrwt>
<pdfrwt beam="2">  1       21 0.28629018E-02 0.74426029E+01</pdfrwt>
<totfact> 0.36818353E+08</totfact>
</mgrwt>
</event>
<event>
 4    1  0.3858687E+006  0.1023251E+02  0.7546771E-02  0.2061992E+00
         21   -1    0    0  501  502  0.00000000000E+00  0.00000000000E+00  0.60291045604E+00  0.60291045604E+00  0.00000000000E+00 0. -1.
         21   -1    0    0  502  503 -0.00000000000E+00 -0.00000000000E+00 -0.18856101692E+03  0.18856101692E+03  0.00000000000E+00 0. -1.
          5    1    1    2  501    0  0.80887826274E+01  0.41455896420E+01 -0.12056306418E+03  0.12099651549E+03  0.47000000000E+01 0. -1.
         -5    1    1    2    0  503 -0.80887826274E+01 -0.41455896420E+01 -0.67395042287E+02  0.68167411882E+02  0.47000000000E+01 0. -1.
<mgrwt>
<rscale>  2 0.10232513E+02</rscale>
<asrwt>0</asrwt>
<pdfrwt beam="1">  1       21 0.92755629E-04 0.10232513E+02</pdfrwt>
<pdfrwt beam="2">  1       21 0.29009333E-01 0.10232513E+02</pdfrwt>
<totfact> 0.72430993E+08</totfact>
</mgrwt>
</event>
<event>
 4    1  0.3858687E+006  0.8989687E+01  0.7546771E-02  0.2137500E+00
         21   -1    0    0  501  502  0.00000000000E+00  0.00000000000E+00  0.89840166588E+01  0.89840166588E+01  0.00000000000E+00 0.  1.
         21   -1    0    0  502  503 -0.00000000000E+00 -0.00000000000E+00 -0.14232826321E+02  0.14232826321E+02  0.00000000000E+00 0. -1.
          5    1    1    2  501    0 -0.32537595479E+01 -0.69381208954E+01  0.44174679573E+01  0.10016411329E+02  0.47000000000E+01 0. -1.
         -5    1    1    2    0  503  0.32537595479E+01  0.69381208954E+01 -0.96662776196E+01  0.13200431651E+02  0.47000000000E+01 0.  1.
<mgrwt>
<rscale>  2 0.89896870E+01</rscale>
<asrwt>0</asrwt>
<pdfrwt beam="1">  1       21 0.13821564E-02 0.89896870E+01</pdfrwt>
<pdfrwt beam="2">  1       21 0.21896656E-02 0.89896870E+01</pdfrwt>
<totfact> 0.86679512E+08</totfact>
</mgrwt>
</event>
<event>
 4    1  0.3858687E+006  0.6392266E+01  0.7546771E-02  0.2367004E+00
         21   -1    0    0  503  502  0.00000000000E+00  0.00000000000E+00  0.10095857942E+01  0.10095857942E+01  0.00000000000E+00 0.  1.
         21   -1    0    0  501  503 -0.00000000000E+00 -0.00000000000E+00 -0.11097834698E+03  0.11097834698E+03  0.00000000000E+00 0.  1.
          5    1    1    2  501    0  0.95383339306E+00 -0.42262587829E+01 -0.99614992567E+02  0.99819876806E+02  0.47000000000E+01 0.  1.
         -5    1    1    2    0  502 -0.95383339306E+00  0.42262587829E+01 -0.10353768621E+02  0.12168055970E+02  0.47000000000E+01 0.  1.
<mgrwt>
<rscale>  2 0.63922658E+01</rscale>
<asrwt>0</asrwt>
<pdfrwt beam="1">  1       21 0.15532092E-03 0.63922658E+01</pdfrwt>
<pdfrwt beam="2">  1       21 0.17073588E-01 0.63922658E+01</pdfrwt>
<totfact> 0.64866259E+08</totfact>
</mgrwt>
</event>
<event>
 4    1  0.3858687E+006  0.5661440E+01  0.7546771E-02  0.2461687E+00
         21   -1    0    0  503  502  0.00000000000E+00  0.00000000000E+00  0.20820944842E+01  0.20820944842E+01  0.00000000000E+00 0.  1.
         21   -1    0    0  501  503 -0.00000000000E+00 -0.00000000000E+00 -0.40642763095E+02  0.40642763095E+02  0.00000000000E+00 0. -1.
          5    1    1    2  501    0 -0.23688793453E+01  0.20857417502E+01 -0.36117867612E+02  0.36558887686E+02  0.47000000000E+01 0. -1.
         -5    1    1    2    0  502  0.23688793453E+01 -0.20857417502E+01 -0.24428009983E+01  0.61659698927E+01  0.47000000000E+01 0.  1.
<mgrwt>
<rscale>  2 0.56614405E+01</rscale>
<asrwt>0</asrwt>
<pdfrwt beam="1">  1       21 0.32032225E-03 0.56614405E+01</pdfrwt>
<pdfrwt beam="2">  1       21 0.62527323E-02 0.56614405E+01</pdfrwt>
<totfact> 0.10331292E+09</totfact>
</mgrwt>
</event>
<event>
 4    1  0.3858687E+006  0.4724914E+01  0.7546771E-02  0.2618397E+00
         21   -1    0    0  501  502  0.00000000000E+00  0.00000000000E+00  0.22822171336E+03  0.22822171336E+03  0.00000000000E+00 0.  1.
         21   -1    0    0  502  503 -0.00000000000E+00 -0.00000000000E+00 -0.10448155586E+00  0.10448155586E+00  0.00000000000E+00 0.  1.
          5    1    1    2  501    0 -0.37502447911E+00 -0.30686645450E+00  0.14288369918E+03  0.14296180014E+03  0.47000000000E+01 0.  1.
         -5    1    1    2    0  503  0.37502447911E+00  0.30686645450E+00  0.85233532626E+02  0.85364394769E+02  0.47000000000E+01 0.  1.
<mgrwt>
<rscale>  2 0.47249138E+01</rscale>
<asrwt>0</asrwt>
<pdfrwt beam="1">  1       21 0.35110634E-01 0.47249138E+01</pdfrwt>
<pdfrwt beam="2">  1       21 0.16074268E-04 0.47249138E+01</pdfrwt>
<totfact> 0.31834317E+09</totfact>
</mgrwt>
</event>
<event>
 4    1  0.3858687E+006  0.5420319E+01  0.7546771E-02  0.2497588E+00
         21   -1    0    0  501  502  0.00000000000E+00  0.00000000000E+00  0.90544263026E+01  0.90544263026E+01  0.00000000000E+00 0. -1.
         21   -1    0    0  502  503 -0.00000000000E+00 -0.00000000000E+00 -0.26310659313E+02  0.26310659313E+02  0.00000000000E+00 0. -1.
          5    1    1    2  501    0 -0.20668697270E+01  0.17372116533E+01  0.79281960887E+01  0.96039652237E+01  0.47000000000E+01 0. -1.
         -5    1    1    2    0  503  0.20668697270E+01 -0.17372116533E+01 -0.25184429099E+02  0.25761120391E+02  0.47000000000E+01 0. -1.
<mgrwt>
<rscale>  2 0.54203187E+01</rscale>
<asrwt>0</asrwt>
<pdfrwt beam="1">  1       21 0.13929886E-02 0.54203187E+01</pdfrwt>
<pdfrwt beam="2">  1       21 0.40477938E-02 0.54203187E+01</pdfrwt>
<totfact> 0.24504978E+08</totfact>
</mgrwt>
</event>
<event>
 4    1  0.3858687E+006  0.6327709E+01  0.7546771E-02  0.2374628E+00
         21   -1    0    0  501  502  0.00000000000E+00  0.00000000000E+00  0.15024373142E+01  0.15024373142E+01  0.00000000000E+00 0.  1.
         21   -1    0    0  502  503 -0.00000000000E+00 -0.00000000000E+00 -0.39709288749E+02  0.39709288749E+02  0.00000000000E+00 0.  1.
          5    1    1    2  501    0  0.86706994130E+00  0.41470576458E+01 -0.72864825207E+01  0.96505297743E+01  0.47000000000E+01 0.  1.
         -5    1    1    2    0  503 -0.86706994130E+00 -0.41470576458E+01 -0.30920368914E+02  0.31561196289E+02  0.47000000000E+01 0.  1.
<mgrwt>
<rscale>  2 0.63277087E+01</rscale>
<asrwt>0</asrwt>
<pdfrwt beam="1">  1       21 0.23114422E-03 0.63277087E+01</pdfrwt>
<pdfrwt beam="2">  1       21 0.61091208E-02 0.63277087E+01</pdfrwt>
<totfact> 0.18333094E+09</totfact>
</mgrwt>
</event>
<event>
 4    1  0.3858687E+006  0.5479148E+01  0.7546771E-02  0.2488582E+00
         21   -1    0    0  501  502  0.00000000000E+00  0.00000000000E+00  0.57108297963E+01  0.57108297963E+01  0.00000000000E+00 0.  1.
         21   -1    0    0  502  503 -0.00000000000E+00 -0.00000000000E+00 -0.30777449661E+02  0.30777449661E+02  0.00000000000E+00 0.  1.
          5    1    1    2  501    0 -0.62246293091E+00 -0.27465612572E+01  0.40798554467E+01  0.68312721586E+01  0.47000000000E+01 0.  1.
         -5    1    1    2    0  503  0.62246293091E+00  0.27465612572E+01 -0.29146475311E+02  0.29657007299E+02  0.47000000000E+01 0.  1.
<mgrwt>
<rscale>  2 0.54791476E+01</rscale>
<asrwt>0</asrwt>
<pdfrwt beam="1">  1       21 0.87858922E-03 0.54791476E+01</pdfrwt>
<pdfrwt beam="2">  1       21 0.47349922E-02 0.54791476E+01</pdfrwt>
<totfact> 0.37548676E+08</totfact>
</mgrwt>
</event>
<event>
 4    1  0.3858687E+006  0.5907122E+01  0.7546771E-02  0.2427671E+00
         21   -1    0    0  501  502  0.00000000000E+00  0.00000000000E+00  0.38813546900E+01  0.38813546900E+01  0.00000000000E+00 0. -1.
         21   -1    0    0  502  503 -0.00000000000E+00 -0.00000000000E+00 -0.99679302621E+01  0.99679302621E+01  0.00000000000E+00 0. -1.
          5    1    1    2  501    0  0.12340996763E+01 -0.33587325232E+01 -0.87454362382E+00  0.59715084128E+01  0.47000000000E+01 0. -1.
         -5    1    1    2    0  503 -0.12340996763E+01  0.33587325232E+01 -0.52120319483E+01  0.78777765394E+01  0.47000000000E+01 0. -1.
<mgrwt>
<rscale>  2 0.59071216E+01</rscale>
<asrwt>0</asrwt>
<pdfrwt beam="1">  1       21 0.59713148E-03 0.59071216E+01</pdfrwt>
<pdfrwt beam="2">  1       21 0.15335278E-02 0.59071216E+01</pdfrwt>
<totfact> 0.34978101E+09</totfact>
</mgrwt>
</event>
<event>
 4    1  0.3858687E+006  0.1096340E+02  0.7546771E-02  0.2023977E+00
         21   -1    0    0  501  502  0.00000000000E+00  0.00000000000E+00  0.44278425124E+02  0.44278425124E+02  0.00000000000E+00 0.  1.
         21   -1    0    0  502  503 -0.00000000000E+00 -0.00000000000E+00 -0.27639094060E+01  0.27639094060E+01  0.00000000000E+00 0. -1.
          5    1    1    2  501    0  0.95227592244E+01 -0.27245588446E+01  0.23900410806E+02  0.26294976722E+02  0.47000000000E+01 0. -1.
         -5    1    1    2    0  503 -0.95227592244E+01  0.27245588446E+01  0.17614104913E+02  0.20747357808E+02  0.47000000000E+01 0.  1.
<mgrwt>
<rscale>  2 0.10963401E+02</rscale>
<asrwt>0</asrwt>
<pdfrwt beam="1">  1       21 0.68120649E-02 0.10963401E+02</pdfrwt>
<pdfrwt beam="2">  1       21 0.42521687E-03 0.10963401E+02</pdfrwt>
<totfact> 0.95269028E+08</totfact>
</mgrwt>
</event>
<event>
 4    1  0.3858687E+006  0.7745158E+01  0.7546771E-02  0.2231841E+00
         21   -1    0    0  503  502  0.00000000000E+00  0.00000000000E+00  0.11610967961E+02  0.11610967961E+02  0.00000000000E+00 0. -1.
         21   -1    0    0  501  503 -0.00000000000E+00 -0.00000000000E+00 -0.54654933129E+01  0.54654933129E+01  0.00000000000E+00 0.  1.
          5    1    1    2  501    0 -0.13784360419E+01 -0.59997821413E+01  0.10755393987E+01  0.78194793089E+01  0.47000000000E+01 0.  1.
         -5    1    1    2    0  502  0.13784360419E+01  0.59997821413E+01  0.50699352491E+01  0.92569819647E+01  0.47000000000E+01 0. -1.
<mgrwt>
<rscale>  2 0.77451579E+01</rscale>
<asrwt>0</asrwt>
<pdfrwt beam="1">  1       21 0.17863028E-02 0.77451579E+01</pdfrwt>
<pdfrwt beam="2">  1       21 0.84084513E-03 0.77451579E+01</pdfrwt>
<totfact> 0.21624490E+09</totfact>
</mgrwt>
</event>
<event>
 4    1  0.3858687E+006  0.9790266E+01  0.7546771E-02  0.2087124E+00
         21   -1    0    0  503  502  0.00000000000E+00  0.00000000000E+00  0.92016935451E+00  0.92016935451E+00  0.00000000000E+00 0. -1.
         21   -1    0    0  501  503 -0.00000000000E+00 -0.00000000000E+00 -0.32944680219E+03  0.32944680219E+03  0.00000000000E+00 0.  1.
          5    1    1    2  501    0  0.85588369313E+01 -0.71107174546E+00 -0.30085906057E+03  0.30101831114E+03  0.47000000000E+01 0.  1.
         -5    1    1    2    0  502 -0.85588369313E+01  0.71107174546E+00 -0.27667572262E+02  0.29348660404E+02  0.47000000000E+01 0. -1.
<mgrwt>
<rscale>  2 0.97902662E+01</rscale>
<asrwt>0</asrwt>
<pdfrwt beam="1">  1       21 0.14156446E-03 0.97902662E+01</pdfrwt>
<pdfrwt beam="2">  1       21 0.50684143E-01 0.97902662E+01</pdfrwt>
<totfact> 0.14489476E+08</totfact>
</mgrwt>
</event>
<event>
 4    1  0.3858687E+006  0.1210877E+02  0.7546771E-02  0.1971712E+00
         21   -1    0    0  501  502  0.00000000000E+00  0.00000000000E+00  0.25706226685E+01  0.25706226685E+01  0.00000000000E+00 0.  1.
         21   -1    0    0  502  503 -0.00000000000E+00 -0.00000000000E+00 -0.13607529114E+03  0.13607529114E+03  0.00000000000E+00 0.  1.
          5    1    1    2  501    0 -0.11127227940E+02  0.84681174641E+00 -0.13919438937E+02  0.18449202479E+02  0.47000000000E+01 0.  1.
         -5    1    1    2    0  503  0.11127227940E+02 -0.84681174641E+00 -0.11958522954E+03  0.12019671133E+03  0.47000000000E+01 0.  1.
<mgrwt>
<rscale>  2 0.12108769E+02</rscale>
<asrwt>0</asrwt>
<pdfrwt beam="1">  1       21 0.39548044E-03 0.12108769E+02</pdfrwt>
<pdfrwt beam="2">  1       21 0.20934659E-01 0.12108769E+02</pdfrwt>
<totfact> 0.17926393E+08</totfact>
</mgrwt>
</event>
<event>
 4    1  0.3858687E+006  0.4702669E+01  0.7546771E-02  0.2622767E+00
         21   -1    0    0  503  502  0.00000000000E+00  0.00000000000E+00  0.10690755031E+01  0.10690755031E+01  0.00000000000E+00 0. -1.
         21   -1    0    0  501  503 -0.00000000000E+00 -0.00000000000E+00 -0.68235043125E+02  0.68235043125E+02  0.00000000000E+00 0. -1.
          5    1    1    2  501    0  0.15104466532E+00  0.47811291668E-01 -0.62509446655E+02  0.62686091133E+02  0.47000000000E+01 0. -1.
         -5    1    1    2    0  502 -0.15104466532E+00 -0.47811291668E-01 -0.46565209669E+01  0.66180274951E+01  0.47000000000E+01 0. -1.
<mgrwt>
<rscale>  2 0.47026695E+01</rscale>
<asrwt>0</asrwt>
<pdfrwt beam="1">  1       21 0.16447323E-03 0.47026695E+01</pdfrwt>
<pdfrwt beam="2">  1       21 0.10497694E-01 0.47026695E+01</pdfrwt>
<totfact> 0.98954001E+08</totfact>
</mgrwt>
</event>
<event>
 4    1  0.3858687E+006  0.1180024E+02  0.7546771E-02  0.1985017E+00
         21   -1    0    0  503  502  0.00000000000E+00  0.00000000000E+00  0.81214525917E+02  0.81214525917E+02  0.00000000000E+00 0.  1.
         21   -1    0    0  501  503 -0.00000000000E+00 -0.00000000000E+00 -0.13421832936E+02  0.13421832936E+02  0.00000000000E+00 0. -1.
          5    1    1    2  501    0 -0.10683547226E+02  0.17371058772E+01 -0.10296331252E+02  0.15660783998E+02  0.47000000000E+01 0. -1.
         -5    1    1    2    0  502  0.10683547226E+02 -0.17371058772E+01  0.78089024233E+02  0.78975574856E+02  0.47000000000E+01 0.  1.
<mgrwt>
<rscale>  2 0.11800242E+02</rscale>
<asrwt>0</asrwt>
<pdfrwt beam="1">  1       21 0.12494542E-01 0.11800242E+02</pdfrwt>
<pdfrwt beam="2">  1       21 0.20648974E-02 0.11800242E+02</pdfrwt>
<totfact> 0.37423364E+07</totfact>
</mgrwt>
</event>
<event>
 4    1  0.3858687E+006  0.7714137E+01  0.7546771E-02  0.2234502E+00
         21   -1    0    0  501  502  0.00000000000E+00  0.00000000000E+00  0.68855231378E+01  0.68855231378E+01  0.00000000000E+00 0.  1.
         21   -1    0    0  502  503 -0.00000000000E+00 -0.00000000000E+00 -0.10753384811E+03  0.10753384811E+03  0.00000000000E+00 0.  1.
          5    1    1    2  501    0 -0.55084190951E+01 -0.26599294238E+01  0.45384127009E+01  0.89501449882E+01  0.47000000000E+01 0.  1.
         -5    1    1    2    0  503  0.55084190951E+01  0.26599294238E+01 -0.10518673767E+03  0.10546922625E+03  0.47000000000E+01 0.  1.
<mgrwt>
<rscale>  2 0.77141367E+01</rscale>
<asrwt>0</asrwt>
<pdfrwt beam="1">  1       21 0.10593113E-02 0.77141367E+01</pdfrwt>
<pdfrwt beam="2">  1       21 0.16543668E-01 0.77141367E+01</pdfrwt>
<totfact> 0.52506476E+07</totfact>
</mgrwt>
</event>
<event>
 4    1  0.3858687E+006  0.5028346E+01  0.7546771E-02  0.2562150E+00
         21   -1    0    0  503  502  0.00000000000E+00  0.00000000000E+00  0.31089330999E+03  0.31089330999E+03  0.00000000000E+00 0.  1.
         21   -1    0    0  501  503 -0.00000000000E+00 -0.00000000000E+00 -0.29359151633E+00  0.29359151633E+00  0.00000000000E+00 0.  1.
          5    1    1    2  501    0 -0.10503470969E+01  0.14460411078E+01  0.23000585517E+02  0.23543814433E+02  0.47000000000E+01 0.  1.
         -5    1    1    2    0  502  0.10503470969E+01 -0.14460411078E+01  0.28759913296E+03  0.28764308707E+03  0.47000000000E+01 0.  1.
<mgrwt>
<rscale>  2 0.50283460E+01</rscale>
<asrwt>0</asrwt>
<pdfrwt beam="1">  1       21 0.47829477E-01 0.50283460E+01</pdfrwt>
<pdfrwt beam="2">  1       21 0.45168174E-04 0.50283460E+01</pdfrwt>
<totfact> 0.50368195E+08</totfact>
</mgrwt>
</event>
<event>
 4    1  0.3858687E+006  0.8803110E+01  0.7546771E-02  0.2150274E+00
         21   -1    0    0  503  502  0.00000000000E+00  0.00000000000E+00  0.11094348224E+03  0.11094348224E+03  0.00000000000E+00 0. -1.
         21   -1    0    0  501  503 -0.00000000000E+00 -0.00000000000E+00 -0.77248089051E+00  0.77248089051E+00  0.00000000000E+00 0.  1.
          5    1    1    2  501    0 -0.54777485979E+01 -0.50397428180E+01  0.37799989577E+02  0.38811518256E+02  0.47000000000E+01 0.  1.
         -5    1    1    2    0  502  0.54777485979E+01  0.50397428180E+01  0.72371011770E+02  0.72904444871E+02  0.47000000000E+01 0. -1.
<mgrwt>
<rscale>  2 0.88031095E+01</rscale>
<asrwt>0</asrwt>
<pdfrwt beam="1">  1       21 0.17068215E-01 0.88031095E+01</pdfrwt>
<pdfrwt beam="2">  1       21 0.11884330E-03 0.88031095E+01</pdfrwt>
<totfact> 0.11560816E+09</totfact>
</mgrwt>
</event>
<event>
 4    1  0.3858687E+006  0.4969971E+01  0.7546771E-02  0.2572509E+00
         21   -1    0    0  501  502  0.00000000000E+00  0.00000000000E+00  0.11296222566E+01  0.11296222566E+01  0.00000000000E+00 0.  1.
         21   -1    0    0  502  503 -0.00000000000E+00 -0.00000000000E+00 -0.29485853220E+02  0.29485853220E+02  0.00000000000E+00 0.  1.
          5    1    1    2  501    0  0.16154704223E+01  0.29513567289E-01 -0.63964956084E+01  0.81003562764E+01  0.47000000000E+01 0.  1.
         -5    1    1    2    0  503 -0.16154704223E+01 -0.29513567289E-01 -0.21959735355E+02  0.22515119200E+02  0.47000000000E+01 0.  1.
<mgrwt>
<rscale>  2 0.49699714E+01</rscale>
<asrwt>0</asrwt>
<pdfrwt beam="1">  1       21 0.17378804E-03 0.49699714E+01</pdfrwt>
<pdfrwt beam="2">  1       21 0.45362851E-02 0.49699714E+01</pdfrwt>
<totfact> 0.33619468E+09</totfact>
</mgrwt>
</event>
<event>
 4    1  0.3858687E+006  0.5488873E+01  0.7546771E-02  0.2487109E+00
         21   -1    0    0  503  502  0.00000000000E+00  0.00000000000E+00  0.46254758932E+03  0.46254758932E+03  0.00000000000E+00 0. -1.
         21   -1    0    0  501  503 -0.00000000000E+00 -0.00000000000E+00 -0.84428510997E-01  0.84428510997E-01  0.00000000000E+00 0. -1.
          5    1    1    2  501    0  0.22381134578E+01  0.17402807189E+01  0.12065217180E+03  0.12077696092E+03  0.47000000000E+01 0. -1.
         -5    1    1    2    0  502 -0.22381134578E+01 -0.17402807189E+01  0.34181098901E+03  0.34185505691E+03  0.47000000000E+01 0. -1.
<mgrwt>
<rscale>  2 0.54888732E+01</rscale>
<asrwt>0</asrwt>
<pdfrwt beam="1">  1       21 0.71159138E-01 0.54888732E+01</pdfrwt>
<pdfrwt beam="2">  1       21 0.12989372E-04 0.54888732E+01</pdfrwt>
<totfact> 0.13647487E+09</totfact>
</mgrwt>
</event>
<event>
 4    1  0.3858687E+006  0.1465726E+02  0.7546771E-02  0.1878711E+00
         21   -1    0    0  501  502  0.00000000000E+00  0.00000000000E+00  0.64256560500E+01  0.64256560500E+01  0.00000000000E+00 0. -1.
         21   -1    0    0  502  503 -0.00000000000E+00 -0.00000000000E+00 -0.90058023797E+02  0.90058023797E+02  0.00000000000E+00 0.  1.
          5    1    1    2  501    0  0.98026195534E+01 -0.98312744052E+01 -0.35633981920E+01  0.15084200781E+02  0.47000000000E+01 0. -1.
         -5    1    1    2    0  503 -0.98026195534E+01  0.98312744052E+01 -0.80068969555E+02  0.81399479066E+02  0.47000000000E+01 0.  1.
<mgrwt>
<rscale>  2 0.14657261E+02</rscale>
<asrwt>0</asrwt>
<pdfrwt beam="1">  1       21 0.98856252E-03 0.14657261E+02</pdfrwt>
<pdfrwt beam="2">  1       21 0.13855080E-01 0.14657261E+02</pdfrwt>
<totfact> 0.10191808E+08</totfact>
</mgrwt>
</event>
<event>
 4    1  0.3858687E+006  0.7874088E+01  0.7546771E-02  0.2220964E+00
         21   -1    0    0  503  502  0.00000000000E+00  0.00000000000E+00  0.65786362036E+01  0.65786362036E+01  0.00000000000E+00 0. -1.
         21   -1    0    0  501  503 -0.00000000000E+00 -0.00000000000E+00 -0.14033970089E+03  0.14033970089E+03  0.00000000000E+00 0.  1.
          5    1    1    2  501    0 -0.60083432071E+01 -0.19521971658E+01 -0.13783022937E+03  0.13805496511E+03  0.47000000000E+01 0.  1.
         -5    1    1    2    0  502  0.60083432071E+01  0.19521971658E+01  0.40691646806E+01  0.88633719919E+01  0.47000000000E+01 0. -1.
<mgrwt>
<rscale>  2 0.78740880E+01</rscale>
<asrwt>0</asrwt>
<pdfrwt beam="1">  1       21 0.10120979E-02 0.78740880E+01</pdfrwt>
<pdfrwt beam="2">  1       21 0.21590723E-01 0.78740880E+01</pdfrwt>
<totfact> 0.36609220E+07</totfact>
</mgrwt>
</event>
<event>
 4    1  0.3858687E+006  0.5286609E+01  0.7546771E-02  0.2518690E+00
         21   -1    0    0  503  502  0.00000000000E+00  0.00000000000E+00  0.47273141651E+01  0.47273141651E+01  0.00000000000E+00 0. -1.
         21   -1    0    0  501  503 -0.00000000000E+00 -0.00000000000E+00 -0.59182619778E+01  0.59182619778E+01  0.00000000000E+00 0. -1.
          5    1    1    2  501    0  0.61607998453E+00 -0.23406584005E+01 -0.76757291647E+00  0.53420412276E+01  0.47000000000E+01 0. -1.
         -5    1    1    2    0  502 -0.61607998453E+00  0.23406584005E+01 -0.42337489622E+00  0.53035349153E+01  0.47000000000E+01 0. -1.
<mgrwt>
<rscale>  2 0.52866091E+01</rscale>
<asrwt>0</asrwt>
<pdfrwt beam="1">  1       21 0.72727911E-03 0.52866091E+01</pdfrwt>
<pdfrwt beam="2">  1       21 0.91050184E-03 0.52866091E+01</pdfrwt>
<totfact> 0.49875399E+09</totfact>
</mgrwt>
</event>
<event>
 4    1  0.3858687E+006  0.6895584E+01  0.7546771E-02  0.2311651E+00
         21   -1    0    0  501  502  0.00000000000E+00  0.00000000000E+00  0.16680456046E+00  0.16680456046E+00  0.00000000000E+00 0.  1.
         21   -1    0    0  502  503 -0.00000000000E+00 -0.00000000000E+00 -0.32305219604E+03  0.32305219604E+03  0.00000000000E+00 0. -1.
          5    1    1    2  501    0 -0.50296771110E+01  0.40177181431E+00 -0.10602023439E+03  0.10624424301E+03  0.47000000000E+01 0.  1.
         -5    1    1    2    0  503  0.50296771110E+01 -0.40177181431E+00 -0.21686515708E+03  0.21697475758E+03  0.47000000000E+01 0. -1.
<mgrwt>
<rscale>  2 0.68955835E+01</rscale>
<asrwt>0</asrwt>
<pdfrwt beam="1">  1       21 0.25662184E-04 0.68955835E+01</pdfrwt>
<pdfrwt beam="2">  1       21 0.49700446E-01 0.68955835E+01</pdfrwt>
<totfact> 0.12615154E+09</totfact>
</mgrwt>
</event>
<event>
 4    1  0.3858687E+006  0.5027970E+01  0.7546771E-02  0.2562216E+00
         21   -1    0    0  503  502  0.00000000000E+00  0.00000000000E+00  0.15335587486E+01  0.15335587486E+01  0.00000000000E+00 0. -1.
         21   -1    0    0  501  503 -0.00000000000E+00 -0.00000000000E+00 -0.22564038940E+02  0.22564038940E+02  0.00000000000E+00 0. -1.
          5    1    1    2  501    0 -0.12777099687E+00  0.17816151199E+01 -0.16769246798E+02  0.17506801994E+02  0.47000000000E+01 0. -1.
         -5    1    1    2    0  502  0.12777099687E+00 -0.17816151199E+01 -0.42612333932E+01  0.65907956951E+01  0.47000000000E+01 0. -1.
<mgrwt>
<rscale>  2 0.50279696E+01</rscale>
<asrwt>0</asrwt>
<pdfrwt beam="1">  1       21 0.23593213E-03 0.50279696E+01</pdfrwt>
<pdfrwt beam="2">  1       21 0.34713904E-02 0.50279696E+01</pdfrwt>
<totfact> 0.33223003E+09</totfact>
</mgrwt>
</event>
<event>
 4    1  0.3858687E+006  0.7646889E+01  0.7546771E-02  0.2240331E+00
         21   -1    0    0  503  502  0.00000000000E+00  0.00000000000E+00  0.57965090672E+03  0.57965090672E+03  0.00000000000E+00 0.  1.
         21   -1    0    0  501  503 -0.00000000000E+00 -0.00000000000E+00 -0.10782890725E+00  0.10782890725E+00  0.00000000000E+00 0.  1.
          5    1    1    2  501    0 -0.34726690455E+00 -0.60219858917E+01  0.21618086324E+03  0.21631606630E+03  0.47000000000E+01 0.  1.
         -5    1    1    2    0  502  0.34726690455E+00  0.60219858917E+01  0.36336221457E+03  0.36344266933E+03  0.47000000000E+01 0.  1.
<mgrwt>
<rscale>  2 0.76468888E+01</rscale>
<asrwt>0</asrwt>
<pdfrwt beam="1">  1       21 0.89174568E-01 0.76468888E+01</pdfrwt>
<pdfrwt beam="2">  1       21 0.16589527E-04 0.76468888E+01</pdfrwt>
<totfact> 0.79072499E+08</totfact>
</mgrwt>
</event>
<event>
 4    1  0.3858687E+006  0.5734867E+01  0.7546771E-02  0.2451263E+00
         21   -1    0    0  503  502  0.00000000000E+00  0.00000000000E+00  0.13009747181E+01  0.13009747181E+01  0.00000000000E+00 0.  1.
         21   -1    0    0  501  503 -0.00000000000E+00 -0.00000000000E+00 -0.36837503398E+02  0.36837503398E+02  0.00000000000E+00 0. -1.
          5    1    1    2  501    0  0.32778622792E+01 -0.23306815723E+00 -0.28449448487E+02  0.29021712925E+02  0.47000000000E+01 0. -1.
         -5    1    1    2    0  502 -0.32778622792E+01  0.23306815723E+00 -0.70870801927E+01  0.91167651908E+01  0.47000000000E+01 0.  1.
<mgrwt>
<rscale>  2 0.57348672E+01</rscale>
<asrwt>0</asrwt>
<pdfrwt beam="1">  1       21 0.20014996E-03 0.57348672E+01</pdfrwt>
<pdfrwt beam="2">  1       21 0.56673082E-02 0.57348672E+01</pdfrwt>
<totfact> 0.22962581E+09</totfact>
</mgrwt>
</event>
<event>
 4    1  0.3858687E+006  0.5417805E+01  0.7546771E-02  0.2497976E+00
         21   -1    0    0  503  502  0.00000000000E+00  0.00000000000E+00  0.78442979616E+01  0.78442979616E+01  0.00000000000E+00 0. -1.
         21   -1    0    0  501  503 -0.00000000000E+00 -0.00000000000E+00 -0.49371330436E+01  0.49371330436E+01  0.00000000000E+00 0. -1.
          5    1    1    2  501    0 -0.26048450276E+01 -0.69093805044E+00 -0.16908159399E+01  0.56755150912E+01  0.47000000000E+01 0. -1.
         -5    1    1    2    0  502  0.26048450276E+01  0.69093805044E+00  0.45979808579E+01  0.71059159140E+01  0.47000000000E+01 0. -1.
<mgrwt>
<rscale>  2 0.54178052E+01</rscale>
<asrwt>0</asrwt>
<pdfrwt beam="1">  1       21 0.12068151E-02 0.54178052E+01</pdfrwt>
<pdfrwt beam="2">  1       21 0.75955893E-03 0.54178052E+01</pdfrwt>
<totfact> 0.32420109E+09</totfact>
</mgrwt>
</event>
<event>
 4    1  0.3858687E+006  0.4725103E+01  0.7546771E-02  0.2618360E+00
         21   -1    0    0  501  502  0.00000000000E+00  0.00000000000E+00  0.10831796809E+03  0.10831796809E+03  0.00000000000E+00 0.  1.
         21   -1    0    0  502  503 -0.00000000000E+00 -0.00000000000E+00 -0.37906016570E+00  0.37906016570E+00  0.00000000000E+00 0.  1.
          5    1    1    2  501    0  0.20497386973E+00 -0.44111844460E+00  0.90679115050E+02  0.90802139326E+02  0.47000000000E+01 0.  1.
         -5    1    1    2    0  503 -0.20497386973E+00  0.44111844460E+00  0.17259792871E+02  0.17894888927E+02  0.47000000000E+01 0.  1.
<mgrwt>
<rscale>  2 0.47251031E+01</rscale>
<asrwt>0</asrwt>
<pdfrwt beam="1">  1       21 0.16664278E-01 0.47251031E+01</pdfrwt>
<pdfrwt beam="2">  1       21 0.58317035E-04 0.47251031E+01</pdfrwt>
<totfact> 0.19337918E+09</totfact>
</mgrwt>
</event>
<event>
 4    1  0.3858687E+006  0.8360412E+01  0.7546771E-02  0.2182387E+00
         21   -1    0    0  503  502  0.00000000000E+00  0.00000000000E+00  0.26661583040E+02  0.26661583040E+02  0.00000000000E+00 0. -1.
         21   -1    0    0  501  503 -0.00000000000E+00 -0.00000000000E+00 -0.28318838791E+01  0.28318838791E+01  0.00000000000E+00 0.  1.
          5    1    1    2  501    0  0.56579011495E+01 -0.39742472314E+01  0.78965483202E+01  0.11500085297E+02  0.47000000000E+01 0.  1.
         -5    1    1    2    0  502 -0.56579011495E+01  0.39742472314E+01  0.15933150841E+02  0.17993381622E+02  0.47000000000E+01 0. -1.
<mgrwt>
<rscale>  2 0.83604119E+01</rscale>
<asrwt>0</asrwt>
<pdfrwt beam="1">  1       21 0.41017818E-02 0.83604119E+01</pdfrwt>
<pdfrwt beam="2">  1       21 0.43567446E-03 0.83604119E+01</pdfrwt>
<totfact> 0.16978213E+09</totfact>
</mgrwt>
</event>
<event>
 4    1  0.3858687E+006  0.4786681E+01  0.7546771E-02  0.2606447E+00
         21   -1    0    0  503  502  0.00000000000E+00  0.00000000000E+00  0.10320516591E+03  0.10320516591E+03  0.00000000000E+00 0. -1.
         21   -1    0    0  501  503 -0.00000000000E+00 -0.00000000000E+00 -0.25006131792E+01  0.25006131792E+01  0.00000000000E+00 0. -1.
          5    1    1    2  501    0 -0.34847665992E+00  0.83718627014E+00 -0.99919072448E-01  0.47877239535E+01  0.47000000000E+01 0. -1.
         -5    1    1    2    0  502  0.34847665992E+00 -0.83718627014E+00  0.10080447180E+03  0.10091805514E+03  0.47000000000E+01 0. -1.
<mgrwt>
<rscale>  2 0.47866812E+01</rscale>
<asrwt>0</asrwt>
<pdfrwt beam="1">  1       21 0.15877715E-01 0.47866812E+01</pdfrwt>
<pdfrwt beam="2">  1       21 0.38470980E-03 0.47866812E+01</pdfrwt>
<totfact> 0.16973839E+08</totfact>
</mgrwt>
</event>
<event>
 4    1  0.3858687E+006  0.5739627E+01  0.7546771E-02  0.2450596E+00
         21   -1    0    0  501  502  0.00000000000E+00  0.00000000000E+00  0.63624646549E+00  0.63624646549E+00  0.00000000000E+00 0. -1.
         21   -1    0    0  502  503 -0.00000000000E+00 -0.00000000000E+00 -0.16801180775E+03  0.16801180775E+03  0.00000000000E+00 0.  1.
          5    1    1    2  501    0 -0.27573287813E+00 -0.32828783225E+01 -0.13550583586E+02  0.14716033237E+02  0.47000000000E+01 0. -1.
         -5    1    1    2    0  503  0.27573287813E+00  0.32828783225E+01 -0.15382497770E+03  0.15393202098E+03  0.47000000000E+01 0.  1.
<mgrwt>
<rscale>  2 0.57396271E+01</rscale>
<asrwt>0</asrwt>
<pdfrwt beam="1">  1       21 0.97884037E-04 0.57396271E+01</pdfrwt>
<pdfrwt beam="2">  1       21 0.25847979E-01 0.57396271E+01</pdfrwt>
<totfact> 0.56941090E+08</totfact>
</mgrwt>
</event>
<event>
 4    1  0.3858687E+006  0.1258551E+02  0.7546771E-02  0.1952148E+00
         21   -1    0    0  501  502  0.00000000000E+00  0.00000000000E+00  0.20320901031E+02  0.20320901031E+02  0.00000000000E+00 0.  1.
         21   -1    0    0  502  503 -0.00000000000E+00 -0.00000000000E+00 -0.25661039000E+03  0.25661039000E+03  0.00000000000E+00 0. -1.
          5    1    1    2  501    0  0.55547624250E+01  0.10268863200E+02  0.18201699135E+02  0.22129093710E+02  0.47000000000E+01 0.  1.
         -5    1    1    2    0  503 -0.55547624250E+01 -0.10268863200E+02 -0.25449118810E+03  0.25480219732E+03  0.47000000000E+01 0. -1.
<mgrwt>
<rscale>  2 0.12585505E+02</rscale>
<asrwt>0</asrwt>
<pdfrwt beam="1">  1       21 0.31262923E-02 0.12585505E+02</pdfrwt>
<pdfrwt beam="2">  1       21 0.39478523E-01 0.12585505E+02</pdfrwt>
<totfact> 0.28394472E+06</totfact>
</mgrwt>
</event>
<event>
 4    1  0.3858687E+006  0.5214879E+01  0.7546771E-02  0.2530390E+00
         21   -1    0    0  503  502  0.00000000000E+00  0.00000000000E+00  0.15344270398E+01  0.15344270398E+01  0.00000000000E+00 0. -1.
         21   -1    0    0  501  503 -0.00000000000E+00 -0.00000000000E+00 -0.43702732183E+02  0.43702732183E+02  0.00000000000E+00 0. -1.
          5    1    1    2  501    0  0.22587503193E+01 -0.54832434297E-01 -0.38523357664E+02  0.38874722447E+02  0.47000000000E+01 0. -1.
         -5    1    1    2    0  502 -0.22587503193E+01  0.54832434297E-01 -0.36449474788E+01  0.63624367756E+01  0.47000000000E+01 0. -1.
<mgrwt>
<rscale>  2 0.52148787E+01</rscale>
<asrwt>0</asrwt>
<pdfrwt beam="1">  1       21 0.23606574E-03 0.52148787E+01</pdfrwt>
<pdfrwt beam="2">  1       21 0.67234960E-02 0.52148787E+01</pdfrwt>
<totfact> 0.13076578E+09</totfact>
</mgrwt>
</event>
<event>
 4    1  0.3858687E+006  0.8663171E+01  0.7546771E-02  0.2160142E+00
         21   -1    0    0  503  502  0.00000000000E+00  0.00000000000E+00  0.29532358608E+00  0.29532358608E+00  0.00000000000E+00 0.  1.
         21   -1    0    0  501  503 -0.00000000000E+00 -0.00000000000E+00 -0.45780297042E+03  0.45780297042E+03  0.00000000000E+00 0. -1.
          5    1    1    2  501    0  0.37789131815E+01  0.62193530979E+01 -0.38153021114E+03  0.38162855311E+03  0.47000000000E+01 0. -1.
         -5    1    1    2    0  502 -0.37789131815E+01 -0.62193530979E+01 -0.75977435693E+02  0.76469740893E+02  0.47000000000E+01 0.  1.
<mgrwt>
<rscale>  2 0.86631713E+01</rscale>
<asrwt>0</asrwt>
<pdfrwt beam="1">  1       21 0.45434541E-04 0.86631713E+01</pdfrwt>
<pdfrwt beam="2">  1       21 0.70431005E-01 0.86631713E+01</pdfrwt>
<totfact> 0.34644776E+08</totfact>
</mgrwt>
</event>
<event>
 4    1  0.3858687E+006  0.6161027E+01  0.7546771E-02  0.2394925E+00
         21   -1    0    0  501  502  0.00000000000E+00  0.00000000000E+00  0.72736008317E+00  0.72736008317E+00  0.00000000000E+00 0.  1.
         21   -1    0    0  502  503 -0.00000000000E+00 -0.00000000000E+00 -0.12902613418E+03  0.12902613418E+03  0.00000000000E+00 0. -1.
          5    1    1    2  501    0  0.81613134618E+00 -0.38989972058E+01 -0.14083333082E+02  0.15372004433E+02  0.47000000000E+01 0.  1.
         -5    1    1    2    0  503 -0.81613134618E+00  0.38989972058E+01 -0.11421544101E+03  0.11438148983E+03  0.47000000000E+01 0.  1.
<mgrwt>
<rscale>  2 0.61610267E+01</rscale>
<asrwt>0</asrwt>
<pdfrwt beam="1">  1       21 0.11190161E-03 0.61610267E+01</pdfrwt>
<pdfrwt beam="2">  1       21 0.19850165E-01 0.61610267E+01</pdfrwt>
<totfact> 0.77203273E+08</totfact>
</mgrwt>
</event>
<event>
 4    1  0.3858687E+006  0.6250633E+01  0.7546771E-02  0.2383902E+00
         21   -1    0    0  503  502  0.00000000000E+00  0.00000000000E+00  0.80416987049E+01  0.80416987049E+01  0.00000000000E+00 0. -1.
         21   -1    0    0  501  503 -0.00000000000E+00 -0.00000000000E+00 -0.27870402590E+02  0.27870402590E+02  0.00000000000E+00 0. -1.
          5    1    1    2  501    0 -0.29050973709E+01  0.29224687237E+01 -0.26230426235E+02  0.26964897082E+02  0.47000000000E+01 0. -1.
         -5    1    1    2    0  502  0.29050973709E+01 -0.29224687237E+01  0.64017223501E+01  0.89472042127E+01  0.47000000000E+01 0. -1.
<mgrwt>
<rscale>  2 0.62506331E+01</rscale>
<asrwt>0</asrwt>
<pdfrwt beam="1">  1       21 0.12371844E-02 0.62506331E+01</pdfrwt>
<pdfrwt beam="2">  1       21 0.42877544E-02 0.62506331E+01</pdfrwt>
<totfact> 0.29614580E+08</totfact>
</mgrwt>
</event>
<event>
 4    1  0.3858687E+006  0.5213680E+01  0.7546771E-02  0.2530588E+00
         21   -1    0    0  503  502  0.00000000000E+00  0.00000000000E+00  0.16250155872E+04  0.16250155872E+04  0.00000000000E+00 0. -1.
         21   -1    0    0  501  503 -0.00000000000E+00 -0.00000000000E+00 -0.28540865835E-01  0.28540865835E-01  0.00000000000E+00 0. -1.
          5    1    1    2  501    0 -0.21156981789E+01 -0.78503454247E+00  0.28975042549E+03  0.28979732837E+03  0.47000000000E+01 0. -1.
         -5    1    1    2    0  502  0.21156981789E+01  0.78503454247E+00  0.13352366208E+04  0.13352467997E+04  0.47000000000E+01 0. -1.
<mgrwt>
<rscale>  2 0.52136799E+01</rscale>
<asrwt>0</asrwt>
<pdfrwt beam="1">  1       21 0.24992832E+00 0.52136799E+01</pdfrwt>
<pdfrwt beam="2">  1       21 0.43922040E-05 0.52136799E+01</pdfrwt>
<totfact> 0.40750119E+08</totfact>
</mgrwt>
</event>
<event>
 4    1  0.3858687E+006  0.7878322E+01  0.7546771E-02  0.2220611E+00
         21   -1    0    0  503  502  0.00000000000E+00  0.00000000000E+00  0.43691799552E+01  0.43691799552E+01  0.00000000000E+00 0.  1.
         21   -1    0    0  501  503 -0.00000000000E+00 -0.00000000000E+00 -0.16334674548E+02  0.16334674548E+02  0.00000000000E+00 0. -1.
          5    1    1    2  501    0  0.38346995908E+01  0.50272291060E+01 -0.97198497762E+01  0.12511731819E+02  0.47000000000E+01 0.  1.
         -5    1    1    2    0  502 -0.38346995908E+01 -0.50272291060E+01 -0.22456448169E+01  0.81921226846E+01  0.47000000000E+01 0. -1.
<mgrwt>
<rscale>  2 0.78783217E+01</rscale>
<asrwt>0</asrwt>
<pdfrwt beam="1">  1       21 0.67218152E-03 0.78783217E+01</pdfrwt>
<pdfrwt beam="2">  1       21 0.25130269E-02 0.78783217E+01</pdfrwt>
<totfact> 0.18278943E+09</totfact>
</mgrwt>
</event>
<event>
 4    1  0.3858687E+006  0.7275853E+01  0.7546771E-02  0.2274051E+00
         21   -1    0    0  503  502  0.00000000000E+00  0.00000000000E+00  0.12710589022E+03  0.12710589022E+03  0.00000000000E+00 0.  1.
         21   -1    0    0  501  503 -0.00000000000E+00 -0.00000000000E+00 -0.69904480569E+00  0.69904480569E+00  0.00000000000E+00 0. -1.
          5    1    1    2  501    0  0.52514333002E+01  0.18084466034E+01  0.22576091644E+02  0.23719568814E+02  0.47000000000E+01 0. -1.
         -5    1    1    2    0  502 -0.52514333002E+01 -0.18084466034E+01  0.10383075377E+03  0.10408536622E+03  0.47000000000E+01 0.  1.
<mgrwt>
<rscale>  2 0.72758526E+01</rscale>
<asrwt>0</asrwt>
<pdfrwt beam="1">  1       21 0.19554734E-01 0.72758526E+01</pdfrwt>
<pdfrwt beam="2">  1       21 0.10754546E-03 0.72758526E+01</pdfrwt>
<totfact> 0.93905620E+08</totfact>
</mgrwt>
</event>
<event>
 4    1  0.3858687E+006  0.4807034E+01  0.7546771E-02  0.2602568E+00
         21   -1    0    0  503  502  0.00000000000E+00  0.00000000000E+00  0.10098572963E+02  0.10098572963E+02  0.00000000000E+00 0.  1.
         21   -1    0    0  501  503 -0.00000000000E+00 -0.00000000000E+00 -0.24656403555E+01  0.24656403555E+01  0.00000000000E+00 0.  1.
          5    1    1    2  501    0 -0.27048711659E+00  0.97180865950E+00  0.21312170939E+01  0.52582945574E+01  0.47000000000E+01 0.  1.
         -5    1    1    2    0  502  0.27048711659E+00 -0.97180865950E+00  0.55017155133E+01  0.73059187608E+01  0.47000000000E+01 0.  1.
<mgrwt>
<rscale>  2 0.48070339E+01</rscale>
<asrwt>0</asrwt>
<pdfrwt beam="1">  1       21 0.15536266E-02 0.48070339E+01</pdfrwt>
<pdfrwt beam="2">  1       21 0.37932929E-03 0.48070339E+01</pdfrwt>
<totfact> 0.52218643E+09</totfact>
</mgrwt>
</event>
<event>
 4    1  0.3858687E+006  0.5016065E+01  0.7546771E-02  0.2564312E+00
         21   -1    0    0  501  502  0.00000000000E+00  0.00000000000E+00  0.12409466632E+02  0.12409466632E+02  0.00000000000E+00 0.  1.
         21   -1    0    0  502  503 -0.00000000000E+00 -0.00000000000E+00 -0.28388813967E+01  0.28388813967E+01  0.00000000000E+00 0.  1.
          5    1    1    2  501    0  0.17523287480E+01  0.15754086049E-01  0.88611255336E+01  0.10182359744E+02  0.47000000000E+01 0. -1.
         -5    1    1    2    0  503 -0.17523287480E+01 -0.15754086049E-01  0.70945970158E+00  0.50659882847E+01  0.47000000000E+01 0. -1.
<mgrwt>
<rscale>  2 0.50160646E+01</rscale>
<asrwt>0</asrwt>
<pdfrwt beam="1">  1       21 0.19091487E-02 0.50160646E+01</pdfrwt>
<pdfrwt beam="2">  1       21 0.43675099E-03 0.50160646E+01</pdfrwt>
<totfact> 0.33698910E+09</totfact>
</mgrwt>
</event>
<event>
 4    1  0.3858687E+006  0.4745606E+01  0.7546771E-02  0.2614363E+00
         21   -1    0    0  503  502  0.00000000000E+00  0.00000000000E+00  0.12459784753E+00  0.12459784753E+00  0.00000000000E+00 0. -1.
         21   -1    0    0  501  503 -0.00000000000E+00 -0.00000000000E+00 -0.35667943607E+03  0.35667943607E+03  0.00000000000E+00 0. -1.
          5    1    1    2  501    0  0.39900596483E-01 -0.65511869284E+00 -0.30357215830E+03  0.30360924898E+03  0.47000000000E+01 0. -1.
         -5    1    1    2    0  502 -0.39900596483E-01  0.65511869284E+00 -0.52982679923E+02  0.53194784936E+02  0.47000000000E+01 0. -1.
<mgrwt>
<rscale>  2 0.47456056E+01</rscale>
<asrwt>0</asrwt>
<pdfrwt beam="1">  1       21 0.19169297E-04 0.47456056E+01</pdfrwt>
<pdfrwt beam="2">  1       21 0.54872622E-01 0.47456056E+01</pdfrwt>
<totfact> 0.11672905E+09</totfact>
</mgrwt>
</event>
<event>
 4    1  0.3858687E+006  0.6171829E+01  0.7546771E-02  0.2393582E+00
         21   -1    0    0  503  502  0.00000000000E+00  0.00000000000E+00  0.23114027829E+02  0.23114027829E+02  0.00000000000E+00 0.  1.
         21   -1    0    0  501  503 -0.00000000000E+00 -0.00000000000E+00 -0.23012460376E+01  0.23012460376E+01  0.00000000000E+00 0. -1.
          5    1    1    2  501    0  0.19387310353E+01 -0.34989710650E+01  0.36357775935E+01  0.71631246848E+01  0.47000000000E+01 0. -1.
         -5    1    1    2    0  502 -0.19387310353E+01  0.34989710650E+01  0.17177004198E+02  0.18252149182E+02  0.47000000000E+01 0.  1.
<mgrwt>
<rscale>  2 0.61718293E+01</rscale>
<asrwt>0</asrwt>
<pdfrwt beam="1">  1       21 0.35560041E-02 0.61718293E+01</pdfrwt>
<pdfrwt beam="2">  1       21 0.35403787E-03 0.61718293E+01</pdfrwt>
<totfact> 0.22284052E+09</totfact>
</mgrwt>
</event>
<event>
 4    1  0.3858687E+006  0.6856697E+01  0.7546771E-02  0.2315688E+00
         21   -1    0    0  503  502  0.00000000000E+00  0.00000000000E+00  0.58703484383E+02  0.58703484383E+02  0.00000000000E+00 0.  1.
         21   -1    0    0  501  503 -0.00000000000E+00 -0.00000000000E+00 -0.12586216500E+01  0.12586216500E+01  0.00000000000E+00 0. -1.
          5    1    1    2  501    0 -0.44827952126E+01  0.21974630595E+01  0.10641920015E+02  0.12659571810E+02  0.47000000000E+01 0. -1.
         -5    1    1    2    0  502  0.44827952126E+01 -0.21974630595E+01  0.46802942718E+02  0.47302534223E+02  0.47000000000E+01 0.  1.
<mgrwt>
<rscale>  2 0.68566972E+01</rscale>
<asrwt>0</asrwt>
<pdfrwt beam="1">  1       21 0.90313031E-02 0.68566972E+01</pdfrwt>
<pdfrwt beam="2">  1       21 0.19363415E-03 0.68566972E+01</pdfrwt>
<totfact> 0.13723364E+09</totfact>
</mgrwt>
</event>
<event>
 4    1  0.3858687E+006  0.5639719E+01  0.7546771E-02  0.2464814E+00
         21   -1    0    0  503  502  0.00000000000E+00  0.00000000000E+00  0.56604126210E+03  0.56604126210E+03  0.00000000000E+00 0.  1.
         21   -1    0    0  501  503 -0.00000000000E+00 -0.00000000000E+00 -0.35751749224E+00  0.35751749224E+00  0.00000000000E+00 0. -1.
          5    1    1    2  501    0  0.19425298772E+01  0.24378278868E+01  0.22848474189E+02  0.23534213390E+02  0.47000000000E+01 0. -1.
         -5    1    1    2    0  502 -0.19425298772E+01 -0.24378278868E+01  0.54283527041E+03  0.54286456620E+03  0.47000000000E+01 0.  1.
<mgrwt>
<rscale>  2 0.56397187E+01</rscale>
<asrwt>0</asrwt>
<pdfrwt beam="1">  1       21 0.87082554E-01 0.56397187E+01</pdfrwt>
<pdfrwt beam="2">  1       21 0.55003144E-04 0.56397187E+01</pdfrwt>
<totfact> 0.13824129E+08</totfact>
</mgrwt>
</event>
<event>
 4    1  0.3858687E+006  0.5832685E+01  0.7546771E-02  0.2437722E+00
         21   -1    0    0  503  502  0.00000000000E+00  0.00000000000E+00  0.35003223596E+01  0.35003223596E+01  0.00000000000E+00 0.  1.
         21   -1    0    0  501  503 -0.00000000000E+00 -0.00000000000E+00 -0.22231951861E+02  0.22231951861E+02  0.00000000000E+00 0.  1.
          5    1    1    2  501    0  0.20837255265E+01 -0.27546874499E+01 -0.19018238509E+02  0.19892551646E+02  0.47000000000E+01 0.  1.
         -5    1    1    2    0  502 -0.20837255265E+01  0.27546874499E+01  0.28660900799E+00  0.58397225739E+01  0.47000000000E+01 0.  1.
<mgrwt>
<rscale>  2 0.58326851E+01</rscale>
<asrwt>0</asrwt>
<pdfrwt beam="1">  1       21 0.53851114E-03 0.58326851E+01</pdfrwt>
<pdfrwt beam="2">  1       21 0.34203002E-02 0.58326851E+01</pdfrwt>
<totfact> 0.12580103E+09</totfact>
</mgrwt>
</event>
<event>
 4    1  0.3858687E+006  0.5188320E+01  0.7546771E-02  0.2534792E+00
         21   -1    0    0  501  502  0.00000000000E+00  0.00000000000E+00  0.30521066490E+01  0.30521066490E+01  0.00000000000E+00 0.  1.
         21   -1    0    0  502  503 -0.00000000000E+00 -0.00000000000E+00 -0.92787349241E+01  0.92787349241E+01  0.00000000000E+00 0.  1.
          5    1    1    2  501    0 -0.13789213240E+01  0.17109186341E+01 -0.17419873552E+01  0.54729504416E+01  0.47000000000E+01 0.  1.
         -5    1    1    2    0  503  0.13789213240E+01 -0.17109186341E+01 -0.44846409200E+01  0.68578911315E+01  0.47000000000E+01 0.  1.
<mgrwt>
<rscale>  2 0.51883202E+01</rscale>
<asrwt>0</asrwt>
<pdfrwt beam="1">  1       21 0.46955488E-03 0.51883202E+01</pdfrwt>
<pdfrwt beam="2">  1       21 0.14274976E-02 0.51883202E+01</pdfrwt>
<totfact> 0.47651245E+09</totfact>
</mgrwt>
</event>
<event>
 4    1  0.3858687E+006  0.5240462E+01  0.7546771E-02  0.2526186E+00
         21   -1    0    0  503  502  0.00000000000E+00  0.00000000000E+00  0.10268698725E+03  0.10268698725E+03  0.00000000000E+00 0. -1.
         21   -1    0    0  501  503 -0.00000000000E+00 -0.00000000000E+00 -0.79762152373E+00  0.79762152373E+00  0.00000000000E+00 0. -1.
          5    1    1    2  501    0 -0.19760574824E+01  0.12114611541E+01  0.87594653344E+01  0.10207383320E+02  0.47000000000E+01 0. -1.
         -5    1    1    2    0  502  0.19760574824E+01 -0.12114611541E+01  0.93129900391E+02  0.93277225452E+02  0.47000000000E+01 0. -1.
<mgrwt>
<rscale>  2 0.52404619E+01</rscale>
<asrwt>0</asrwt>
<pdfrwt beam="1">  1       21 0.15797988E-01 0.52404619E+01</pdfrwt>
<pdfrwt beam="2">  1       21 0.12271109E-03 0.52404619E+01</pdfrwt>
<totfact> 0.86208794E+08</totfact>
</mgrwt>
</event>
<event>
 4    1  0.3858687E+006  0.9110189E+01  0.7546771E-02  0.2129471E+00
         21   -1    0    0  503  502  0.00000000000E+00  0.00000000000E+00  0.75384463910E+01  0.75384463910E+01  0.00000000000E+00 0. -1.
         21   -1    0    0  501  503 -0.00000000000E+00 -0.00000000000E+00 -0.11009781831E+02  0.11009781831E+02  0.00000000000E+00 0.  1.
          5    1    1    2  501    0  0.30757698908E+01 -0.71725295478E+01 -0.17695771045E+01  0.92804603153E+01  0.47000000000E+01 0. -1.
         -5    1    1    2    0  502 -0.30757698908E+01  0.71725295478E+01 -0.17017583353E+01  0.92677679064E+01  0.47000000000E+01 0.  1.
<mgrwt>
<rscale>  2 0.91101888E+01</rscale>
<asrwt>0</asrwt>
<pdfrwt beam="1">  1       21 0.11597610E-02 0.91101888E+01</pdfrwt>
<pdfrwt beam="2">  1       21 0.16938126E-02 0.91101888E+01</pdfrwt>
<totfact> 0.16452863E+09</totfact>
</mgrwt>
</event>
<event>
 4    1  0.3858687E+006  0.7109334E+01  0.7546771E-02  0.2290110E+00
         21   -1    0    0  501  502  0.00000000000E+00  0.00000000000E+00  0.78082564270E+01  0.78082564270E+01  0.00000000000E+00 0. -1.
         21   -1    0    0  502  503 -0.00000000000E+00 -0.00000000000E+00 -0.71531502859E+01  0.71531502859E+01  0.00000000000E+00 0.  1.
          5    1    1    2  501    0  0.53319721039E+01 -0.15068426377E+00  0.26343260322E+01  0.75817086404E+01  0.47000000000E+01 0. -1.
         -5    1    1    2    0  503 -0.53319721039E+01  0.15068426377E+00 -0.19792198911E+01  0.73796980725E+01  0.47000000000E+01 0.  1.
<mgrwt>
<rscale>  2 0.71093342E+01</rscale>
<asrwt>0</asrwt>
<pdfrwt beam="1">  1       21 0.12012702E-02 0.71093342E+01</pdfrwt>
<pdfrwt beam="2">  1       21 0.11004847E-02 0.71093342E+01</pdfrwt>
<totfact> 0.24459318E+09</totfact>
</mgrwt>
</event>
<event>
 4    1  0.3858687E+006  0.6911821E+01  0.7546771E-02  0.2309976E+00
         21   -1    0    0  501  502  0.00000000000E+00  0.00000000000E+00  0.59000734690E+02  0.59000734690E+02  0.00000000000E+00 0. -1.
         21   -1    0    0  502  503 -0.00000000000E+00 -0.00000000000E+00 -0.23908604930E+01  0.23908604930E+01  0.00000000000E+00 0.  1.
          5    1    1    2  501    0 -0.46037987123E+01  0.21185630224E+01  0.53267484603E+02  0.53714040881E+02  0.47000000000E+01 0. -1.
         -5    1    1    2    0  503  0.46037987123E+01 -0.21185630224E+01  0.33423895948E+01  0.76775543025E+01  0.47000000000E+01 0.  1.
<mgrwt>
<rscale>  2 0.69118212E+01</rscale>
<asrwt>0</asrwt>
<pdfrwt beam="1">  1       21 0.90770350E-02 0.69118212E+01</pdfrwt>
<pdfrwt beam="2">  1       21 0.36782474E-03 0.69118212E+01</pdfrwt>
<totfact> 0.56470003E+08</totfact>
</mgrwt>
</event>
<event>
 4    1  0.3858687E+006  0.5489861E+01  0.7546771E-02  0.2486960E+00
         21   -1    0    0  503  502  0.00000000000E+00  0.00000000000E+00  0.19676822996E+02  0.19676822996E+02  0.00000000000E+00 0. -1.
         21   -1    0    0  501  503 -0.00000000000E+00 -0.00000000000E+00 -0.18381436303E+01  0.18381436303E+01  0.00000000000E+00 0.  1.
          5    1    1    2  501    0 -0.25225815443E+01  0.12981337588E+01  0.45268432768E+01  0.71155378543E+01  0.47000000000E+01 0.  1.
         -5    1    1    2    0  502  0.25225815443E+01 -0.12981337588E+01  0.13311836089E+02  0.14399428772E+02  0.47000000000E+01 0. -1.
<mgrwt>
<rscale>  2 0.54898606E+01</rscale>
<asrwt>0</asrwt>
<pdfrwt beam="1">  1       21 0.30272034E-02 0.54898606E+01</pdfrwt>
<pdfrwt beam="2">  1       21 0.28279134E-03 0.54898606E+01</pdfrwt>
<totfact> 0.34546782E+09</totfact>
</mgrwt>
</event>
<event>
 4    1  0.3858687E+006  0.6024061E+01  0.7546771E-02  0.2412303E+00
         21   -1    0    0  501  502  0.00000000000E+00  0.00000000000E+00  0.19051146741E+01  0.19051146741E+01  0.00000000000E+00 0. -1.
         21   -1    0    0  502  503 -0.00000000000E+00 -0.00000000000E+00 -0.25744420046E+02  0.25744420046E+02  0.00000000000E+00 0.  1.
          5    1    1    2  501    0 -0.35331579568E+01 -0.13100010663E+01 -0.48690542086E+01  0.77457728360E+01  0.47000000000E+01 0. -1.
         -5    1    1    2    0  503  0.35331579568E+01  0.13100010663E+01 -0.18970251163E+02  0.19903761884E+02  0.47000000000E+01 0.  1.
<mgrwt>
<rscale>  2 0.60240608E+01</rscale>
<asrwt>0</asrwt>
<pdfrwt beam="1">  1       21 0.29309458E-03 0.60240608E+01</pdfrwt>
<pdfrwt beam="2">  1       21 0.39606797E-02 0.60240608E+01</pdfrwt>
<totfact> 0.24169878E+09</totfact>
</mgrwt>
</event>
<event>
 4    1  0.3858687E+006  0.6044550E+01  0.7546771E-02  0.2409661E+00
         21   -1    0    0  501  502  0.00000000000E+00  0.00000000000E+00  0.15396824610E+00  0.15396824610E+00  0.00000000000E+00 0. -1.
         21   -1    0    0  502  503 -0.00000000000E+00 -0.00000000000E+00 -0.31018820992E+03  0.31018820992E+03  0.00000000000E+00 0.  1.
          5    1    1    2  501    0 -0.35469013184E+01  0.13660442330E+01 -0.79797985698E+02  0.80026590002E+02  0.47000000000E+01 0.  1.
         -5    1    1    2    0  503  0.35469013184E+01 -0.13660442330E+01 -0.23023625597E+03  0.23031558816E+03  0.47000000000E+01 0. -1.
<mgrwt>
<rscale>  2 0.60445501E+01</rscale>
<asrwt>0</asrwt>
<pdfrwt beam="1">  1       21 0.23687511E-04 0.60445501E+01</pdfrwt>
<pdfrwt beam="2">  1       21 0.47721086E-01 0.60445501E+01</pdfrwt>
<totfact> 0.13766881E+09</totfact>
</mgrwt>
</event>
<event>
 4    1  0.3858687E+006  0.8291223E+01  0.7546771E-02  0.2187653E+00
         21   -1    0    0  501  502  0.00000000000E+00  0.00000000000E+00  0.72314173555E+01  0.72314173555E+01  0.00000000000E+00 0.  1.
         21   -1    0    0  502  503 -0.00000000000E+00 -0.00000000000E+00 -0.12141613241E+02  0.12141613241E+02  0.00000000000E+00 0. -1.
          5    1    1    2  501    0  0.34188805290E+01  0.59131740657E+01  0.20576545937E+01  0.85427345756E+01  0.47000000000E+01 0.  1.
         -5    1    1    2    0  503 -0.34188805290E+01 -0.59131740657E+01 -0.69678504796E+01  0.10830296021E+02  0.47000000000E+01 0. -1.
<mgrwt>
<rscale>  2 0.82912226E+01</rscale>
<asrwt>0</asrwt>
<pdfrwt beam="1">  1       21 0.11125258E-02 0.82912226E+01</pdfrwt>
<pdfrwt beam="2">  1       21 0.18679405E-02 0.82912226E+01</pdfrwt>
<totfact> 0.14225096E+09</totfact>
</mgrwt>
</event>
<event>
 4    1  0.3858687E+006  0.7278422E+01  0.7546771E-02  0.2273808E+00
         21   -1    0    0  503  502  0.00000000000E+00  0.00000000000E+00  0.31371450166E+02  0.31371450166E+02  0.00000000000E+00 0. -1.
         21   -1    0    0  501  503 -0.00000000000E+00 -0.00000000000E+00 -0.55941049934E+01  0.55941049934E+01  0.00000000000E+00 0. -1.
          5    1    1    2  501    0 -0.71441084053E+00  0.55113562723E+01 -0.25545415539E+01  0.77136964783E+01  0.47000000000E+01 0. -1.
         -5    1    1    2    0  502  0.71441084053E+00 -0.55113562723E+01  0.28331886726E+02  0.29251858681E+02  0.47000000000E+01 0. -1.
<mgrwt>
<rscale>  2 0.72784223E+01</rscale>
<asrwt>0</asrwt>
<pdfrwt beam="1">  1       21 0.48263768E-02 0.72784223E+01</pdfrwt>
<pdfrwt beam="2">  1       21 0.86063156E-03 0.72784223E+01</pdfrwt>
<totfact> 0.46203471E+08</totfact>
</mgrwt>
</event>
<event>
 4    1  0.3858687E+006  0.7098039E+01  0.7546771E-02  0.2291222E+00
         21   -1    0    0  503  502  0.00000000000E+00  0.00000000000E+00  0.41023832774E-01  0.41023832774E-01  0.00000000000E+00 0. -1.
         21   -1    0    0  501  503 -0.00000000000E+00 -0.00000000000E+00 -0.16929403362E+04  0.16929403362E+04  0.00000000000E+00 0.  1.
          5    1    1    2  501    0  0.57102883421E+00  0.52882969407E+01 -0.12900013767E+04  0.12900209045E+04  0.47000000000E+01 0.  1.
         -5    1    1    2    0  502 -0.57102883421E+00 -0.52882969407E+01 -0.40289793561E+03  0.40296045548E+03  0.47000000000E+01 0. -1.
<mgrwt>
<rscale>  2 0.70980391E+01</rscale>
<asrwt>0</asrwt>
<pdfrwt beam="1">  1       21 0.63121057E-05 0.70980391E+01</pdfrwt>
<pdfrwt beam="2">  1       21 0.26042155E+00 0.70980391E+01</pdfrwt>
<totfact> 0.26248744E+08</totfact>
</mgrwt>
</event>
<event>
 4    1  0.3858687E+006  0.4931261E+01  0.7546771E-02  0.2579494E+00
         21   -1    0    0  501  502  0.00000000000E+00  0.00000000000E+00  0.79661486870E+02  0.79661486870E+02  0.00000000000E+00 0.  1.
         21   -1    0    0  502  503 -0.00000000000E+00 -0.00000000000E+00 -0.38861133373E+00  0.38861133373E+00  0.00000000000E+00 0.  1.
          5    1    1    2  501    0  0.12837882655E+01  0.76106571653E+00  0.58173236755E+02  0.58381870541E+02  0.47000000000E+01 0.  1.
         -5    1    1    2    0  503 -0.12837882655E+01 -0.76106571653E+00  0.21099638782E+02  0.21668227663E+02  0.47000000000E+01 0.  1.
<mgrwt>
<rscale>  2 0.49312608E+01</rscale>
<asrwt>0</asrwt>
<pdfrwt beam="1">  1       21 0.12255600E-01 0.49312608E+01</pdfrwt>
<pdfrwt beam="2">  1       21 0.59786423E-04 0.49312608E+01</pdfrwt>
<totfact> 0.31376114E+09</totfact>
</mgrwt>
</event>
<event>
 4    1  0.3858687E+006  0.5373307E+01  0.7546771E-02  0.2504905E+00
         21   -1    0    0  501  502  0.00000000000E+00  0.00000000000E+00  0.72937582667E+01  0.72937582667E+01  0.00000000000E+00 0. -1.
         21   -1    0    0  502  503 -0.00000000000E+00 -0.00000000000E+00 -0.66106917696E+01  0.66106917696E+01  0.00000000000E+00 0. -1.
          5    1    1    2  501    0 -0.17268746507E+01 -0.19494443100E+01  0.47450722798E+01  0.71685521633E+01  0.47000000000E+01 0. -1.
         -5    1    1    2    0  503  0.17268746507E+01  0.19494443100E+01 -0.40620057828E+01  0.67358978730E+01  0.47000000000E+01 0. -1.
<mgrwt>
<rscale>  2 0.53733071E+01</rscale>
<asrwt>0</asrwt>
<pdfrwt beam="1">  1       21 0.11221167E-02 0.53733071E+01</pdfrwt>
<pdfrwt beam="2">  1       21 0.10170295E-02 0.53733071E+01</pdfrwt>
<totfact> 0.23691324E+09</totfact>
</mgrwt>
</event>
<event>
 4    1  0.3858687E+006  0.4987377E+01  0.7546771E-02  0.2569398E+00
         21   -1    0    0  503  502  0.00000000000E+00  0.00000000000E+00  0.60342242812E+01  0.60342242812E+01  0.00000000000E+00 0.  1.
         21   -1    0    0  501  503 -0.00000000000E+00 -0.00000000000E+00 -0.41475385738E+01  0.41475385738E+01  0.00000000000E+00 0.  1.
          5    1    1    2  501    0  0.12494639321E+01  0.11057909701E+01  0.13417058948E+01  0.51646982966E+01  0.47000000000E+01 0.  1.
         -5    1    1    2    0  502 -0.12494639321E+01 -0.11057909701E+01  0.54497981258E+00  0.50170645584E+01  0.47000000000E+01 0.  1.
<mgrwt>
<rscale>  2 0.49873774E+01</rscale>
<asrwt>0</asrwt>
<pdfrwt beam="1">  1       21 0.92834220E-03 0.49873774E+01</pdfrwt>
<pdfrwt beam="2">  1       21 0.63808286E-03 0.49873774E+01</pdfrwt>
<totfact> 0.54729144E+09</totfact>
</mgrwt>
</event>
<event>
 4    1  0.3858687E+006  0.6441125E+01  0.7546771E-02  0.2361318E+00
         21   -1    0    0  501  502  0.00000000000E+00  0.00000000000E+00  0.17686289208E+01  0.17686289208E+01  0.00000000000E+00 0.  1.
         21   -1    0    0  502  503 -0.00000000000E+00 -0.00000000000E+00 -0.42405340206E+02  0.42405340206E+02  0.00000000000E+00 0. -1.
          5    1    1    2  501    0 -0.39982883360E+01  0.18471004315E+01 -0.55543936154E+01  0.85052559078E+01  0.47000000000E+01 0.  1.
         -5    1    1    2    0  503  0.39982883360E+01 -0.18471004315E+01 -0.35082317670E+02  0.35668713219E+02  0.47000000000E+01 0. -1.
<mgrwt>
<rscale>  2 0.64411249E+01</rscale>
<asrwt>0</asrwt>
<pdfrwt beam="1">  1       21 0.27209676E-03 0.64411249E+01</pdfrwt>
<pdfrwt beam="2">  1       21 0.65238984E-02 0.64411249E+01</pdfrwt>
<totfact> 0.13466663E+09</totfact>
</mgrwt>
</event>
<event>
 4    1  0.3858687E+006  0.9889694E+01  0.7546771E-02  0.2081320E+00
         21   -1    0    0  503  502  0.00000000000E+00  0.00000000000E+00  0.59940874650E+03  0.59940874650E+03  0.00000000000E+00 0.  1.
         21   -1    0    0  501  503 -0.00000000000E+00 -0.00000000000E+00 -0.35388396947E+00  0.35388396947E+00  0.00000000000E+00 0.  1.
          5    1    1    2  501    0  0.57468991631E+01 -0.65336966801E+01  0.79382225324E+02  0.79995898268E+02  0.47000000000E+01 0.  1.
         -5    1    1    2    0  502 -0.57468991631E+01  0.65336966801E+01  0.51967263720E+03  0.51976673220E+03  0.47000000000E+01 0.  1.
<mgrwt>
<rscale>  2 0.98896937E+01</rscale>
<asrwt>0</asrwt>
<pdfrwt beam="1">  1       21 0.92215918E-01 0.98896937E+01</pdfrwt>
<pdfrwt beam="2">  1       21 0.54444167E-04 0.98896937E+01</pdfrwt>
<totfact> 0.16798870E+08</totfact>
</mgrwt>
</event>
<event>
 4    1  0.3858687E+006  0.5419557E+01  0.7546771E-02  0.2497706E+00
         21   -1    0    0  501  502  0.00000000000E+00  0.00000000000E+00  0.86174643056E+00  0.86174643056E+00  0.00000000000E+00 0. -1.
         21   -1    0    0  502  503 -0.00000000000E+00 -0.00000000000E+00 -0.36400687710E+02  0.36400687710E+02  0.00000000000E+00 0.  1.
          5    1    1    2  501    0  0.22073106117E+01  0.15522157766E+01 -0.13069027326E+02  0.14148182541E+02  0.47000000000E+01 0. -1.
         -5    1    1    2    0  503 -0.22073106117E+01 -0.15522157766E+01 -0.22469913953E+02  0.23114251600E+02  0.47000000000E+01 0. -1.
<mgrwt>
<rscale>  2 0.54195566E+01</rscale>
<asrwt>0</asrwt>
<pdfrwt beam="1">  1       21 0.13257637E-03 0.54195566E+01</pdfrwt>
<pdfrwt beam="2">  1       21 0.56001060E-02 0.54195566E+01</pdfrwt>
<totfact> 0.38697631E+09</totfact>
</mgrwt>
</event>
<event>
 4    1  0.3858687E+006  0.8142251E+01  0.7546771E-02  0.2199234E+00
         21   -1    0    0  503  502  0.00000000000E+00  0.00000000000E+00  0.89517588623E+02  0.89517588623E+02  0.00000000000E+00 0.  1.
         21   -1    0    0  501  503 -0.00000000000E+00 -0.00000000000E+00 -0.93814335410E+00  0.93814335410E+00  0.00000000000E+00 0. -1.
          5    1    1    2  501    0 -0.57084566672E+01 -0.34087779506E+01  0.23535397420E+02  0.24904039359E+02  0.47000000000E+01 0. -1.
         -5    1    1    2    0  502  0.57084566672E+01  0.34087779506E+01  0.65044047849E+02  0.65551692619E+02  0.47000000000E+01 0.  1.
<mgrwt>
<rscale>  2 0.81422506E+01</rscale>
<asrwt>0</asrwt>
<pdfrwt beam="1">  1       21 0.13771930E-01 0.81422506E+01</pdfrwt>
<pdfrwt beam="2">  1       21 0.14432982E-03 0.81422506E+01</pdfrwt>
<totfact> 0.11930746E+09</totfact>
</mgrwt>
</event>
<event>
 4    1  0.3858687E+006  0.6075196E+01  0.7546771E-02  0.2405738E+00
         21   -1    0    0  501  502  0.00000000000E+00  0.00000000000E+00  0.70582189415E+01  0.70582189415E+01  0.00000000000E+00 0. -1.
         21   -1    0    0  502  503 -0.00000000000E+00 -0.00000000000E+00 -0.17983961201E+02  0.17983961201E+02  0.00000000000E+00 0.  1.
          5    1    1    2  501    0 -0.36114760984E+01  0.13323849985E+01  0.50819113888E+01  0.79204692258E+01  0.47000000000E+01 0. -1.
         -5    1    1    2    0  503  0.36114760984E+01 -0.13323849985E+01 -0.16007653649E+02  0.17121710917E+02  0.47000000000E+01 0.  1.
<mgrwt>
<rscale>  2 0.60751962E+01</rscale>
<asrwt>0</asrwt>
<pdfrwt beam="1">  1       21 0.10858799E-02 0.60751962E+01</pdfrwt>
<pdfrwt beam="2">  1       21 0.27667632E-02 0.60751962E+01</pdfrwt>
<totfact> 0.66229289E+08</totfact>
</mgrwt>
</event>
<event>
 4    1  0.3858687E+006  0.7340638E+01  0.7546771E-02  0.2267964E+00
         21   -1    0    0  503  502  0.00000000000E+00  0.00000000000E+00  0.47490148498E+01  0.47490148498E+01  0.00000000000E+00 0. -1.
         21   -1    0    0  501  503 -0.00000000000E+00 -0.00000000000E+00 -0.11348558988E+02  0.11348558988E+02  0.00000000000E+00 0.  1.
          5    1    1    2  501    0  0.32430379179E+01  0.46127725669E+01 -0.34066865269E+01  0.80926187840E+01  0.47000000000E+01 0.  1.
         -5    1    1    2    0  502 -0.32430379179E+01 -0.46127725669E+01 -0.31928576117E+01  0.80049550542E+01  0.47000000000E+01 0. -1.
<mgrwt>
<rscale>  2 0.73406380E+01</rscale>
<asrwt>0</asrwt>
<pdfrwt beam="1">  1       21 0.73061767E-03 0.73406380E+01</pdfrwt>
<pdfrwt beam="2">  1       21 0.17459321E-02 0.73406380E+01</pdfrwt>
<totfact> 0.26211573E+09</totfact>
</mgrwt>
</event>
<event>
 4    1  0.3858687E+006  0.6853533E+01  0.7546771E-02  0.2316018E+00
         21   -1    0    0  503  502  0.00000000000E+00  0.00000000000E+00  0.10592100745E+01  0.10592100745E+01  0.00000000000E+00 0.  1.
         21   -1    0    0  501  503 -0.00000000000E+00 -0.00000000000E+00 -0.68285015763E+02  0.68285015763E+02  0.00000000000E+00 0. -1.
          5    1    1    2  501    0 -0.54626071671E+00  0.49580753599E+01 -0.54142373484E+02  0.54574421834E+02  0.47000000000E+01 0. -1.
         -5    1    1    2    0  502  0.54626071671E+00 -0.49580753599E+01 -0.13083432204E+02  0.14769804003E+02  0.47000000000E+01 0.  1.
<mgrwt>
<rscale>  2 0.68535328E+01</rscale>
<asrwt>0</asrwt>
<pdfrwt beam="1">  1       21 0.16295539E-03 0.68535328E+01</pdfrwt>
<pdfrwt beam="2">  1       21 0.10505388E-01 0.68535328E+01</pdfrwt>
<totfact> 0.13745834E+09</totfact>
</mgrwt>
</event>
<event>
 4    1  0.3858687E+006  0.7310845E+01  0.7546771E-02  0.2270752E+00
         21   -1    0    0  501  502  0.00000000000E+00  0.00000000000E+00  0.81205737650E+03  0.81205737650E+03  0.00000000000E+00 0. -1.
         21   -1    0    0  502  503 -0.00000000000E+00 -0.00000000000E+00 -0.67737600370E-01  0.67737600370E-01  0.00000000000E+00 0. -1.
          5    1    1    2  501    0 -0.46107896151E+01  0.31779043757E+01  0.47434170229E+03  0.47439803856E+03  0.47000000000E+01 0. -1.
         -5    1    1    2    0  503  0.46107896151E+01 -0.31779043757E+01  0.33764793661E+03  0.33772707554E+03  0.47000000000E+01 0. -1.
<mgrwt>
<rscale>  2 0.73108452E+01</rscale>
<asrwt>0</asrwt>
<pdfrwt beam="1">  1       21 0.12492411E+00 0.73108452E+01</pdfrwt>
<pdfrwt beam="2">  1       21 0.10421820E-04 0.73108452E+01</pdfrwt>
<totfact> 0.71480414E+08</totfact>
</mgrwt>
</event>
<event>
 4    1  0.3858687E+006  0.1016508E+02  0.7546771E-02  0.2065713E+00
         21   -1    0    0  501  502  0.00000000000E+00  0.00000000000E+00  0.64477740830E+00  0.64477740830E+00  0.00000000000E+00 0.  1.
         21   -1    0    0  502  503 -0.00000000000E+00 -0.00000000000E+00 -0.24720480513E+03  0.24720480513E+03  0.00000000000E+00 0. -1.
          5    1    1    2  501    0 -0.85359327028E+01 -0.28942514470E+01 -0.49783978388E+02  0.50811153723E+02  0.47000000000E+01 0.  1.
         -5    1    1    2    0  503  0.85359327028E+01  0.28942514470E+01 -0.19677604934E+03  0.19703842882E+03  0.47000000000E+01 0. -1.
<mgrwt>
<rscale>  2 0.10165079E+02</rscale>
<asrwt>0</asrwt>
<pdfrwt beam="1">  1       21 0.99196480E-04 0.10165079E+02</pdfrwt>
<pdfrwt beam="2">  1       21 0.38031525E-01 0.10165079E+02</pdfrwt>
<totfact> 0.40784772E+08</totfact>
</mgrwt>
</event>
<event>
 4    1  0.3858687E+006  0.6108512E+01  0.7546771E-02  0.2401511E+00
         21   -1    0    0  503  502  0.00000000000E+00  0.00000000000E+00  0.37500491500E+02  0.37500491500E+02  0.00000000000E+00 0. -1.
         21   -1    0    0  501  503 -0.00000000000E+00 -0.00000000000E+00 -0.13231107908E+01  0.13231107908E+01  0.00000000000E+00 0.  1.
          5    1    1    2  501    0  0.19079435096E+01  0.34034783373E+01  0.84223590937E+01  0.10404328231E+02  0.47000000000E+01 0.  1.
         -5    1    1    2    0  502 -0.19079435096E+01 -0.34034783373E+01  0.27755021615E+02  0.28419274060E+02  0.47000000000E+01 0. -1.
<mgrwt>
<rscale>  2 0.61085115E+01</rscale>
<asrwt>0</asrwt>
<pdfrwt beam="1">  1       21 0.57693056E-02 0.61085115E+01</pdfrwt>
<pdfrwt beam="2">  1       21 0.20355553E-03 0.61085115E+01</pdfrwt>
<totfact> 0.23074582E+09</totfact>
</mgrwt>
</event>
<event>
 4    1  0.3858687E+006  0.5848600E+01  0.7546771E-02  0.2435555E+00
         21   -1    0    0  501  502  0.00000000000E+00  0.00000000000E+00  0.46426502502E+01  0.46426502502E+01  0.00000000000E+00 0. -1.
         21   -1    0    0  502  503 -0.00000000000E+00 -0.00000000000E+00 -0.77918648683E+01  0.77918648683E+01  0.00000000000E+00 0.  1.
          5    1    1    2  501    0 -0.56005012661E+00  0.34354724866E+01 -0.12418882549E+00  0.58499188213E+01  0.47000000000E+01 0. -1.
         -5    1    1    2    0  503  0.56005012661E+00 -0.34354724866E+01 -0.30250257926E+01  0.65845962972E+01  0.47000000000E+01 0.  1.
<mgrwt>
<rscale>  2 0.58486005E+01</rscale>
<asrwt>0</asrwt>
<pdfrwt beam="1">  1       21 0.71425389E-03 0.58486005E+01</pdfrwt>
<pdfrwt beam="2">  1       21 0.11987484E-02 0.58486005E+01</pdfrwt>
<totfact> 0.38295813E+09</totfact>
</mgrwt>
</event>
<event>
 4    1  0.3858687E+006  0.4831640E+01  0.7546771E-02  0.2597916E+00
         21   -1    0    0  501  502  0.00000000000E+00  0.00000000000E+00  0.21994857879E+01  0.21994857879E+01  0.00000000000E+00 0. -1.
         21   -1    0    0  502  503 -0.00000000000E+00 -0.00000000000E+00 -0.15604414826E+02  0.15604414826E+02  0.00000000000E+00 0. -1.
          5    1    1    2  501    0  0.79474331690E+00  0.78938532015E+00 -0.16681361786E+01  0.51114992354E+01  0.47000000000E+01 0.  1.
         -5    1    1    2    0  503 -0.79474331690E+00 -0.78938532015E+00 -0.11736792859E+02  0.12692401378E+02  0.47000000000E+01 0.  1.
<mgrwt>
<rscale>  2 0.48316401E+01</rscale>
<asrwt>0</asrwt>
<pdfrwt beam="1">  1       21 0.33838243E-03 0.48316401E+01</pdfrwt>
<pdfrwt beam="2">  1       21 0.24006792E-02 0.48316401E+01</pdfrwt>
<totfact> 0.33160532E+09</totfact>
</mgrwt>
</event>
<event>
 4    1  0.3858687E+006  0.1332019E+02  0.7546771E-02  0.1924122E+00
         21   -1    0    0  503  502  0.00000000000E+00  0.00000000000E+00  0.37552032467E+02  0.37552032467E+02  0.00000000000E+00 0.  1.
         21   -1    0    0  501  503 -0.00000000000E+00 -0.00000000000E+00 -0.96935179485E+01  0.96935179485E+01  0.00000000000E+00 0. -1.
          5    1    1    2  501    0 -0.93747227732E+01 -0.82129217028E+01 -0.29833451797E+01  0.13650196278E+02  0.47000000000E+01 0. -1.
         -5    1    1    2    0  502  0.93747227732E+01  0.82129217028E+01  0.30841859698E+02  0.33595354137E+02  0.47000000000E+01 0.  1.
<mgrwt>
<rscale>  2 0.13320192E+02</rscale>
<asrwt>0</asrwt>
<pdfrwt beam="1">  1       21 0.57772357E-02 0.13320192E+02</pdfrwt>
<pdfrwt beam="2">  1       21 0.14913105E-02 0.13320192E+02</pdfrwt>
<totfact> 0.21786417E+08</totfact>
</mgrwt>
</event>
<event>
 4    1  0.3858687E+006  0.5310857E+01  0.7546771E-02  0.2514796E+00
         21   -1    0    0  503  502  0.00000000000E+00  0.00000000000E+00  0.30088799857E+02  0.30088799857E+02  0.00000000000E+00 0. -1.
         21   -1    0    0  501  503 -0.00000000000E+00 -0.00000000000E+00 -0.94067456749E+00  0.94067456749E+00  0.00000000000E+00 0. -1.
          5    1    1    2  501    0 -0.23144874542E+01  0.87083213910E+00  0.15489629929E+02  0.16374792705E+02  0.47000000000E+01 0.  1.
         -5    1    1    2    0  502  0.23144874542E+01 -0.87083213910E+00  0.13658495360E+02  0.14654681719E+02  0.47000000000E+01 0.  1.
<mgrwt>
<rscale>  2 0.53108569E+01</rscale>
<asrwt>0</asrwt>
<pdfrwt beam="1">  1       21 0.46290454E-02 0.53108569E+01</pdfrwt>
<pdfrwt beam="2">  1       21 0.14471919E-03 0.53108569E+01</pdfrwt>
<totfact> 0.44626772E+09</totfact>
</mgrwt>
</event>
<event>
 4    1  0.3858687E+006  0.9600151E+01  0.7546771E-02  0.2098484E+00
         21   -1    0    0  503  502  0.00000000000E+00  0.00000000000E+00  0.46327656021E+00  0.46327656021E+00  0.00000000000E+00 0. -1.
         21   -1    0    0  501  503 -0.00000000000E+00 -0.00000000000E+00 -0.21761518206E+03  0.21761518206E+03  0.00000000000E+00 0.  1.
          5    1    1    2  501    0 -0.56737162837E+01 -0.61548228499E+01 -0.14052104759E+03  0.14084859857E+03  0.47000000000E+01 0. -1.
         -5    1    1    2    0  502  0.56737162837E+01  0.61548228499E+01 -0.76630857902E+02  0.77229860052E+02  0.47000000000E+01 0.  1.
<mgrwt>
<rscale>  2 0.96001511E+01</rscale>
<asrwt>0</asrwt>
<pdfrwt beam="1">  1       21 0.71273394E-04 0.96001511E+01</pdfrwt>
<pdfrwt beam="2">  1       21 0.33479223E-01 0.96001511E+01</pdfrwt>
<totfact> 0.78279386E+08</totfact>
</mgrwt>
</event>
<event>
 4    1  0.3858687E+006  0.7473711E+01  0.7546771E-02  0.2255730E+00
         21   -1    0    0  503  502  0.00000000000E+00  0.00000000000E+00  0.25618399841E+01  0.25618399841E+01  0.00000000000E+00 0. -1.
         21   -1    0    0  501  503 -0.00000000000E+00 -0.00000000000E+00 -0.27093492207E+02  0.27093492207E+02  0.00000000000E+00 0.  1.
          5    1    1    2  501    0  0.53249434312E+01 -0.23262288792E+01 -0.18817907333E+02  0.20247715914E+02  0.47000000000E+01 0.  1.
         -5    1    1    2    0  502 -0.53249434312E+01  0.23262288792E+01 -0.57137448894E+01  0.94076162764E+01  0.47000000000E+01 0. -1.
<mgrwt>
<rscale>  2 0.74737115E+01</rscale>
<asrwt>0</asrwt>
<pdfrwt beam="1">  1       21 0.39412923E-03 0.74737115E+01</pdfrwt>
<pdfrwt beam="2">  1       21 0.41682296E-02 0.74737115E+01</pdfrwt>
<totfact> 0.17635558E+09</totfact>
</mgrwt>
</event>
<event>
 4    1  0.3858687E+006  0.6576091E+01  0.7546771E-02  0.2345977E+00
         21   -1    0    0  501  502  0.00000000000E+00  0.00000000000E+00  0.18798661108E+04  0.18798661108E+04  0.00000000000E+00 0.  1.
         21   -1    0    0  502  503 -0.00000000000E+00 -0.00000000000E+00 -0.15359717517E+00  0.15359717517E+00  0.00000000000E+00 0.  1.
          5    1    1    2  501    0  0.24860579654E+01  0.38696882565E+01  0.18066196530E+04  0.18066316214E+04  0.47000000000E+01 0.  1.
         -5    1    1    2    0  503 -0.24860579654E+01 -0.38696882565E+01  0.73092860698E+02  0.73388086611E+02  0.47000000000E+01 0.  1.
<mgrwt>
<rscale>  2 0.65760909E+01</rscale>
<asrwt>0</asrwt>
<pdfrwt beam="1">  1       21 0.28919175E+00 0.65760909E+01</pdfrwt>
<pdfrwt beam="2">  1       21 0.23631840E-04 0.65760909E+01</pdfrwt>
<totfact> 0.33315848E+07</totfact>
</mgrwt>
</event>
<event>
 4    1  0.3858687E+006  0.5969989E+01  0.7546771E-02  0.2419346E+00
         21   -1    0    0  501  502  0.00000000000E+00  0.00000000000E+00  0.58695830139E+02  0.58695830139E+02  0.00000000000E+00 0. -1.
         21   -1    0    0  502  503 -0.00000000000E+00 -0.00000000000E+00 -0.67418840644E+00  0.67418840644E+00  0.00000000000E+00 0.  1.
          5    1    1    2  501    0 -0.19172498702E+01 -0.31424379464E+01  0.38367251065E+02  0.38828941752E+02  0.47000000000E+01 0.  1.
         -5    1    1    2    0  503  0.19172498702E+01  0.31424379464E+01  0.19654390667E+02  0.20541076793E+02  0.47000000000E+01 0.  1.
<mgrwt>
<rscale>  2 0.59699886E+01</rscale>
<asrwt>0</asrwt>
<pdfrwt beam="1">  1       21 0.90301237E-02 0.59699886E+01</pdfrwt>
<pdfrwt beam="2">  1       21 0.10372134E-03 0.59699886E+01</pdfrwt>
<totfact> 0.28658263E+09</totfact>
</mgrwt>
</event>
<event>
 4    1  0.3858687E+006  0.1008689E+02  0.7546771E-02  0.2070076E+00
         21   -1    0    0  501  502  0.00000000000E+00  0.00000000000E+00  0.52443416573E+03  0.52443416573E+03  0.00000000000E+00 0.  1.
         21   -1    0    0  502  503 -0.00000000000E+00 -0.00000000000E+00 -0.13549597512E+01  0.13549597512E+01  0.00000000000E+00 0. -1.
          5    1    1    2  501    0  0.39074386115E+01 -0.80241624847E+01  0.50488615314E+03  0.50498690368E+03  0.47000000000E+01 0.  1.
         -5    1    1    2    0  503 -0.39074386115E+01  0.80241624847E+01  0.18193052837E+02  0.20802221795E+02  0.47000000000E+01 0. -1.
<mgrwt>
<rscale>  2 0.10086886E+02</rscale>
<asrwt>0</asrwt>
<pdfrwt beam="1">  1       21 0.80682018E-01 0.10086886E+02</pdfrwt>
<pdfrwt beam="2">  1       21 0.20845576E-03 0.10086886E+02</pdfrwt>
<totfact> 0.34764012E+07</totfact>
</mgrwt>
</event>
<event>
 4    1  0.3858687E+006  0.6578262E+01  0.7546771E-02  0.2345735E+00
         21   -1    0    0  503  502  0.00000000000E+00  0.00000000000E+00  0.12771478019E+02  0.12771478019E+02  0.00000000000E+00 0. -1.
         21   -1    0    0  501  503 -0.00000000000E+00 -0.00000000000E+00 -0.37461439661E+01  0.37461439661E+01  0.00000000000E+00 0.  1.
          5    1    1    2  501    0  0.32582975624E+01  0.32506958423E+01  0.19601091987E+01  0.68640771073E+01  0.47000000000E+01 0. -1.
         -5    1    1    2    0  502 -0.32582975624E+01 -0.32506958423E+01  0.70652248540E+01  0.96535448775E+01  0.47000000000E+01 0.  1.
<mgrwt>
<rscale>  2 0.65782617E+01</rscale>
<asrwt>0</asrwt>
<pdfrwt beam="1">  1       21 0.19648428E-02 0.65782617E+01</pdfrwt>
<pdfrwt beam="2">  1       21 0.57632985E-03 0.65782617E+01</pdfrwt>
<totfact> 0.28297252E+09</totfact>
</mgrwt>
</event>
<event>
 4    1  0.3858687E+006  0.5282358E+01  0.7546771E-02  0.2519376E+00
         21   -1    0    0  503  502  0.00000000000E+00  0.00000000000E+00  0.30633853470E+01  0.30633853470E+01  0.00000000000E+00 0.  1.
         21   -1    0    0  501  503 -0.00000000000E+00 -0.00000000000E+00 -0.10143164146E+02  0.10143164146E+02  0.00000000000E+00 0. -1.
          5    1    1    2  501    0  0.25236720814E+00  0.23978368562E+01 -0.56487139868E+01  0.77337753071E+01  0.47000000000E+01 0. -1.
         -5    1    1    2    0  502 -0.25236720814E+00 -0.23978368562E+01 -0.14310648126E+01  0.54727741863E+01  0.47000000000E+01 0.  1.
<mgrwt>
<rscale>  2 0.52823585E+01</rscale>
<asrwt>0</asrwt>
<pdfrwt beam="1">  1       21 0.47129005E-03 0.52823585E+01</pdfrwt>
<pdfrwt beam="2">  1       21 0.15604868E-02 0.52823585E+01</pdfrwt>
<totfact> 0.42586153E+09</totfact>
</mgrwt>
</event>
<event>
 4    1  0.3858687E+006  0.4712604E+01  0.7546771E-02  0.2620811E+00
         21   -1    0    0  501  502  0.00000000000E+00  0.00000000000E+00  0.35125458620E+03  0.35125458620E+03  0.00000000000E+00 0.  1.
         21   -1    0    0  502  503 -0.00000000000E+00 -0.00000000000E+00 -0.49754217994E+00  0.49754217994E+00  0.00000000000E+00 0.  1.
          5    1    1    2  501    0  0.33582938938E+00 -0.76501096018E-01  0.33970005941E+03  0.33973274643E+03  0.47000000000E+01 0.  1.
         -5    1    1    2    0  503 -0.33582938938E+00  0.76501096018E-01  0.11056984614E+02  0.12019381954E+02  0.47000000000E+01 0.  1.
<mgrwt>
<rscale>  2 0.47126037E+01</rscale>
<asrwt>0</asrwt>
<pdfrwt beam="1">  1       21 0.54038969E-01 0.47126037E+01</pdfrwt>
<pdfrwt beam="2">  1       21 0.76545231E-04 0.47126037E+01</pdfrwt>
<totfact> 0.19154397E+08</totfact>
</mgrwt>
</event>
<event>
 4    1  0.3858687E+006  0.7380193E+01  0.7546771E-02  0.2264290E+00
         21   -1    0    0  503  502  0.00000000000E+00  0.00000000000E+00  0.70567101158E+02  0.70567101158E+02  0.00000000000E+00 0. -1.
         21   -1    0    0  501  503 -0.00000000000E+00 -0.00000000000E+00 -0.97889736269E+00  0.97889736269E+00  0.00000000000E+00 0. -1.
          5    1    1    2  501    0 -0.54986683200E+01 -0.14635199951E+01  0.18342006318E+02  0.19771101128E+02  0.47000000000E+01 0. -1.
         -5    1    1    2    0  502  0.54986683200E+01  0.14635199951E+01  0.51246197477E+02  0.51774897392E+02  0.47000000000E+01 0. -1.
<mgrwt>
<rscale>  2 0.73801927E+01</rscale>
<asrwt>0</asrwt>
<pdfrwt beam="1">  1       21 0.10856473E-01 0.73801927E+01</pdfrwt>
<pdfrwt beam="2">  1       21 0.15059965E-03 0.73801927E+01</pdfrwt>
<totfact> 0.15343930E+09</totfact>
</mgrwt>
</event>
<event>
 4    1  0.3858687E+006  0.6036541E+01  0.7546771E-02  0.2410692E+00
         21   -1    0    0  501  502  0.00000000000E+00  0.00000000000E+00  0.18865649666E+03  0.18865649666E+03  0.00000000000E+00 0.  1.
         21   -1    0    0  502  503 -0.00000000000E+00 -0.00000000000E+00 -0.48396314918E+00  0.48396314918E+00  0.00000000000E+00 0. -1.
          5    1    1    2  501    0 -0.24390343056E+01  0.28984369150E+01  0.16739438333E+03  0.16750319220E+03  0.47000000000E+01 0.  1.
         -5    1    1    2    0  503  0.24390343056E+01 -0.28984369150E+01  0.20778150180E+02  0.21637267614E+02  0.47000000000E+01 0. -1.
<mgrwt>
<rscale>  2 0.60365408E+01</rscale>
<asrwt>0</asrwt>
<pdfrwt beam="1">  1       21 0.29024018E-01 0.60365408E+01</pdfrwt>
<pdfrwt beam="2">  1       21 0.74456020E-04 0.60365408E+01</pdfrwt>
<totfact> 0.70342165E+08</totfact>
</mgrwt>
</event>
<event>
 4    1  0.3858687E+006  0.5000746E+01  0.7546771E-02  0.2567021E+00
         21   -1    0    0  501  502  0.00000000000E+00  0.00000000000E+00  0.79798400485E+02  0.79798400485E+02  0.00000000000E+00 0.  1.
         21   -1    0    0  502  503 -0.00000000000E+00 -0.00000000000E+00 -0.68809423000E+00  0.68809423000E+00  0.00000000000E+00 0.  1.
          5    1    1    2  501    0  0.16090795621E+01  0.57299655846E+00  0.69252483807E+02  0.69432801870E+02  0.47000000000E+01 0.  1.
         -5    1    1    2    0  503 -0.16090795621E+01 -0.57299655846E+00  0.98578224480E+01  0.11053692845E+02  0.47000000000E+01 0.  1.
<mgrwt>
<rscale>  2 0.50007462E+01</rscale>
<asrwt>0</asrwt>
<pdfrwt beam="1">  1       21 0.12276670E-01 0.50007462E+01</pdfrwt>
<pdfrwt beam="2">  1       21 0.10586071E-03 0.50007462E+01</pdfrwt>
<totfact> 0.14869616E+09</totfact>
</mgrwt>
</event>
<event>
 4    1  0.3858687E+006  0.7085153E+01  0.7546771E-02  0.2292494E+00
         21   -1    0    0  501  502  0.00000000000E+00  0.00000000000E+00  0.23048080460E+03  0.23048080460E+03  0.00000000000E+00 0. -1.
         21   -1    0    0  502  503 -0.00000000000E+00 -0.00000000000E+00 -0.92929169158E+00  0.92929169158E+00  0.00000000000E+00 0. -1.
          5    1    1    2  501    0 -0.30024573799E+01  0.43697411420E+01  0.21601766212E+03  0.21613382367E+03  0.47000000000E+01 0. -1.
         -5    1    1    2    0  503  0.30024573799E+01 -0.43697411420E+01  0.13533850797E+02  0.15276272627E+02  0.47000000000E+01 0. -1.
<mgrwt>
<rscale>  2 0.70851526E+01</rscale>
<asrwt>0</asrwt>
<pdfrwt beam="1">  1       21 0.35458540E-01 0.70851526E+01</pdfrwt>
<pdfrwt beam="2">  1       21 0.14296814E-03 0.70851526E+01</pdfrwt>
<totfact> 0.23006726E+08</totfact>
</mgrwt>
</event>
<event>
 4    1  0.3858687E+006  0.5052847E+01  0.7546771E-02  0.2557863E+00
         21   -1    0    0  503  502  0.00000000000E+00  0.00000000000E+00  0.19865925997E+04  0.19865925997E+04  0.00000000000E+00 0. -1.
         21   -1    0    0  501  503 -0.00000000000E+00 -0.00000000000E+00 -0.28734952628E-01  0.28734952628E-01  0.00000000000E+00 0. -1.
          5    1    1    2  501    0  0.11779222551E+01 -0.14330935798E+01  0.25478544060E+03  0.25483553912E+03  0.47000000000E+01 0. -1.
         -5    1    1    2    0  502 -0.11779222551E+01  0.14330935798E+01  0.17317784241E+04  0.17317857955E+04  0.47000000000E+01 0. -1.
<mgrwt>
<rscale>  2 0.50528465E+01</rscale>
<asrwt>0</asrwt>
<pdfrwt beam="1">  1       21 0.30551967E+00 0.50528465E+01</pdfrwt>
<pdfrwt beam="2">  1       21 0.44223531E-05 0.50528465E+01</pdfrwt>
<totfact> 0.24478197E+08</totfact>
</mgrwt>
</event>
<event>
 4    1  0.3858687E+006  0.5018930E+01  0.7546771E-02  0.2563807E+00
         21   -1    0    0  501  502  0.00000000000E+00  0.00000000000E+00  0.14419994926E+02  0.14419994926E+02  0.00000000000E+00 0. -1.
         21   -1    0    0  502  503 -0.00000000000E+00 -0.00000000000E+00 -0.19324373011E+01  0.19324373011E+01  0.00000000000E+00 0. -1.
          5    1    1    2  501    0 -0.16374768800E+01 -0.64678375963E+00  0.87775439097E+01  0.10111129356E+02  0.47000000000E+01 0. -1.
         -5    1    1    2    0  503  0.16374768800E+01  0.64678375963E+00  0.37100137151E+01  0.62413028712E+01  0.47000000000E+01 0. -1.
<mgrwt>
<rscale>  2 0.50189301E+01</rscale>
<asrwt>0</asrwt>
<pdfrwt beam="1">  1       21 0.22184607E-02 0.50189301E+01</pdfrwt>
<pdfrwt beam="2">  1       21 0.29729806E-03 0.50189301E+01</pdfrwt>
<totfact> 0.46038014E+09</totfact>
</mgrwt>
</event>
<event>
 4    1  0.3858687E+006  0.7726689E+01  0.7546771E-02  0.2233423E+00
         21   -1    0    0  501  502  0.00000000000E+00  0.00000000000E+00  0.33013049756E+00  0.33013049756E+00  0.00000000000E+00 0.  1.
         21   -1    0    0  502  503 -0.00000000000E+00 -0.00000000000E+00 -0.22907493513E+03  0.22907493513E+03  0.00000000000E+00 0. -1.
          5    1    1    2  501    0 -0.52922095397E+01 -0.30990715023E+01 -0.61740092207E+02  0.62221706114E+02  0.47000000000E+01 0. -1.
         -5    1    1    2    0  503  0.52922095397E+01  0.30990715023E+01 -0.16700471243E+03  0.16718335952E+03  0.47000000000E+01 0.  1.
<mgrwt>
<rscale>  2 0.77266892E+01</rscale>
<asrwt>0</asrwt>
<pdfrwt beam="1">  1       21 0.50789317E-04 0.77266892E+01</pdfrwt>
<pdfrwt beam="2">  1       21 0.35242291E-01 0.77266892E+01</pdfrwt>
<totfact> 0.99930553E+08</totfact>
</mgrwt>
</event>
<event>
 4    1  0.3858687E+006  0.8566711E+01  0.7546771E-02  0.2167093E+00
         21   -1    0    0  501  502  0.00000000000E+00  0.00000000000E+00  0.11504975426E+01  0.11504975426E+01  0.00000000000E+00 0. -1.
         21   -1    0    0  502  503 -0.00000000000E+00 -0.00000000000E+00 -0.64349029706E+02  0.64349029706E+02  0.00000000000E+00 0.  1.
          5    1    1    2  501    0  0.64751769608E+01 -0.30611458486E+01 -0.28542723888E+02  0.29800597604E+02  0.47000000000E+01 0.  1.
         -5    1    1    2    0  503 -0.64751769608E+01  0.30611458486E+01 -0.34655808275E+02  0.35698929645E+02  0.47000000000E+01 0. -1.
<mgrwt>
<rscale>  2 0.85667106E+01</rscale>
<asrwt>0</asrwt>
<pdfrwt beam="1">  1       21 0.17699962E-03 0.85667106E+01</pdfrwt>
<pdfrwt beam="2">  1       21 0.98998508E-02 0.85667106E+01</pdfrwt>
<totfact> 0.15705737E+09</totfact>
</mgrwt>
</event>
<event>
 4    1  0.3858687E+006  0.4751538E+01  0.7546771E-02  0.2613213E+00
         21   -1    0    0  503  502  0.00000000000E+00  0.00000000000E+00  0.38581257147E+01  0.38581257147E+01  0.00000000000E+00 0. -1.
         21   -1    0    0  501  503 -0.00000000000E+00 -0.00000000000E+00 -0.17158649989E+02  0.17158649989E+02  0.00000000000E+00 0. -1.
          5    1    1    2  501    0  0.65576074402E+00 -0.23892794271E+00 -0.15180570105E+02  0.15906816697E+02  0.47000000000E+01 0. -1.
         -5    1    1    2    0  502 -0.65576074402E+00  0.23892794271E+00  0.18800458314E+01  0.51099590060E+01  0.47000000000E+01 0. -1.
<mgrwt>
<rscale>  2 0.47515375E+01</rscale>
<asrwt>0</asrwt>
<pdfrwt beam="1">  1       21 0.59355782E-03 0.47515375E+01</pdfrwt>
<pdfrwt beam="2">  1       21 0.26397922E-02 0.47515375E+01</pdfrwt>
<totfact> 0.13215370E+09</totfact>
</mgrwt>
</event>
<event>
 4    1  0.3858687E+006  0.8434896E+01  0.7546771E-02  0.2176796E+00
         21   -1    0    0  503  502  0.00000000000E+00  0.00000000000E+00  0.12638367065E+04  0.12638367065E+04  0.00000000000E+00 0.  1.
         21   -1    0    0  501  503 -0.00000000000E+00 -0.00000000000E+00 -0.56865054462E-01  0.56865054462E-01  0.00000000000E+00 0. -1.
          5    1    1    2  501    0 -0.39829267222E+01 -0.57614023354E+01  0.56860739070E+03  0.56866995017E+03  0.47000000000E+01 0. -1.
         -5    1    1    2    0  502  0.39829267222E+01  0.57614023354E+01  0.69517245072E+03  0.69522362136E+03  0.47000000000E+01 0. -1.
<mgrwt>
<rscale>  2 0.84348955E+01</rscale>
<asrwt>0</asrwt>
<pdfrwt beam="1">  1       21 0.19441392E+00 0.84348955E+01</pdfrwt>
<pdfrwt beam="2">  1       21 0.87494821E-05 0.84348955E+01</pdfrwt>
<totfact> 0.36528744E+08</totfact>
</mgrwt>
</event>
<event>
 4    1  0.3858687E+006  0.4955833E+01  0.7546771E-02  0.2575049E+00
         21   -1    0    0  503  502  0.00000000000E+00  0.00000000000E+00  0.17764608238E+03  0.17764608238E+03  0.00000000000E+00 0. -1.
         21   -1    0    0  501  503 -0.00000000000E+00 -0.00000000000E+00 -0.35618271897E+00  0.35618271897E+00  0.00000000000E+00 0. -1.
          5    1    1    2  501    0  0.14542811163E+01 -0.59610963353E+00  0.19027782129E+02  0.19662572899E+02  0.47000000000E+01 0. -1.
         -5    1    1    2    0  502 -0.14542811163E+01  0.59610963353E+00  0.15826211753E+03  0.15833969220E+03  0.47000000000E+01 0. -1.
<mgrwt>
<rscale>  2 0.49558330E+01</rscale>
<asrwt>0</asrwt>
<pdfrwt beam="1">  1       21 0.27330096E-01 0.49558330E+01</pdfrwt>
<pdfrwt beam="2">  1       21 0.54797483E-04 0.49558330E+01</pdfrwt>
<totfact> 0.99636911E+08</totfact>
</mgrwt>
</event>
<event>
 4    1  0.3858687E+006  0.6453529E+01  0.7546771E-02  0.2359886E+00
         21   -1    0    0  501  502  0.00000000000E+00  0.00000000000E+00  0.13916784063E+02  0.13916784063E+02  0.00000000000E+00 0. -1.
         21   -1    0    0  502  503 -0.00000000000E+00 -0.00000000000E+00 -0.30018455401E+01  0.30018455401E+01  0.00000000000E+00 0. -1.
          5    1    1    2  501    0 -0.41144327189E+01 -0.16215678547E+01  0.59257129380E+01  0.87613990167E+01  0.47000000000E+01 0. -1.
         -5    1    1    2    0  503  0.41144327189E+01  0.16215678547E+01  0.49892255853E+01  0.81572305869E+01  0.47000000000E+01 0. -1.
<mgrwt>
<rscale>  2 0.64535292E+01</rscale>
<asrwt>0</asrwt>
<pdfrwt beam="1">  1       21 0.21410437E-02 0.64535292E+01</pdfrwt>
<pdfrwt beam="2">  1       21 0.46182240E-03 0.64535292E+01</pdfrwt>
<totfact> 0.33510056E+09</totfact>
</mgrwt>
</event>
<event>
 4    1  0.3858687E+006  0.5767805E+01  0.7546771E-02  0.2446660E+00
         21   -1    0    0  501  502  0.00000000000E+00  0.00000000000E+00  0.61070502368E+03  0.61070502368E+03  0.00000000000E+00 0.  1.
         21   -1    0    0  502  503 -0.00000000000E+00 -0.00000000000E+00 -0.67093647087E-01  0.67093647087E-01  0.00000000000E+00 0.  1.
          5    1    1    2  501    0  0.13262205628E+01  0.30689926283E+01  0.43776264242E+03  0.43780063805E+03  0.47000000000E+01 0.  1.
         -5    1    1    2    0  503 -0.13262205628E+01 -0.30689926283E+01  0.17287528761E+03  0.17297147928E+03  0.47000000000E+01 0.  1.
<mgrwt>
<rscale>  2 0.57678052E+01</rscale>
<asrwt>0</asrwt>
<pdfrwt beam="1">  1       21 0.93950168E-01 0.57678052E+01</pdfrwt>
<pdfrwt beam="2">  1       21 0.10322589E-04 0.57678052E+01</pdfrwt>
<totfact> 0.11202530E+09</totfact>
</mgrwt>
</event>
<event>
 4    1  0.3858687E+006  0.5307254E+01  0.7546771E-02  0.2515373E+00
         21   -1    0    0  501  502  0.00000000000E+00  0.00000000000E+00  0.85455010253E-01  0.85455010253E-01  0.00000000000E+00 0. -1.
         21   -1    0    0  502  503 -0.00000000000E+00 -0.00000000000E+00 -0.33456410243E+03  0.33456410243E+03  0.00000000000E+00 0. -1.
          5    1    1    2  501    0 -0.15393752252E+01  0.19254271348E+01 -0.18759762887E+03  0.18767268662E+03  0.47000000000E+01 0. -1.
         -5    1    1    2    0  503  0.15393752252E+01 -0.19254271348E+01 -0.14688101855E+03  0.14697687082E+03  0.47000000000E+01 0. -1.
<mgrwt>
<rscale>  2 0.53072541E+01</rscale>
<asrwt>0</asrwt>
<pdfrwt beam="1">  1       21 0.13147065E-04 0.53072541E+01</pdfrwt>
<pdfrwt beam="2">  1       21 0.51470851E-01 0.53072541E+01</pdfrwt>
<totfact> 0.23736737E+09</totfact>
</mgrwt>
</event>
<event>
 4    1  0.3858687E+006  0.5276368E+01  0.7546771E-02  0.2520344E+00
         21   -1    0    0  501  502  0.00000000000E+00  0.00000000000E+00  0.42079404078E+01  0.42079404078E+01  0.00000000000E+00 0.  1.
         21   -1    0    0  502  503 -0.00000000000E+00 -0.00000000000E+00 -0.20318398491E+02  0.20318398491E+02  0.00000000000E+00 0.  1.
          5    1    1    2  501    0  0.14142974422E+00  0.23937546719E+01  0.20153639982E+01  0.56481639359E+01  0.47000000000E+01 0.  1.
         -5    1    1    2    0  503 -0.14142974422E+00 -0.23937546719E+01 -0.18125822082E+02  0.18878174963E+02  0.47000000000E+01 0.  1.
<mgrwt>
<rscale>  2 0.52763684E+01</rscale>
<asrwt>0</asrwt>
<pdfrwt beam="1">  1       21 0.64737542E-03 0.52763684E+01</pdfrwt>
<pdfrwt beam="2">  1       21 0.31259076E-02 0.52763684E+01</pdfrwt>
<totfact> 0.10175206E+09</totfact>
</mgrwt>
</event>
<event>
 4    1  0.3858687E+006  0.6300298E+01  0.7546771E-02  0.2377905E+00
         21   -1    0    0  503  502  0.00000000000E+00  0.00000000000E+00  0.11604630772E+01  0.11604630772E+01  0.00000000000E+00 0.  1.
         21   -1    0    0  501  503 -0.00000000000E+00 -0.00000000000E+00 -0.43073896880E+02  0.43073896880E+02  0.00000000000E+00 0.  1.
          5    1    1    2  501    0  0.21485249579E+01  0.36038312631E+01 -0.30992585050E+02  0.31626477631E+02  0.47000000000E+01 0.  1.
         -5    1    1    2    0  502 -0.21485249579E+01 -0.36038312631E+01 -0.10920848753E+02  0.12607882327E+02  0.47000000000E+01 0.  1.
<mgrwt>
<rscale>  2 0.63002983E+01</rscale>
<asrwt>0</asrwt>
<pdfrwt beam="1">  1       21 0.17853279E-03 0.63002983E+01</pdfrwt>
<pdfrwt beam="2">  1       21 0.66267532E-02 0.63002983E+01</pdfrwt>
<totfact> 0.22999305E+09</totfact>
</mgrwt>
</event>
<event>
 4    1  0.3858687E+006  0.6796677E+01  0.7546771E-02  0.2321993E+00
         21   -1    0    0  501  502  0.00000000000E+00  0.00000000000E+00  0.15795526938E+02  0.15795526938E+02  0.00000000000E+00 0. -1.
         21   -1    0    0  502  503 -0.00000000000E+00 -0.00000000000E+00 -0.43219359072E+01  0.43219359072E+01  0.00000000000E+00 0. -1.
          5    1    1    2  501    0 -0.44476058175E+01 -0.20793316095E+01  0.11456349201E+02  0.13320764034E+02  0.47000000000E+01 0. -1.
         -5    1    1    2    0  503  0.44476058175E+01  0.20793316095E+01  0.17241830411E-01  0.67966988112E+01  0.47000000000E+01 0. -1.
<mgrwt>
<rscale>  2 0.67966769E+01</rscale>
<asrwt>0</asrwt>
<pdfrwt beam="1">  1       21 0.24300810E-02 0.67966769E+01</pdfrwt>
<pdfrwt beam="2">  1       21 0.66491322E-03 0.67966769E+01</pdfrwt>
<totfact> 0.17456314E+09</totfact>
</mgrwt>
</event>
<event>
 4    1  0.3858687E+006  0.5514866E+01  0.7546771E-02  0.2483194E+00
         21   -1    0    0  501  502  0.00000000000E+00  0.00000000000E+00  0.44215387574E+01  0.44215387574E+01  0.00000000000E+00 0.  1.
         21   -1    0    0  502  503 -0.00000000000E+00 -0.00000000000E+00 -0.92131137565E+01  0.92131137565E+01  0.00000000000E+00 0. -1.
          5    1    1    2  501    0  0.21928642513E+01 -0.18748583557E+01  0.10359520437E+01  0.56113228490E+01  0.47000000000E+01 0.  1.
         -5    1    1    2    0  503 -0.21928642513E+01  0.18748583557E+01 -0.58275270427E+01  0.80233296649E+01  0.47000000000E+01 0. -1.
<mgrwt>
<rscale>  2 0.55148660E+01</rscale>
<asrwt>0</asrwt>
<pdfrwt beam="1">  1       21 0.68023674E-03 0.55148660E+01</pdfrwt>
<pdfrwt beam="2">  1       21 0.14174021E-02 0.55148660E+01</pdfrwt>
<totfact> 0.30631554E+09</totfact>
</mgrwt>
</event>
<event>
 4    1  0.3858687E+006  0.5059057E+01  0.7546771E-02  0.2556783E+00
         21   -1    0    0  503  502  0.00000000000E+00  0.00000000000E+00  0.18439182452E+01  0.18439182452E+01  0.00000000000E+00 0. -1.
         21   -1    0    0  501  503 -0.00000000000E+00 -0.00000000000E+00 -0.14315139832E+02  0.14315139832E+02  0.00000000000E+00 0. -1.
          5    1    1    2  501    0  0.12266434549E+01  0.14140012621E+01 -0.48273734984E+01  0.69926810757E+01  0.47000000000E+01 0. -1.
         -5    1    1    2    0  502 -0.12266434549E+01 -0.14140012621E+01 -0.76438480882E+01  0.91663770013E+01  0.47000000000E+01 0. -1.
<mgrwt>
<rscale>  2 0.50590566E+01</rscale>
<asrwt>0</asrwt>
<pdfrwt beam="1">  1       21 0.28367973E-03 0.50590566E+01</pdfrwt>
<pdfrwt beam="2">  1       21 0.22023292E-02 0.50590566E+01</pdfrwt>
<totfact> 0.49993253E+09</totfact>
</mgrwt>
</event>
<event>
 4    1  0.3858687E+006  0.9289588E+01  0.7546771E-02  0.2117826E+00
         21   -1    0    0  501  502  0.00000000000E+00  0.00000000000E+00  0.26757989031E+03  0.26757989031E+03  0.00000000000E+00 0.  1.
         21   -1    0    0  502  503 -0.00000000000E+00 -0.00000000000E+00 -0.37004134988E+00  0.37004134988E+00  0.00000000000E+00 0.  1.
          5    1    1    2  501    0 -0.44541344762E+01 -0.66608653796E+01  0.18162262809E+03  0.18186004365E+03  0.47000000000E+01 0.  1.
         -5    1    1    2    0  503  0.44541344762E+01  0.66608653796E+01  0.85587220876E+02  0.86089888017E+02  0.47000000000E+01 0.  1.
<mgrwt>
<rscale>  2 0.92895878E+01</rscale>
<asrwt>0</asrwt>
<pdfrwt beam="1">  1       21 0.41165982E-01 0.92895878E+01</pdfrwt>
<pdfrwt beam="2">  1       21 0.56929652E-04 0.92895878E+01</pdfrwt>
<totfact> 0.72332486E+08</totfact>
</mgrwt>
</event>
<event>
 4    1  0.3858687E+006  0.4718130E+01  0.7546771E-02  0.2619725E+00
         21   -1    0    0  503  502  0.00000000000E+00  0.00000000000E+00  0.17156784306E+01  0.17156784306E+01  0.00000000000E+00 0. -1.
         21   -1    0    0  501  503 -0.00000000000E+00 -0.00000000000E+00 -0.56135494880E+02  0.56135494880E+02  0.00000000000E+00 0. -1.
          5    1    1    2  501    0  0.39114523650E+00 -0.13326504423E+00 -0.52573287414E+02  0.52784574486E+02  0.47000000000E+01 0. -1.
         -5    1    1    2    0  502 -0.39114523650E+00  0.13326504423E+00 -0.18465290353E+01  0.50665988243E+01  0.47000000000E+01 0. -1.
<mgrwt>
<rscale>  2 0.47181304E+01</rscale>
<asrwt>0</asrwt>
<pdfrwt beam="1">  1       21 0.26395054E-03 0.47181304E+01</pdfrwt>
<pdfrwt beam="2">  1       21 0.86362297E-02 0.47181304E+01</pdfrwt>
<totfact> 0.70550715E+08</totfact>
</mgrwt>
</event>
<event>
 4    1  0.3858687E+006  0.4848198E+01  0.7546771E-02  0.2594809E+00
         21   -1    0    0  501  502  0.00000000000E+00  0.00000000000E+00  0.15436722186E+02  0.15436722186E+02  0.00000000000E+00 0. -1.
         21   -1    0    0  502  503 -0.00000000000E+00 -0.00000000000E+00 -0.15637675162E+01  0.15637675162E+01  0.00000000000E+00 0. -1.
          5    1    1    2  501    0  0.11864072911E+01  0.86356958268E-01  0.83145049381E+01  0.96247603684E+01  0.47000000000E+01 0.  1.
         -5    1    1    2    0  503 -0.11864072911E+01 -0.86356958268E-01  0.55584497315E+01  0.73757293335E+01  0.47000000000E+01 0.  1.
<mgrwt>
<rscale>  2 0.48481976E+01</rscale>
<asrwt>0</asrwt>
<pdfrwt beam="1">  1       21 0.23748802E-02 0.48481976E+01</pdfrwt>
<pdfrwt beam="2">  1       21 0.24057963E-03 0.48481976E+01</pdfrwt>
<totfact> 0.53628539E+09</totfact>
</mgrwt>
</event>
<event>
 4    1  0.3858687E+006  0.7437136E+01  0.7546771E-02  0.2259057E+00
         21   -1    0    0  503  502  0.00000000000E+00  0.00000000000E+00  0.10666943650E+02  0.10666943650E+02  0.00000000000E+00 0. -1.
         21   -1    0    0  501  503 -0.00000000000E+00 -0.00000000000E+00 -0.56677654397E+01  0.56677654397E+01  0.00000000000E+00 0.  1.
          5    1    1    2  501    0 -0.32037130189E+01  0.47913691563E+01  0.11660278410E+00  0.74380502625E+01  0.47000000000E+01 0.  1.
         -5    1    1    2    0  502  0.32037130189E+01 -0.47913691563E+01  0.48825754266E+01  0.88966588277E+01  0.47000000000E+01 0. -1.
<mgrwt>
<rscale>  2 0.74371362E+01</rscale>
<asrwt>0</asrwt>
<pdfrwt beam="1">  1       21 0.16410683E-02 0.74371362E+01</pdfrwt>
<pdfrwt beam="2">  1       21 0.87196391E-03 0.74371362E+01</pdfrwt>
<totfact> 0.22524555E+09</totfact>
</mgrwt>
</event>
<event>
 4    1  0.3858687E+006  0.5493143E+01  0.7546771E-02  0.2486464E+00
         21   -1    0    0  503  502  0.00000000000E+00  0.00000000000E+00  0.39435813709E+01  0.39435813709E+01  0.00000000000E+00 0.  1.
         21   -1    0    0  501  503 -0.00000000000E+00 -0.00000000000E+00 -0.10955303910E+02  0.10955303910E+02  0.00000000000E+00 0.  1.
          5    1    1    2  501    0 -0.28420414404E+01 -0.86120105013E-01 -0.75967120754E+01  0.93746813588E+01  0.47000000000E+01 0.  1.
         -5    1    1    2    0  502  0.28420414404E+01  0.86120105013E-01  0.58498953580E+00  0.55242039226E+01  0.47000000000E+01 0.  1.
<mgrwt>
<rscale>  2 0.54931427E+01</rscale>
<asrwt>0</asrwt>
<pdfrwt beam="1">  1       21 0.60670482E-03 0.54931427E+01</pdfrwt>
<pdfrwt beam="2">  1       21 0.16854314E-02 0.54931427E+01</pdfrwt>
<totfact> 0.27986029E+09</totfact>
</mgrwt>
</event>
<event>
 4    1  0.3858687E+006  0.5247745E+01  0.7546771E-02  0.2524995E+00
         21   -1    0    0  503  502  0.00000000000E+00  0.00000000000E+00  0.16348340638E+01  0.16348340638E+01  0.00000000000E+00 0. -1.
         21   -1    0    0  501  503 -0.00000000000E+00 -0.00000000000E+00 -0.25768680874E+02  0.25768680874E+02  0.00000000000E+00 0. -1.
          5    1    1    2  501    0 -0.20449446461E+01  0.11256242020E+01 -0.20130012780E+02  0.20802794114E+02  0.47000000000E+01 0.  1.
         -5    1    1    2    0  502  0.20449446461E+01 -0.11256242020E+01 -0.40038340311E+01  0.66007208242E+01  0.47000000000E+01 0.  1.
<mgrwt>
<rscale>  2 0.52477451E+01</rscale>
<asrwt>0</asrwt>
<pdfrwt beam="1">  1       21 0.25151293E-03 0.52477451E+01</pdfrwt>
<pdfrwt beam="2">  1       21 0.39644126E-02 0.52477451E+01</pdfrwt>
<totfact> 0.26236204E+09</totfact>
</mgrwt>
</event>
<event>
 4    1  0.3858687E+006  0.5403766E+01  0.7546771E-02  0.2500152E+00
         21   -1    0    0  501  502  0.00000000000E+00  0.00000000000E+00  0.13163180761E+02  0.13163180761E+02  0.00000000000E+00 0. -1.
         21   -1    0    0  502  503 -0.00000000000E+00 -0.00000000000E+00 -0.22337452110E+01  0.22337452110E+01  0.00000000000E+00 0. -1.
          5    1    1    2  501    0  0.21405820074E+01  0.15901551137E+01  0.61036094114E+01  0.81519772119E+01  0.47000000000E+01 0. -1.
         -5    1    1    2    0  503 -0.21405820074E+01 -0.15901551137E+01  0.48258261386E+01  0.72449487601E+01  0.47000000000E+01 0. -1.
<mgrwt>
<rscale>  2 0.54037658E+01</rscale>
<asrwt>0</asrwt>
<pdfrwt beam="1">  1       21 0.20251047E-02 0.54037658E+01</pdfrwt>
<pdfrwt beam="2">  1       21 0.34365312E-03 0.54037658E+01</pdfrwt>
<totfact> 0.46427904E+09</totfact>
</mgrwt>
</event>
<event>
 4    1  0.3858687E+006  0.6468118E+01  0.7546771E-02  0.2358208E+00
         21   -1    0    0  503  502  0.00000000000E+00  0.00000000000E+00  0.10147397012E+03  0.10147397012E+03  0.00000000000E+00 0.  1.
         21   -1    0    0  501  503 -0.00000000000E+00 -0.00000000000E+00 -0.29813890456E+01  0.29813890456E+01  0.00000000000E+00 0. -1.
          5    1    1    2  501    0  0.87542020140E+00  0.43566260138E+01  0.76413101881E+00  0.65130981082E+01  0.47000000000E+01 0. -1.
         -5    1    1    2    0  502 -0.87542020140E+00 -0.43566260138E+01  0.97728450058E+02  0.97942261060E+02  0.47000000000E+01 0.  1.
<mgrwt>
<rscale>  2 0.64681180E+01</rscale>
<asrwt>0</asrwt>
<pdfrwt beam="1">  1       21 0.15611377E-01 0.64681180E+01</pdfrwt>
<pdfrwt beam="2">  1       21 0.45867532E-03 0.64681180E+01</pdfrwt>
<totfact> 0.17014766E+08</totfact>
</mgrwt>
</event>
<event>
 4    1  0.3858687E+006  0.5241184E+01  0.7546771E-02  0.2526068E+00
         21   -1    0    0  501  502  0.00000000000E+00  0.00000000000E+00  0.95429776720E+01  0.95429776720E+01  0.00000000000E+00 0.  1.
         21   -1    0    0  502  503 -0.00000000000E+00 -0.00000000000E+00 -0.28832261948E+01  0.28832261948E+01  0.00000000000E+00 0.  1.
          5    1    1    2  501    0 -0.42437053660E+00  0.22803329964E+01  0.35798940685E+01  0.63470977989E+01  0.47000000000E+01 0.  1.
         -5    1    1    2    0  503  0.42437053660E+00 -0.22803329964E+01  0.30798574086E+01  0.60791060679E+01  0.47000000000E+01 0.  1.
<mgrwt>
<rscale>  2 0.52411839E+01</rscale>
<asrwt>0</asrwt>
<pdfrwt beam="1">  1       21 0.14681504E-02 0.52411839E+01</pdfrwt>
<pdfrwt beam="2">  1       21 0.44357327E-03 0.52411839E+01</pdfrwt>
<totfact> 0.50050418E+09</totfact>
</mgrwt>
</event>
<event>
 4    1  0.3858687E+006  0.6235774E+01  0.7546771E-02  0.2385711E+00
         21   -1    0    0  501  502  0.00000000000E+00  0.00000000000E+00  0.47301889848E+01  0.47301889848E+01  0.00000000000E+00 0.  1.
         21   -1    0    0  502  503 -0.00000000000E+00 -0.00000000000E+00 -0.13459748289E+02  0.13459748289E+02  0.00000000000E+00 0.  1.
          5    1    1    2  501    0 -0.14971746675E+01 -0.38148852497E+01  0.13095432621E+01  0.63717960583E+01  0.47000000000E+01 0.  1.
         -5    1    1    2    0  503  0.14971746675E+01  0.38148852497E+01 -0.10039102566E+02  0.11818141215E+02  0.47000000000E+01 0.  1.
<mgrwt>
<rscale>  2 0.62357743E+01</rscale>
<asrwt>0</asrwt>
<pdfrwt beam="1">  1       21 0.72772138E-03 0.62357743E+01</pdfrwt>
<pdfrwt beam="2">  1       21 0.20707305E-02 0.62357743E+01</pdfrwt>
<totfact> 0.18083642E+09</totfact>
</mgrwt>
</event>
<event>
 4    1  0.3858687E+006  0.9965146E+01  0.7546771E-02  0.2076977E+00
         21   -1    0    0  501  502  0.00000000000E+00  0.00000000000E+00  0.19711370103E+00  0.19711370103E+00  0.00000000000E+00 0.  1.
         21   -1    0    0  502  503 -0.00000000000E+00 -0.00000000000E+00 -0.50486294410E+03  0.50486294410E+03  0.00000000000E+00 0. -1.
          5    1    1    2  501    0 -0.49582484412E+01 -0.72546479642E+01 -0.26396815167E+03  0.26415618342E+03  0.47000000000E+01 0.  1.
         -5    1    1    2    0  503  0.49582484412E+01  0.72546479642E+01 -0.24069767873E+03  0.24090387438E+03  0.47000000000E+01 0. -1.
<mgrwt>
<rscale>  2 0.99651465E+01</rscale>
<asrwt>0</asrwt>
<pdfrwt beam="1">  1       21 0.30324943E-04 0.99651465E+01</pdfrwt>
<pdfrwt beam="2">  1       21 0.77671841E-01 0.99651465E+01</pdfrwt>
<totfact> 0.53082783E+08</totfact>
</mgrwt>
</event>
<event>
 4    1  0.3858687E+006  0.6782248E+01  0.7546771E-02  0.2323523E+00
         21   -1    0    0  503  502  0.00000000000E+00  0.00000000000E+00  0.23277747730E+01  0.23277747730E+01  0.00000000000E+00 0.  1.
         21   -1    0    0  501  503 -0.00000000000E+00 -0.00000000000E+00 -0.21422932614E+02  0.21422932614E+02  0.00000000000E+00 0. -1.
          5    1    1    2  501    0  0.48887147560E+01 -0.96732881679E-01 -0.12855299722E+02  0.14534703993E+02  0.47000000000E+01 0.  1.
         -5    1    1    2    0  502 -0.48887147560E+01  0.96732881679E-01 -0.62398581192E+01  0.92160033943E+01  0.47000000000E+01 0. -1.
<mgrwt>
<rscale>  2 0.67822481E+01</rscale>
<asrwt>0</asrwt>
<pdfrwt beam="1">  1       21 0.35811921E-03 0.67822481E+01</pdfrwt>
<pdfrwt beam="2">  1       21 0.32958356E-02 0.67822481E+01</pdfrwt>
<totfact> 0.26505458E+09</totfact>
</mgrwt>
</event>
<event>
 4    1  0.3858687E+006  0.8001597E+01  0.7546771E-02  0.2210485E+00
         21   -1    0    0  503  502  0.00000000000E+00  0.00000000000E+00  0.33821599694E+01  0.33821599694E+01  0.00000000000E+00 0.  1.
         21   -1    0    0  501  503 -0.00000000000E+00 -0.00000000000E+00 -0.10471235176E+03  0.10471235176E+03  0.00000000000E+00 0.  1.
          5    1    1    2  501    0  0.45945500510E+01 -0.45635139135E+01 -0.99583549737E+02  0.99904499036E+02  0.47000000000E+01 0.  1.
         -5    1    1    2    0  502 -0.45945500510E+01  0.45635139135E+01 -0.17466420502E+01  0.81900126900E+01  0.47000000000E+01 0.  1.
<mgrwt>
<rscale>  2 0.80015967E+01</rscale>
<asrwt>0</asrwt>
<pdfrwt beam="1">  1       21 0.52033234E-03 0.80015967E+01</pdfrwt>
<pdfrwt beam="2">  1       21 0.16109592E-01 0.80015967E+01</pdfrwt>
<totfact> 0.15369344E+08</totfact>
</mgrwt>
</event>
<event>
 4    1  0.3858687E+006  0.5108694E+01  0.7546771E-02  0.2548225E+00
         21   -1    0    0  503  502  0.00000000000E+00  0.00000000000E+00  0.31688427491E+03  0.31688427491E+03  0.00000000000E+00 0. -1.
         21   -1    0    0  501  503 -0.00000000000E+00 -0.00000000000E+00 -0.20624460511E+00  0.20624460511E+00  0.00000000000E+00 0. -1.
          5    1    1    2  501    0 -0.11620265829E+01  0.16304744150E+01  0.35462261750E+02  0.35828351358E+02  0.47000000000E+01 0. -1.
         -5    1    1    2    0  502  0.11620265829E+01 -0.16304744150E+01  0.28121576856E+03  0.28126216816E+03  0.47000000000E+01 0. -1.
<mgrwt>
<rscale>  2 0.51086938E+01</rscale>
<asrwt>0</asrwt>
<pdfrwt beam="1">  1       21 0.48751037E-01 0.51086938E+01</pdfrwt>
<pdfrwt beam="2">  1       21 0.31730193E-04 0.51086938E+01</pdfrwt>
<totfact> 0.78781951E+08</totfact>
</mgrwt>
</event>
<event>
 4    1  0.3858687E+006  0.6816759E+01  0.7546771E-02  0.2319873E+00
         21   -1    0    0  503  502  0.00000000000E+00  0.00000000000E+00  0.13682765917E+01  0.13682765917E+01  0.00000000000E+00 0. -1.
         21   -1    0    0  501  503 -0.00000000000E+00 -0.00000000000E+00 -0.36528907006E+02  0.36528907006E+02  0.00000000000E+00 0.  1.
          5    1    1    2  501    0  0.69267764223E+00  0.48885995792E+01 -0.22604179929E+02  0.23609683573E+02  0.47000000000E+01 0.  1.
         -5    1    1    2    0  502 -0.69267764223E+00 -0.48885995792E+01 -0.12556450485E+02  0.14287500024E+02  0.47000000000E+01 0.  1.
<mgrwt>
<rscale>  2 0.68167594E+01</rscale>
<asrwt>0</asrwt>
<pdfrwt beam="1">  1       21 0.21050408E-03 0.68167594E+01</pdfrwt>
<pdfrwt beam="2">  1       21 0.56198321E-02 0.68167594E+01</pdfrwt>
<totfact> 0.25072068E+09</totfact>
</mgrwt>
</event>
<event>
 4    1  0.3858687E+006  0.5505674E+01  0.7546771E-02  0.2484575E+00
         21   -1    0    0  501  502  0.00000000000E+00  0.00000000000E+00  0.14417446613E+02  0.14417446613E+02  0.00000000000E+00 0. -1.
         21   -1    0    0  502  503 -0.00000000000E+00 -0.00000000000E+00 -0.32830795777E+01  0.32830795777E+01  0.00000000000E+00 0.  1.
          5    1    1    2  501    0  0.26203663599E+01 -0.11645282427E+01  0.10874391599E+02  0.12188717674E+02  0.47000000000E+01 0. -1.
         -5    1    1    2    0  503 -0.26203663599E+01  0.11645282427E+01  0.25997543542E+00  0.55118085159E+01  0.47000000000E+01 0.  1.
<mgrwt>
<rscale>  2 0.55056740E+01</rscale>
<asrwt>0</asrwt>
<pdfrwt beam="1">  1       21 0.22180687E-02 0.55056740E+01</pdfrwt>
<pdfrwt beam="2">  1       21 0.50508917E-03 0.55056740E+01</pdfrwt>
<totfact> 0.24432732E+09</totfact>
</mgrwt>
</event>
<event>
 4    1  0.3858687E+006  0.6214256E+01  0.7546771E-02  0.2388345E+00
         21   -1    0    0  501  502  0.00000000000E+00  0.00000000000E+00  0.22017445322E+04  0.22017445322E+04  0.00000000000E+00 0. -1.
         21   -1    0    0  502  503 -0.00000000000E+00 -0.00000000000E+00 -0.21187262072E-01  0.21187262072E-01  0.00000000000E+00 0. -1.
          5    1    1    2  501    0  0.35343569450E+01 -0.20088064666E+01  0.15576667130E+04  0.15576791087E+04  0.47000000000E+01 0. -1.
         -5    1    1    2    0  503 -0.35343569450E+01  0.20088064666E+01  0.64405663196E+03  0.64408661076E+03  0.47000000000E+01 0. -1.
<mgrwt>
<rscale>  2 0.62142564E+01</rscale>
<asrwt>0</asrwt>
<pdfrwt beam="1">  1       21 0.33854677E+00 0.62142564E+01</pdfrwt>
<pdfrwt beam="2">  1       21 0.32613423E-05 0.62142564E+01</pdfrwt>
<totfact> 0.29938960E+08</totfact>
</mgrwt>
</event>
<event>
 4    1  0.3858687E+006  0.7331498E+01  0.7546771E-02  0.2268817E+00
         21   -1    0    0  503  502  0.00000000000E+00  0.00000000000E+00  0.81696755634E+02  0.81696755634E+02  0.00000000000E+00 0.  1.
         21   -1    0    0  501  503 -0.00000000000E+00 -0.00000000000E+00 -0.66637203927E+00  0.66637203927E+00  0.00000000000E+00 0. -1.
          5    1    1    2  501    0 -0.17147356499E+01 -0.53591557347E+01  0.35880405779E+02  0.36621774771E+02  0.47000000000E+01 0. -1.
         -5    1    1    2    0  502  0.17147356499E+01  0.53591557347E+01  0.45149977816E+02  0.45741352902E+02  0.47000000000E+01 0.  1.
<mgrwt>
<rscale>  2 0.73314984E+01</rscale>
<asrwt>0</asrwt>
<pdfrwt beam="1">  1       21 0.12568724E-01 0.73314984E+01</pdfrwt>
<pdfrwt beam="2">  1       21 0.10251884E-03 0.73314984E+01</pdfrwt>
<totfact> 0.20494708E+09</totfact>
</mgrwt>
</event>
<event>
 4    1  0.3858687E+006  0.1319321E+02  0.7546771E-02  0.1928795E+00
         21   -1    0    0  503  502  0.00000000000E+00  0.00000000000E+00  0.19784981887E+01  0.19784981887E+01  0.00000000000E+00 0.  1.
         21   -1    0    0  501  503 -0.00000000000E+00 -0.00000000000E+00 -0.12418802513E+03  0.12418802513E+03  0.00000000000E+00 0. -1.
          5    1    1    2  501    0 -0.21938173892E+01 -0.12130872152E+02 -0.95169031229E+02  0.96079162148E+02  0.47000000000E+01 0. -1.
         -5    1    1    2    0  502  0.21938173892E+01  0.12130872152E+02 -0.27040495715E+02  0.30087361174E+02  0.47000000000E+01 0.  1.
<mgrwt>
<rscale>  2 0.13193214E+02</rscale>
<asrwt>0</asrwt>
<pdfrwt beam="1">  1       21 0.30438427E-03 0.13193214E+02</pdfrwt>
<pdfrwt beam="2">  1       21 0.19105855E-01 0.13193214E+02</pdfrwt>
<totfact> 0.31555472E+08</totfact>
</mgrwt>
</event>
<event>
 4    1  0.3858687E+006  0.4928871E+01  0.7546771E-02  0.2579929E+00
         21   -1    0    0  503  502  0.00000000000E+00  0.00000000000E+00  0.19785471166E+01  0.19785471166E+01  0.00000000000E+00 0.  1.
         21   -1    0    0  501  503 -0.00000000000E+00 -0.00000000000E+00 -0.24013956120E+02  0.24013956120E+02  0.00000000000E+00 0.  1.
          5    1    1    2  501    0 -0.13620836676E+01 -0.59033502132E+00 -0.20102906552E+02  0.20698324067E+02  0.47000000000E+01 0.  1.
         -5    1    1    2    0  502  0.13620836676E+01  0.59033502132E+00 -0.19325024518E+01  0.52941791697E+01  0.47000000000E+01 0.  1.
<mgrwt>
<rscale>  2 0.49288708E+01</rscale>
<asrwt>0</asrwt>
<pdfrwt beam="1">  1       21 0.30439187E-03 0.49288708E+01</pdfrwt>
<pdfrwt beam="2">  1       21 0.36944548E-02 0.49288708E+01</pdfrwt>
<totfact> 0.21077604E+09</totfact>
</mgrwt>
</event>
<event>
 4    1  0.3858687E+006  0.7836285E+01  0.7546771E-02  0.2224123E+00
         21   -1    0    0  503  502  0.00000000000E+00  0.00000000000E+00  0.41337094826E+02  0.41337094826E+02  0.00000000000E+00 0. -1.
         21   -1    0    0  501  503 -0.00000000000E+00 -0.00000000000E+00 -0.42913732146E+01  0.42913732146E+01  0.00000000000E+00 0. -1.
          5    1    1    2  501    0  0.62654847976E+01  0.24711330663E+00  0.75268512472E-01  0.78366466096E+01  0.47000000000E+01 0. -1.
         -5    1    1    2    0  502 -0.62654847976E+01 -0.24711330663E+00  0.36970453099E+02  0.37791821431E+02  0.47000000000E+01 0. -1.
<mgrwt>
<rscale>  2 0.78362851E+01</rscale>
<asrwt>0</asrwt>
<pdfrwt beam="1">  1       21 0.63595528E-02 0.78362851E+01</pdfrwt>
<pdfrwt beam="2">  1       21 0.66021129E-03 0.78362851E+01</pdfrwt>
<totfact> 0.46564670E+08</totfact>
</mgrwt>
</event>
<event>
 4    1  0.3858687E+006  0.1189183E+02  0.7546771E-02  0.1981012E+00
         21   -1    0    0  501  502  0.00000000000E+00  0.00000000000E+00  0.40699571761E+03  0.40699571761E+03  0.00000000000E+00 0. -1.
         21   -1    0    0  502  503 -0.00000000000E+00 -0.00000000000E+00 -0.26561434810E+01  0.26561434810E+01  0.00000000000E+00 0.  1.
          5    1    1    2  501    0  0.93107686041E+01  0.57127158049E+01  0.39312924948E+03  0.39330906719E+03  0.47000000000E+01 0. -1.
         -5    1    1    2    0  503 -0.93107686041E+01 -0.57127158049E+01  0.11210324646E+02  0.16342793903E+02  0.47000000000E+01 0.  1.
<mgrwt>
<rscale>  2 0.11891826E+02</rscale>
<asrwt>0</asrwt>
<pdfrwt beam="1">  1       21 0.62614676E-01 0.11891826E+02</pdfrwt>
<pdfrwt beam="2">  1       21 0.40863778E-03 0.11891826E+02</pdfrwt>
<totfact> 0.23418466E+07</totfact>
</mgrwt>
</event>
<event>
 4    1  0.3858687E+006  0.5708628E+01  0.7546771E-02  0.2454962E+00
         21   -1    0    0  501  502  0.00000000000E+00  0.00000000000E+00  0.11905963586E+03  0.11905963586E+03  0.00000000000E+00 0.  1.
         21   -1    0    0  502  503 -0.00000000000E+00 -0.00000000000E+00 -0.76040475913E+00  0.76040475913E+00  0.00000000000E+00 0.  1.
          5    1    1    2  501    0 -0.29804109088E+01  0.12710547419E+01  0.10707913542E+03  0.10723119729E+03  0.47000000000E+01 0.  1.
         -5    1    1    2    0  503  0.29804109088E+01 -0.12710547419E+01  0.11220095678E+02  0.12588843329E+02  0.47000000000E+01 0.  1.
<mgrwt>
<rscale>  2 0.57086276E+01</rscale>
<asrwt>0</asrwt>
<pdfrwt beam="1">  1       21 0.18316852E-01 0.57086276E+01</pdfrwt>
<pdfrwt beam="2">  1       21 0.11698544E-03 0.57086276E+01</pdfrwt>
<totfact> 0.78058767E+08</totfact>
</mgrwt>
</event>
<event>
 4    1  0.3858687E+006  0.7582952E+01  0.7546771E-02  0.2245950E+00
         21   -1    0    0  501  502  0.00000000000E+00  0.00000000000E+00  0.47385585965E+00  0.47385585965E+00  0.00000000000E+00 0.  1.
         21   -1    0    0  502  503 -0.00000000000E+00 -0.00000000000E+00 -0.57451624118E+03  0.57451624118E+03  0.00000000000E+00 0. -1.
          5    1    1    2  501    0 -0.53852438468E+00  0.59263107893E+01 -0.31686843198E+02  0.32581546923E+02  0.47000000000E+01 0.  1.
         -5    1    1    2    0  503  0.53852438468E+00 -0.59263107893E+01 -0.54235554212E+03  0.54240855012E+03  0.47000000000E+01 0. -1.
<mgrwt>
<rscale>  2 0.75829525E+01</rscale>
<asrwt>0</asrwt>
<pdfrwt beam="1">  1       21 0.72900440E-04 0.75829525E+01</pdfrwt>
<pdfrwt beam="2">  1       21 0.88387674E-01 0.75829525E+01</pdfrwt>
<totfact> 0.10871388E+08</totfact>
</mgrwt>
</event>
<event>
 4    1  0.3858687E+006  0.5309948E+01  0.7546771E-02  0.2514942E+00
         21   -1    0    0  503  502  0.00000000000E+00  0.00000000000E+00  0.26262788020E+01  0.26262788020E+01  0.00000000000E+00 0. -1.
         21   -1    0    0  501  503 -0.00000000000E+00 -0.00000000000E+00 -0.70917355649E+02  0.70917355649E+02  0.00000000000E+00 0. -1.
          5    1    1    2  501    0  0.17063415743E+01 -0.17871610736E+01 -0.68019817461E+02  0.68226762445E+02  0.47000000000E+01 0. -1.
         -5    1    1    2    0  502 -0.17063415743E+01  0.17871610736E+01 -0.27125938562E+00  0.53168720057E+01  0.47000000000E+01 0. -1.
<mgrwt>
<rscale>  2 0.53099479E+01</rscale>
<asrwt>0</asrwt>
<pdfrwt beam="1">  1       21 0.40404283E-03 0.53099479E+01</pdfrwt>
<pdfrwt beam="2">  1       21 0.10910364E-01 0.53099479E+01</pdfrwt>
<totfact> 0.30793050E+08</totfact>
</mgrwt>
</event>
<event>
 4    1  0.3858687E+006  0.5477050E+01  0.7546771E-02  0.2488900E+00
         21   -1    0    0  501  502  0.00000000000E+00  0.00000000000E+00  0.37717048873E+01  0.37717048873E+01  0.00000000000E+00 0.  1.
         21   -1    0    0  502  503 -0.00000000000E+00 -0.00000000000E+00 -0.88858837843E+01  0.88858837843E+01  0.00000000000E+00 0. -1.
          5    1    1    2  501    0  0.20446010613E+01 -0.19307223023E+01 -0.46072066456E+01  0.71571247847E+01  0.47000000000E+01 0. -1.
         -5    1    1    2    0  503 -0.20446010613E+01  0.19307223023E+01 -0.50697225140E+00  0.55004638870E+01  0.47000000000E+01 0. -1.
<mgrwt>
<rscale>  2 0.54770505E+01</rscale>
<asrwt>0</asrwt>
<pdfrwt beam="1">  1       21 0.58026230E-03 0.54770505E+01</pdfrwt>
<pdfrwt beam="2">  1       21 0.13670590E-02 0.54770505E+01</pdfrwt>
<totfact> 0.39942266E+09</totfact>
</mgrwt>
</event>
<event>
 4    1  0.3858687E+006  0.5096447E+01  0.7546771E-02  0.2550323E+00
         21   -1    0    0  503  502  0.00000000000E+00  0.00000000000E+00  0.23861825095E+01  0.23861825095E+01  0.00000000000E+00 0. -1.
         21   -1    0    0  501  503 -0.00000000000E+00 -0.00000000000E+00 -0.13038898985E+02  0.13038898985E+02  0.00000000000E+00 0.  1.
          5    1    1    2  501    0  0.16510326366E+01 -0.10760415993E+01 -0.84609585327E+01  0.98773272490E+01  0.47000000000E+01 0. -1.
         -5    1    1    2    0  502 -0.16510326366E+01  0.10760415993E+01 -0.21917579430E+01  0.55477542457E+01  0.47000000000E+01 0. -1.
<mgrwt>
<rscale>  2 0.50964472E+01</rscale>
<asrwt>0</asrwt>
<pdfrwt beam="1">  1       21 0.36710499E-03 0.50964472E+01</pdfrwt>
<pdfrwt beam="2">  1       21 0.20059845E-02 0.50964472E+01</pdfrwt>
<totfact> 0.40500809E+09</totfact>
</mgrwt>
</event>
<event>
 4    1  0.3858687E+006  0.7640786E+01  0.7546771E-02  0.2240864E+00
         21   -1    0    0  501  502  0.00000000000E+00  0.00000000000E+00  0.11129901501E+01  0.11129901501E+01  0.00000000000E+00 0.  1.
         21   -1    0    0  502  503 -0.00000000000E+00 -0.00000000000E+00 -0.55797667804E+02  0.55797667804E+02  0.00000000000E+00 0.  1.
          5    1    1    2  501    0 -0.43383681739E+01 -0.41797330266E+01 -0.20377369249E+02  0.21762784383E+02  0.47000000000E+01 0.  1.
         -5    1    1    2    0  503  0.43383681739E+01  0.41797330266E+01 -0.34307308405E+02  0.35147873572E+02  0.47000000000E+01 0.  1.
<mgrwt>
<rscale>  2 0.76407857E+01</rscale>
<asrwt>0</asrwt>
<pdfrwt beam="1">  1       21 0.17122928E-03 0.76407857E+01</pdfrwt>
<pdfrwt beam="2">  1       21 0.85842552E-02 0.76407857E+01</pdfrwt>
<totfact> 0.19008128E+09</totfact>
</mgrwt>
</event>
<event>
 4    1  0.3858687E+006  0.4746882E+01  0.7546771E-02  0.2614116E+00
         21   -1    0    0  503  502  0.00000000000E+00  0.00000000000E+00  0.89687064222E+00  0.89687064222E+00  0.00000000000E+00 0.  1.
         21   -1    0    0  501  503 -0.00000000000E+00 -0.00000000000E+00 -0.51815880196E+02  0.51815880196E+02  0.00000000000E+00 0.  1.
          5    1    1    2  501    0 -0.66503899648E+00 -0.24780471454E-01 -0.44376171757E+02  0.44629334644E+02  0.47000000000E+01 0.  1.
         -5    1    1    2    0  502  0.66503899648E+00  0.24780471454E-01 -0.65428377970E+01  0.80834161947E+01  0.47000000000E+01 0.  1.
<mgrwt>
<rscale>  2 0.47468822E+01</rscale>
<asrwt>0</asrwt>
<pdfrwt beam="1">  1       21 0.13798009E-03 0.47468822E+01</pdfrwt>
<pdfrwt beam="2">  1       21 0.79716743E-02 0.47468822E+01</pdfrwt>
<totfact> 0.19059818E+09</totfact>
</mgrwt>
</event>
<event>
 4    1  0.3858687E+006  0.5017815E+01  0.7546771E-02  0.2564003E+00
         21   -1    0    0  501  502  0.00000000000E+00  0.00000000000E+00  0.34801591599E+00  0.34801591599E+00  0.00000000000E+00 0.  1.
         21   -1    0    0  502  503 -0.00000000000E+00 -0.00000000000E+00 -0.82080065608E+02  0.82080065608E+02  0.00000000000E+00 0.  1.
          5    1    1    2  501    0 -0.17567288325E+01  0.48733111789E-01 -0.26674958240E+02  0.27142805091E+02  0.47000000000E+01 0.  1.
         -5    1    1    2    0  503  0.17567288325E+01 -0.48733111789E-01 -0.55057091451E+02  0.55285276432E+02  0.47000000000E+01 0.  1.
<mgrwt>
<rscale>  2 0.50178154E+01</rscale>
<asrwt>0</asrwt>
<pdfrwt beam="1">  1       21 0.53540879E-04 0.50178154E+01</pdfrwt>
<pdfrwt beam="2">  1       21 0.12627710E-01 0.50178154E+01</pdfrwt>
<totfact> 0.35290724E+09</totfact>
</mgrwt>
</event>
<event>
 4    1  0.3858687E+006  0.5414435E+01  0.7546771E-02  0.2498498E+00
         21   -1    0    0  501  502  0.00000000000E+00  0.00000000000E+00  0.51229586180E-01  0.51229586180E-01  0.00000000000E+00 0.  1.
         21   -1    0    0  502  503 -0.00000000000E+00 -0.00000000000E+00 -0.67563131593E+03  0.67563131593E+03  0.00000000000E+00 0. -1.
          5    1    1    2  501    0  0.15874328813E+00 -0.26834505278E+01 -0.20563618324E+03  0.20570745238E+03  0.47000000000E+01 0. -1.
         -5    1    1    2    0  503 -0.15874328813E+00  0.26834505278E+01 -0.46994390310E+03  0.46997509314E+03  0.47000000000E+01 0. -1.
<mgrwt>
<rscale>  2 0.54144350E+01</rscale>
<asrwt>0</asrwt>
<pdfrwt beam="1">  1       21 0.78810992E-05 0.54144350E+01</pdfrwt>
<pdfrwt beam="2">  1       21 0.10394823E+00 0.54144350E+01</pdfrwt>
<totfact> 0.12502881E+09</totfact>
</mgrwt>
</event>
<event>
 4    1  0.3858687E+006  0.5194178E+01  0.7546771E-02  0.2533818E+00
         21   -1    0    0  503  502  0.00000000000E+00  0.00000000000E+00  0.24337620226E+02  0.24337620226E+02  0.00000000000E+00 0.  1.
         21   -1    0    0  501  503 -0.00000000000E+00 -0.00000000000E+00 -0.11522513854E+01  0.11522513854E+01  0.00000000000E+00 0.  1.
          5    1    1    2  501    0 -0.19114431433E+01  0.11116990025E+01  0.91106521867E+01  0.10487300550E+02  0.47000000000E+01 0.  1.
         -5    1    1    2    0  502  0.19114431433E+01 -0.11116990025E+01  0.14074716654E+02  0.15002571061E+02  0.47000000000E+01 0.  1.
<mgrwt>
<rscale>  2 0.51941784E+01</rscale>
<asrwt>0</asrwt>
<pdfrwt beam="1">  1       21 0.37442489E-02 0.51941784E+01</pdfrwt>
<pdfrwt beam="2">  1       21 0.17726946E-03 0.51941784E+01</pdfrwt>
<totfact> 0.45258249E+09</totfact>
</mgrwt>
</event>
<event>
 4    1  0.3858687E+006  0.5006564E+01  0.7546771E-02  0.2565991E+00
         21   -1    0    0  503  502  0.00000000000E+00  0.00000000000E+00  0.15475820435E+02  0.15475820435E+02  0.00000000000E+00 0. -1.
         21   -1    0    0  501  503 -0.00000000000E+00 -0.00000000000E+00 -0.17855024431E+01  0.17855024431E+01  0.00000000000E+00 0. -1.
          5    1    1    2  501    0  0.13910586033E+01  0.10201156055E+01  0.42148778251E+01  0.65445301563E+01  0.47000000000E+01 0.  1.
         -5    1    1    2    0  502 -0.13910586033E+01 -0.10201156055E+01  0.94754401672E+01  0.10716792722E+02  0.47000000000E+01 0.  1.
<mgrwt>
<rscale>  2 0.50065637E+01</rscale>
<asrwt>0</asrwt>
<pdfrwt beam="1">  1       21 0.23808954E-02 0.50065637E+01</pdfrwt>
<pdfrwt beam="2">  1       21 0.27469269E-03 0.50065637E+01</pdfrwt>
<totfact> 0.46226372E+09</totfact>
</mgrwt>
</event>
<event>
 4    1  0.3858687E+006  0.6281725E+01  0.7546771E-02  0.2380138E+00
         21   -1    0    0  503  502  0.00000000000E+00  0.00000000000E+00  0.59235579251E+02  0.59235579251E+02  0.00000000000E+00 0.  1.
         21   -1    0    0  501  503 -0.00000000000E+00 -0.00000000000E+00 -0.11349015263E+01  0.11349015263E+01  0.00000000000E+00 0. -1.
          5    1    1    2  501    0 -0.38367501989E+01 -0.16277047961E+01  0.96511041337E+01  0.11515376068E+02  0.47000000000E+01 0. -1.
         -5    1    1    2    0  502  0.38367501989E+01  0.16277047961E+01  0.48449573591E+02  0.48855104709E+02  0.47000000000E+01 0.  1.
<mgrwt>
<rscale>  2 0.62817255E+01</rscale>
<asrwt>0</asrwt>
<pdfrwt beam="1">  1       21 0.91131636E-02 0.62817255E+01</pdfrwt>
<pdfrwt beam="2">  1       21 0.17460028E-03 0.62817255E+01</pdfrwt>
<totfact> 0.14577094E+09</totfact>
</mgrwt>
</event>
<event>
 4    1  0.3858687E+006  0.5347183E+01  0.7546771E-02  0.2509019E+00
         21   -1    0    0  501  502  0.00000000000E+00  0.00000000000E+00  0.77296501248E+01  0.77296501248E+01  0.00000000000E+00 0.  1.
         21   -1    0    0  502  503 -0.00000000000E+00 -0.00000000000E+00 -0.68207375749E+01  0.68207375749E+01  0.00000000000E+00 0.  1.
          5    1    1    2  501    0 -0.12037973496E+01 -0.22479411950E+01  0.53762518210E+01  0.75826414473E+01  0.47000000000E+01 0.  1.
         -5    1    1    2    0  503  0.12037973496E+01  0.22479411950E+01 -0.44673392710E+01  0.69677462524E+01  0.47000000000E+01 0.  1.
<mgrwt>
<rscale>  2 0.53471832E+01</rscale>
<asrwt>0</asrwt>
<pdfrwt beam="1">  1       21 0.11891769E-02 0.53471832E+01</pdfrwt>
<pdfrwt beam="2">  1       21 0.10493442E-02 0.53471832E+01</pdfrwt>
<totfact> 0.20799516E+09</totfact>
</mgrwt>
</event>
<event>
 4    1  0.3858687E+006  0.6963778E+01  0.7546771E-02  0.2304661E+00
         21   -1    0    0  501  502  0.00000000000E+00  0.00000000000E+00  0.39497040831E+00  0.39497040831E+00  0.00000000000E+00 0. -1.
         21   -1    0    0  502  503 -0.00000000000E+00 -0.00000000000E+00 -0.13048043147E+03  0.13048043147E+03  0.00000000000E+00 0. -1.
          5    1    1    2  501    0 -0.17410084311E+01  0.48345727700E+01 -0.49145128838E+02  0.49636054363E+02  0.47000000000E+01 0. -1.
         -5    1    1    2    0  503  0.17410084311E+01 -0.48345727700E+01 -0.80940332220E+02  0.81239347511E+02  0.47000000000E+01 0. -1.
<mgrwt>
<rscale>  2 0.69637780E+01</rscale>
<asrwt>0</asrwt>
<pdfrwt beam="1">  1       21 0.60764676E-04 0.69637780E+01</pdfrwt>
<pdfrwt beam="2">  1       21 0.20073913E-01 0.69637780E+01</pdfrwt>
<totfact> 0.18893246E+09</totfact>
</mgrwt>
</event>
<event>
 4    1  0.3858687E+006  0.1077136E+02  0.7546771E-02  0.2033575E+00
         21   -1    0    0  501  502  0.00000000000E+00  0.00000000000E+00  0.10588146787E+02  0.10588146787E+02  0.00000000000E+00 0.  1.
         21   -1    0    0  502  503 -0.00000000000E+00 -0.00000000000E+00 -0.39697011834E+03  0.39697011834E+03  0.00000000000E+00 0. -1.
          5    1    1    2  501    0 -0.55899321855E+01  0.79173712344E+01  0.77559644457E+01  0.13273171949E+02  0.47000000000E+01 0.  1.
         -5    1    1    2    0  503  0.55899321855E+01 -0.79173712344E+01 -0.39413793600E+03  0.39428509318E+03  0.47000000000E+01 0. -1.
<mgrwt>
<rscale>  2 0.10771356E+02</rscale>
<asrwt>0</asrwt>
<pdfrwt beam="1">  1       21 0.16289459E-02 0.10771356E+02</pdfrwt>
<pdfrwt beam="2">  1       21 0.61072318E-01 0.10771356E+02</pdfrwt>
<totfact> 0.32075226E+06</totfact>
</mgrwt>
</event>
<event>
 4    1  0.3858687E+006  0.7224699E+01  0.7546771E-02  0.2278920E+00
         21   -1    0    0  501  502  0.00000000000E+00  0.00000000000E+00  0.44832869722E+00  0.44832869722E+00  0.00000000000E+00 0.  1.
         21   -1    0    0  502  503 -0.00000000000E+00 -0.00000000000E+00 -0.21850432386E+03  0.21850432386E+03  0.00000000000E+00 0.  1.
          5    1    1    2  501    0  0.37082348733E+01  0.40441647902E+01 -0.34200545295E+02  0.34955308227E+02  0.47000000000E+01 0.  1.
         -5    1    1    2    0  503 -0.37082348733E+01 -0.40441647902E+01 -0.18385544987E+03  0.18399734433E+03  0.47000000000E+01 0.  1.
<mgrwt>
<rscale>  2 0.72246989E+01</rscale>
<asrwt>0</asrwt>
<pdfrwt beam="1">  1       21 0.68973468E-04 0.72246989E+01</pdfrwt>
<pdfrwt beam="2">  1       21 0.33616137E-01 0.72246989E+01</pdfrwt>
<totfact> 0.68705344E+08</totfact>
</mgrwt>
</event>
<event>
 4    1  0.3858687E+006  0.8306101E+01  0.7546771E-02  0.2186515E+00
         21   -1    0    0  503  502  0.00000000000E+00  0.00000000000E+00  0.69591568733E+00  0.69591568733E+00  0.00000000000E+00 0.  1.
         21   -1    0    0  501  503 -0.00000000000E+00 -0.00000000000E+00 -0.10433283190E+03  0.10433283190E+03  0.00000000000E+00 0. -1.
          5    1    1    2  501    0 -0.68133772061E+01  0.69224540414E+00 -0.63537067311E+02  0.64077689059E+02  0.47000000000E+01 0. -1.
         -5    1    1    2    0  502  0.68133772061E+01 -0.69224540414E+00 -0.40099848898E+02  0.40951058524E+02  0.47000000000E+01 0.  1.
<mgrwt>
<rscale>  2 0.83061009E+01</rscale>
<asrwt>0</asrwt>
<pdfrwt beam="1">  1       21 0.10706401E-03 0.83061009E+01</pdfrwt>
<pdfrwt beam="2">  1       21 0.16051196E-01 0.83061009E+01</pdfrwt>
<totfact> 0.14220133E+09</totfact>
</mgrwt>
</event>
<event>
 4    1  0.3858687E+006  0.4779646E+01  0.7546771E-02  0.2607794E+00
         21   -1    0    0  503  502  0.00000000000E+00  0.00000000000E+00  0.57534353845E+00  0.57534353845E+00  0.00000000000E+00 0. -1.
         21   -1    0    0  501  503 -0.00000000000E+00 -0.00000000000E+00 -0.67027437250E+02  0.67027437250E+02  0.00000000000E+00 0. -1.
          5    1    1    2  501    0  0.52759760925E+00  0.69040560513E+00 -0.54806179397E+02  0.55014201069E+02  0.47000000000E+01 0. -1.
         -5    1    1    2    0  502 -0.52759760925E+00 -0.69040560513E+00 -0.11645914314E+02  0.12588579719E+02  0.47000000000E+01 0. -1.
<mgrwt>
<rscale>  2 0.47796463E+01</rscale>
<asrwt>0</asrwt>
<pdfrwt beam="1">  1       21 0.88514388E-04 0.47796463E+01</pdfrwt>
<pdfrwt beam="2">  1       21 0.10311914E-01 0.47796463E+01</pdfrwt>
<totfact> 0.23520214E+09</totfact>
</mgrwt>
</event>
<event>
 4    1  0.3858687E+006  0.5032218E+01  0.7546771E-02  0.2561470E+00
         21   -1    0    0  503  502  0.00000000000E+00  0.00000000000E+00  0.56205768231E+02  0.56205768231E+02  0.00000000000E+00 0. -1.
         21   -1    0    0  501  503 -0.00000000000E+00 -0.00000000000E+00 -0.83212727052E+01  0.83212727052E+01  0.00000000000E+00 0. -1.
          5    1    1    2  501    0 -0.17755516652E+00  0.17893259168E+01 -0.74356849839E+01  0.89784533331E+01  0.47000000000E+01 0. -1.
         -5    1    1    2    0  502  0.17755516652E+00 -0.17893259168E+01  0.55320180509E+02  0.55548587603E+02  0.47000000000E+01 0. -1.
<mgrwt>
<rscale>  2 0.50322175E+01</rscale>
<asrwt>0</asrwt>
<pdfrwt beam="1">  1       21 0.86470410E-02 0.50322175E+01</pdfrwt>
<pdfrwt beam="2">  1       21 0.12801958E-02 0.50322175E+01</pdfrwt>
<totfact> 0.84730086E+07</totfact>
</mgrwt>
</event>
<event>
 4    1  0.3858687E+006  0.4778962E+01  0.7546771E-02  0.2607926E+00
         21   -1    0    0  501  502  0.00000000000E+00  0.00000000000E+00  0.23869004146E+03  0.23869004146E+03  0.00000000000E+00 0.  1.
         21   -1    0    0  502  503 -0.00000000000E+00 -0.00000000000E+00 -0.10535746933E+00  0.10535746933E+00  0.00000000000E+00 0.  1.
          5    1    1    2  501    0 -0.25470959251E+00 -0.82680114878E+00  0.15547383408E+03  0.15554726472E+03  0.47000000000E+01 0.  1.
         -5    1    1    2    0  503  0.25470959251E+00  0.82680114878E+00  0.83110849912E+02  0.83248134214E+02  0.47000000000E+01 0.  1.
<mgrwt>
<rscale>  2 0.47789619E+01</rscale>
<asrwt>0</asrwt>
<pdfrwt beam="1">  1       21 0.36721112E-01 0.47789619E+01</pdfrwt>
<pdfrwt beam="2">  1       21 0.16209033E-04 0.47789619E+01</pdfrwt>
<totfact> 0.29509282E+09</totfact>
</mgrwt>
</event>
<event>
 4    1  0.3858687E+006  0.1738672E+02  0.7546771E-02  0.1802919E+00
         21   -1    0    0  501  502  0.00000000000E+00  0.00000000000E+00  0.19123415844E+02  0.19123415844E+02  0.00000000000E+00 0.  1.
         21   -1    0    0  502  503 -0.00000000000E+00 -0.00000000000E+00 -0.26657710159E+02  0.26657710159E+02  0.00000000000E+00 0. -1.
          5    1    1    2  501    0  0.58747250924E+01  0.15674686884E+02  0.10836424871E+02  0.20487223038E+02  0.47000000000E+01 0.  1.
         -5    1    1    2    0  503 -0.58747250924E+01 -0.15674686884E+02 -0.18370719185E+02  0.25293902965E+02  0.47000000000E+01 0. -1.
<mgrwt>
<rscale>  2 0.17386725E+02</rscale>
<asrwt>0</asrwt>
<pdfrwt beam="1">  1       21 0.29420640E-02 0.17386725E+02</pdfrwt>
<pdfrwt beam="2">  1       21 0.41011861E-02 0.17386725E+02</pdfrwt>
<totfact> 0.14764562E+08</totfact>
</mgrwt>
</event>
<event>
 4    1  0.3858687E+006  0.6870448E+01  0.7546771E-02  0.2314256E+00
         21   -1    0    0  503  502  0.00000000000E+00  0.00000000000E+00  0.77422086478E+01  0.77422086478E+01  0.00000000000E+00 0. -1.
         21   -1    0    0  501  503 -0.00000000000E+00 -0.00000000000E+00 -0.61336019611E+01  0.61336019611E+01  0.00000000000E+00 0.  1.
          5    1    1    2  501    0 -0.35320346729E+01 -0.35549665241E+01  0.13413757844E+01  0.70001674918E+01  0.47000000000E+01 0. -1.
         -5    1    1    2    0  502  0.35320346729E+01  0.35549665241E+01  0.26723090235E+00  0.68756431171E+01  0.47000000000E+01 0.  1.
<mgrwt>
<rscale>  2 0.68704480E+01</rscale>
<asrwt>0</asrwt>
<pdfrwt beam="1">  1       21 0.11911090E-02 0.68704480E+01</pdfrwt>
<pdfrwt beam="2">  1       21 0.94363107E-03 0.68704480E+01</pdfrwt>
<totfact> 0.29999884E+09</totfact>
</mgrwt>
</event>
<event>
 4    1  0.3858687E+006  0.7462994E+01  0.7546771E-02  0.2256703E+00
         21   -1    0    0  501  502  0.00000000000E+00  0.00000000000E+00  0.10540669984E+03  0.10540669984E+03  0.00000000000E+00 0.  1.
         21   -1    0    0  502  503 -0.00000000000E+00 -0.00000000000E+00 -0.89735976999E+00  0.89735976999E+00  0.00000000000E+00 0. -1.
          5    1    1    2  501    0  0.18956216124E+01  0.54784029342E+01  0.18172320447E+02  0.19645088710E+02  0.47000000000E+01 0. -1.
         -5    1    1    2    0  503 -0.18956216124E+01 -0.54784029342E+01  0.86337019622E+02  0.86658970899E+02  0.47000000000E+01 0.  1.
<mgrwt>
<rscale>  2 0.74629940E+01</rscale>
<asrwt>0</asrwt>
<pdfrwt beam="1">  1       21 0.16216406E-01 0.74629940E+01</pdfrwt>
<pdfrwt beam="2">  1       21 0.13805543E-03 0.74629940E+01</pdfrwt>
<totfact> 0.92086178E+08</totfact>
</mgrwt>
</event>
<event>
 4    1  0.3858687E+006  0.5898635E+01  0.7546771E-02  0.2428806E+00
         21   -1    0    0  501  502  0.00000000000E+00  0.00000000000E+00  0.25401077781E+03  0.25401077781E+03  0.00000000000E+00 0.  1.
         21   -1    0    0  502  503 -0.00000000000E+00 -0.00000000000E+00 -0.13783470091E+00  0.13783470091E+00  0.00000000000E+00 0.  1.
          5    1    1    2  501    0 -0.31920989791E+01  0.15856841170E+01  0.11691823246E+03  0.11706693372E+03  0.47000000000E+01 0.  1.
         -5    1    1    2    0  503  0.31920989791E+01 -0.15856841170E+01  0.13695471065E+03  0.13708167879E+03  0.47000000000E+01 0.  1.
<mgrwt>
<rscale>  2 0.58986346E+01</rscale>
<asrwt>0</asrwt>
<pdfrwt beam="1">  1       21 0.39078207E-01 0.58986346E+01</pdfrwt>
<pdfrwt beam="2">  1       21 0.21205542E-04 0.58986346E+01</pdfrwt>
<totfact> 0.22275171E+09</totfact>
</mgrwt>
</event>
<event>
 4    1  0.3858687E+006  0.5775991E+01  0.7546771E-02  0.2445523E+00
         21   -1    0    0  503  502  0.00000000000E+00  0.00000000000E+00  0.52481489695E+02  0.52481489695E+02  0.00000000000E+00 0.  1.
         21   -1    0    0  501  503 -0.00000000000E+00 -0.00000000000E+00 -0.88004276178E+00  0.88004276178E+00  0.00000000000E+00 0.  1.
          5    1    1    2  501    0  0.19528389343E+01 -0.27310242470E+01  0.11741767003E+02  0.13085532686E+02  0.47000000000E+01 0.  1.
         -5    1    1    2    0  502 -0.19528389343E+01  0.27310242470E+01  0.39859679930E+02  0.40275999770E+02  0.47000000000E+01 0.  1.
<mgrwt>
<rscale>  2 0.57759911E+01</rscale>
<asrwt>0</asrwt>
<pdfrwt beam="1">  1       21 0.80740729E-02 0.57759911E+01</pdfrwt>
<pdfrwt beam="2">  1       21 0.13539124E-03 0.57759911E+01</pdfrwt>
<totfact> 0.23063745E+09</totfact>
</mgrwt>
</event>
<event>
 4    1  0.3858687E+006  0.4881389E+01  0.7546771E-02  0.2588635E+00
         21   -1    0    0  501  502  0.00000000000E+00  0.00000000000E+00  0.83315624499E+01  0.83315624499E+01  0.00000000000E+00 0. -1.
         21   -1    0    0  502  503 -0.00000000000E+00 -0.00000000000E+00 -0.59873648188E+01  0.59873648188E+01  0.00000000000E+00 0.  1.
          5    1    1    2  501    0 -0.11220970203E+01 -0.69199720459E+00  0.63464327889E+01  0.80065704892E+01  0.47000000000E+01 0. -1.
         -5    1    1    2    0  503  0.11220970203E+01  0.69199720459E+00 -0.40022351578E+01  0.63123567795E+01  0.47000000000E+01 0.  1.
<mgrwt>
<rscale>  2 0.48813893E+01</rscale>
<asrwt>0</asrwt>
<pdfrwt beam="1">  1       21 0.12817788E-02 0.48813893E+01</pdfrwt>
<pdfrwt beam="2">  1       21 0.92113305E-03 0.48813893E+01</pdfrwt>
<totfact> 0.20512224E+09</totfact>
</mgrwt>
</event>
<event>
 4    1  0.3858687E+006  0.6513412E+01  0.7546771E-02  0.2353036E+00
         21   -1    0    0  503  502  0.00000000000E+00  0.00000000000E+00  0.29688487435E+03  0.29688487435E+03  0.00000000000E+00 0.  1.
         21   -1    0    0  501  503 -0.00000000000E+00 -0.00000000000E+00 -0.29824972469E+00  0.29824972469E+00  0.00000000000E+00 0. -1.
          5    1    1    2  501    0  0.43959348851E+01  0.10051342258E+01  0.41052319243E+02  0.41565820737E+02  0.47000000000E+01 0. -1.
         -5    1    1    2    0  502 -0.43959348851E+01 -0.10051342258E+01  0.25553430538E+03  0.25561730334E+03  0.47000000000E+01 0.  1.
<mgrwt>
<rscale>  2 0.65134122E+01</rscale>
<asrwt>0</asrwt>
<pdfrwt beam="1">  1       21 0.45674360E-01 0.65134122E+01</pdfrwt>
<pdfrwt beam="2">  1       21 0.45884811E-04 0.65134122E+01</pdfrwt>
<totfact> 0.64813291E+08</totfact>
</mgrwt>
</event>
<event>
 4    1  0.3858687E+006  0.5486335E+01  0.7546771E-02  0.2487493E+00
         21   -1    0    0  503  502  0.00000000000E+00  0.00000000000E+00  0.11555691604E+02  0.11555691604E+02  0.00000000000E+00 0. -1.
         21   -1    0    0  501  503 -0.00000000000E+00 -0.00000000000E+00 -0.78255319621E+01  0.78255319621E+01  0.00000000000E+00 0. -1.
          5    1    1    2  501    0 -0.26223339563E+01 -0.10645350643E+01 -0.60501108584E+01  0.81672340288E+01  0.47000000000E+01 0. -1.
         -5    1    1    2    0  502  0.26223339563E+01  0.10645350643E+01  0.97802704999E+01  0.11213989537E+02  0.47000000000E+01 0. -1.
<mgrwt>
<rscale>  2 0.54863349E+01</rscale>
<asrwt>0</asrwt>
<pdfrwt beam="1">  1       21 0.17777987E-02 0.54863349E+01</pdfrwt>
<pdfrwt beam="2">  1       21 0.12039280E-02 0.54863349E+01</pdfrwt>
<totfact> 0.99400030E+08</totfact>
</mgrwt>
</event>
<event>
 4    1  0.3858687E+006  0.7483437E+01  0.7546771E-02  0.2254850E+00
         21   -1    0    0  503  502  0.00000000000E+00  0.00000000000E+00  0.27478132644E+01  0.27478132644E+01  0.00000000000E+00 0. -1.
         21   -1    0    0  501  503 -0.00000000000E+00 -0.00000000000E+00 -0.42692589584E+03  0.42692589584E+03  0.00000000000E+00 0.  1.
          5    1    1    2  501    0 -0.32848568849E+01  0.48084867692E+01 -0.42173527046E+03  0.42180165977E+03  0.47000000000E+01 0.  1.
         -5    1    1    2    0  502  0.32848568849E+01 -0.48084867692E+01 -0.24428121138E+01  0.78720493385E+01  0.47000000000E+01 0. -1.
<mgrwt>
<rscale>  2 0.74834370E+01</rscale>
<asrwt>0</asrwt>
<pdfrwt beam="1">  1       21 0.42274077E-03 0.74834370E+01</pdfrwt>
<pdfrwt beam="2">  1       21 0.65680866E-01 0.74834370E+01</pdfrwt>
<totfact> 0.17214722E+07</totfact>
</mgrwt>
</event>
<event>
 4    1  0.3858687E+006  0.6037571E+01  0.7546771E-02  0.2410559E+00
         21   -1    0    0  503  502  0.00000000000E+00  0.00000000000E+00  0.24604466547E+03  0.24604466547E+03  0.00000000000E+00 0.  1.
         21   -1    0    0  501  503 -0.00000000000E+00 -0.00000000000E+00 -0.62151910230E+00  0.62151910230E+00  0.00000000000E+00 0.  1.
          5    1    1    2  501    0 -0.15843363670E+01  0.34426932073E+01  0.15077208435E+02  0.16241135195E+02  0.47000000000E+01 0.  1.
         -5    1    1    2    0  502  0.15843363670E+01 -0.34426932073E+01  0.23034593793E+03  0.23042504937E+03  0.47000000000E+01 0.  1.
<mgrwt>
<rscale>  2 0.60375706E+01</rscale>
<asrwt>0</asrwt>
<pdfrwt beam="1">  1       21 0.37852948E-01 0.60375706E+01</pdfrwt>
<pdfrwt beam="2">  1       21 0.95618520E-04 0.60375706E+01</pdfrwt>
<totfact> 0.31980136E+08</totfact>
</mgrwt>
</event>
<event>
 4    1  0.3858687E+006  0.5990480E+01  0.7546771E-02  0.2416664E+00
         21   -1    0    0  503  502  0.00000000000E+00  0.00000000000E+00  0.54110218790E+00  0.54110218790E+00  0.00000000000E+00 0.  1.
         21   -1    0    0  501  503 -0.00000000000E+00 -0.00000000000E+00 -0.69907895243E+02  0.69907895243E+02  0.00000000000E+00 0.  1.
          5    1    1    2  501    0 -0.33920134418E+01 -0.15133054354E+01 -0.42663472348E+02  0.43081988363E+02  0.47000000000E+01 0.  1.
         -5    1    1    2    0  502  0.33920134418E+01  0.15133054354E+01 -0.26703320707E+02  0.27367009068E+02  0.47000000000E+01 0.  1.
<mgrwt>
<rscale>  2 0.59904798E+01</rscale>
<asrwt>0</asrwt>
<pdfrwt beam="1">  1       21 0.83246482E-04 0.59904798E+01</pdfrwt>
<pdfrwt beam="2">  1       21 0.10755062E-01 0.59904798E+01</pdfrwt>
<totfact> 0.29534345E+09</totfact>
</mgrwt>
</event>
<event>
 4    1  0.3858687E+006  0.6864520E+01  0.7546771E-02  0.2314873E+00
         21   -1    0    0  501  502  0.00000000000E+00  0.00000000000E+00  0.20639500991E+01  0.20639500991E+01  0.00000000000E+00 0.  1.
         21   -1    0    0  502  503 -0.00000000000E+00 -0.00000000000E+00 -0.67554727517E+02  0.67554727517E+02  0.00000000000E+00 0. -1.
          5    1    1    2  501    0  0.35365390661E+01  0.35390001732E+01 -0.44224788001E+01  0.81657791746E+01  0.47000000000E+01 0.  1.
         -5    1    1    2    0  503 -0.35365390661E+01 -0.35390001732E+01 -0.61068298618E+02  0.61452898442E+02  0.47000000000E+01 0. -1.
<mgrwt>
<rscale>  2 0.68645197E+01</rscale>
<asrwt>0</asrwt>
<pdfrwt beam="1">  1       21 0.31753084E-03 0.68645197E+01</pdfrwt>
<pdfrwt beam="2">  1       21 0.10393033E-01 0.68645197E+01</pdfrwt>
<totfact> 0.55901252E+08</totfact>
</mgrwt>
</event>
<event>
 4    1  0.3858687E+006  0.5915713E+01  0.7546771E-02  0.2426524E+00
         21   -1    0    0  501  502  0.00000000000E+00  0.00000000000E+00  0.48331214601E+00  0.48331214601E+00  0.00000000000E+00 0. -1.
         21   -1    0    0  502  503 -0.00000000000E+00 -0.00000000000E+00 -0.87829949940E+02  0.87829949940E+02  0.00000000000E+00 0. -1.
          5    1    1    2  501    0 -0.10408358017E+01  0.34383601119E+01 -0.25170221033E+02  0.25856057052E+02  0.47000000000E+01 0. -1.
         -5    1    1    2    0  503  0.10408358017E+01 -0.34383601119E+01 -0.62176416761E+02  0.62457205034E+02  0.47000000000E+01 0. -1.
<mgrwt>
<rscale>  2 0.59157129E+01</rscale>
<asrwt>0</asrwt>
<pdfrwt beam="1">  1       21 0.74355720E-04 0.59157129E+01</pdfrwt>
<pdfrwt beam="2">  1       21 0.13512299E-01 0.59157129E+01</pdfrwt>
<totfact> 0.23853726E+09</totfact>
</mgrwt>
</event>
<event>
 4    1  0.3858687E+006  0.6511198E+01  0.7546771E-02  0.2353288E+00
         21   -1    0    0  501  502  0.00000000000E+00  0.00000000000E+00  0.16250267362E+03  0.16250267362E+03  0.00000000000E+00 0.  1.
         21   -1    0    0  502  503 -0.00000000000E+00 -0.00000000000E+00 -0.11893369642E+01  0.11893369642E+01  0.00000000000E+00 0. -1.
          5    1    1    2  501    0  0.42320296698E+01  0.15477796372E+01  0.15297077747E+03  0.15310928926E+03  0.47000000000E+01 0.  1.
         -5    1    1    2    0  503 -0.42320296698E+01 -0.15477796372E+01  0.83425591869E+01  0.10582721329E+02  0.47000000000E+01 0. -1.
<mgrwt>
<rscale>  2 0.65111978E+01</rscale>
<asrwt>0</asrwt>
<pdfrwt beam="1">  1       21 0.25000394E-01 0.65111978E+01</pdfrwt>
<pdfrwt beam="2">  1       21 0.18297505E-03 0.65111978E+01</pdfrwt>
<totfact> 0.28232172E+08</totfact>
</mgrwt>
</event>
<event>
 4    1  0.3858687E+006  0.5998839E+01  0.7546771E-02  0.2415575E+00
         21   -1    0    0  501  502  0.00000000000E+00  0.00000000000E+00  0.14220448118E+04  0.14220448118E+04  0.00000000000E+00 0.  1.
         21   -1    0    0  502  503 -0.00000000000E+00 -0.00000000000E+00 -0.43002773270E-01  0.43002773270E-01  0.00000000000E+00 0.  1.
          5    1    1    2  501    0  0.31311813926E+00  0.37145702723E+01  0.11671395583E+04  0.11671549745E+04  0.47000000000E+01 0.  1.
         -5    1    1    2    0  503 -0.31311813926E+00 -0.37145702723E+01  0.25486225080E+03  0.25493284010E+03  0.47000000000E+01 0.  1.
<mgrwt>
<rscale>  2 0.59988395E+01</rscale>
<asrwt>0</asrwt>
<pdfrwt beam="1">  1       21 0.21873847E+00 0.59988395E+01</pdfrwt>
<pdfrwt beam="2">  1       21 0.66169502E-05 0.59988395E+01</pdfrwt>
<totfact> 0.34297295E+08</totfact>
</mgrwt>
</event>
<event>
 4    1  0.3858687E+006  0.9557718E+01  0.7546771E-02  0.2101068E+00
         21   -1    0    0  501  502  0.00000000000E+00  0.00000000000E+00  0.16724111688E+03  0.16724111688E+03  0.00000000000E+00 0. -1.
         21   -1    0    0  502  503 -0.00000000000E+00 -0.00000000000E+00 -0.55704938590E+00  0.55704938590E+00  0.00000000000E+00 0.  1.
          5    1    1    2  501    0 -0.20416948233E+01 -0.80679273381E+01  0.95041580911E+02  0.95520950955E+02  0.47000000000E+01 0.  1.
         -5    1    1    2    0  503  0.20416948233E+01  0.80679273381E+01  0.71642486580E+02  0.72277215308E+02  0.47000000000E+01 0. -1.
<mgrwt>
<rscale>  2 0.95577178E+01</rscale>
<asrwt>0</asrwt>
<pdfrwt beam="1">  1       21 0.25729363E-01 0.95577178E+01</pdfrwt>
<pdfrwt beam="2">  1       21 0.85700039E-04 0.95577178E+01</pdfrwt>
<totfact> 0.95752710E+08</totfact>
</mgrwt>
</event>
<event>
 4    1  0.3858687E+006  0.4958701E+01  0.7546771E-02  0.2574533E+00
         21   -1    0    0  501  502  0.00000000000E+00  0.00000000000E+00  0.58542769495E+02  0.58542769495E+02  0.00000000000E+00 0.  1.
         21   -1    0    0  502  503 -0.00000000000E+00 -0.00000000000E+00 -0.20454581320E+01  0.20454581320E+01  0.00000000000E+00 0. -1.
          5    1    1    2  501    0  0.91355693899E+00  0.12900109552E+01  0.55253963672E+02  0.55476023794E+02  0.47000000000E+01 0.  1.
         -5    1    1    2    0  503 -0.91355693899E+00 -0.12900109552E+01  0.12433476908E+01  0.51122038326E+01  0.47000000000E+01 0. -1.
<mgrwt>
<rscale>  2 0.49587009E+01</rscale>
<asrwt>0</asrwt>
<pdfrwt beam="1">  1       21 0.90065786E-02 0.49587009E+01</pdfrwt>
<pdfrwt beam="2">  1       21 0.31468591E-03 0.49587009E+01</pdfrwt>
<totfact> 0.54643739E+08</totfact>
</mgrwt>
</event>
<event>
 4    1  0.3858687E+006  0.7426212E+01  0.7546771E-02  0.2260056E+00
         21   -1    0    0  503  502  0.00000000000E+00  0.00000000000E+00  0.30979906024E+00  0.30979906024E+00  0.00000000000E+00 0.  1.
         21   -1    0    0  501  503 -0.00000000000E+00 -0.00000000000E+00 -0.18754769250E+03  0.18754769250E+03  0.00000000000E+00 0. -1.
          5    1    1    2  501    0  0.11979095341E+01 -0.56234903355E+01 -0.11479615722E+03  0.11503610887E+03  0.47000000000E+01 0. -1.
         -5    1    1    2    0  502 -0.11979095341E+01  0.56234903355E+01 -0.72441736217E+02  0.72821382690E+02  0.47000000000E+01 0. -1.
<mgrwt>
<rscale>  2 0.74262124E+01</rscale>
<asrwt>0</asrwt>
<pdfrwt beam="1">  1       21 0.47661290E-04 0.74262124E+01</pdfrwt>
<pdfrwt beam="2">  1       21 0.28853554E-01 0.74262124E+01</pdfrwt>
<totfact> 0.14981992E+09</totfact>
</mgrwt>
</event>
<event>
 4    1  0.3858687E+006  0.5234315E+01  0.7546771E-02  0.2527193E+00
         21   -1    0    0  501  502  0.00000000000E+00  0.00000000000E+00  0.10480026109E+04  0.10480026109E+04  0.00000000000E+00 0. -1.
         21   -1    0    0  502  503 -0.00000000000E+00 -0.00000000000E+00 -0.47347723192E-01  0.47347723192E-01  0.00000000000E+00 0.  1.
          5    1    1    2  501    0  0.62270390858E+00 -0.22181741305E+01  0.87466290444E+03  0.87467856636E+03  0.47000000000E+01 0. -1.
         -5    1    1    2    0  503 -0.62270390858E+00  0.22181741305E+01  0.17329235870E+03  0.17337139222E+03  0.47000000000E+01 0.  1.
<mgrwt>
<rscale>  2 0.52343153E+01</rscale>
<asrwt>0</asrwt>
<pdfrwt beam="1">  1       21 0.16121259E+00 0.52343153E+01</pdfrwt>
<pdfrwt beam="2">  1       21 0.72851045E-05 0.52343153E+01</pdfrwt>
<totfact> 0.54269338E+08</totfact>
</mgrwt>
</event>
<event>
 4    1  0.3858687E+006  0.4732937E+01  0.7546771E-02  0.2616829E+00
         21   -1    0    0  501  502  0.00000000000E+00  0.00000000000E+00  0.10092130025E+02  0.10092130025E+02  0.00000000000E+00 0. -1.
         21   -1    0    0  502  503 -0.00000000000E+00 -0.00000000000E+00 -0.24766555109E+01  0.24766555109E+01  0.00000000000E+00 0. -1.
          5    1    1    2  501    0 -0.29386694696E+00  0.47363658115E+00  0.58322822766E+01  0.75110722236E+01  0.47000000000E+01 0.  1.
         -5    1    1    2    0  503  0.29386694696E+00 -0.47363658115E+00  0.17831922373E+01  0.50577133122E+01  0.47000000000E+01 0.  1.
<mgrwt>
<rscale>  2 0.47329367E+01</rscale>
<asrwt>0</asrwt>
<pdfrwt beam="1">  1       21 0.15526354E-02 0.47329367E+01</pdfrwt>
<pdfrwt beam="2">  1       21 0.38102393E-03 0.47329367E+01</pdfrwt>
<totfact> 0.51071801E+09</totfact>
</mgrwt>
</event>
<event>
 4    1  0.3858687E+006  0.6224493E+01  0.7546771E-02  0.2387090E+00
         21   -1    0    0  501  502  0.00000000000E+00  0.00000000000E+00  0.21451412175E+02  0.21451412175E+02  0.00000000000E+00 0.  1.
         21   -1    0    0  502  503 -0.00000000000E+00 -0.00000000000E+00 -0.23762846734E+01  0.23762846734E+01  0.00000000000E+00 0. -1.
          5    1    1    2  501    0 -0.25682733706E+01 -0.31714789706E+01  0.15373283464E+02  0.16585600726E+02  0.47000000000E+01 0.  1.
         -5    1    1    2    0  503  0.25682733706E+01  0.31714789706E+01  0.37018440369E+01  0.72420961221E+01  0.47000000000E+01 0. -1.
<mgrwt>
<rscale>  2 0.62244925E+01</rscale>
<asrwt>0</asrwt>
<pdfrwt beam="1">  1       21 0.33002171E-02 0.62244925E+01</pdfrwt>
<pdfrwt beam="2">  1       21 0.36558227E-03 0.62244925E+01</pdfrwt>
<totfact> 0.23952063E+09</totfact>
</mgrwt>
</event>
<event>
 4    1  0.3858687E+006  0.6109329E+01  0.7546771E-02  0.2401408E+00
         21   -1    0    0  501  502  0.00000000000E+00  0.00000000000E+00  0.12058245148E+01  0.12058245148E+01  0.00000000000E+00 0. -1.
         21   -1    0    0  502  503 -0.00000000000E+00 -0.00000000000E+00 -0.36102672762E+02  0.36102672762E+02  0.00000000000E+00 0.  1.
          5    1    1    2  501    0  0.30153487966E+01  0.24782188371E+01 -0.10403156038E+02  0.12064391925E+02  0.47000000000E+01 0. -1.
         -5    1    1    2    0  503 -0.30153487966E+01 -0.24782188371E+01 -0.24493692210E+02  0.25244105353E+02  0.47000000000E+01 0.  1.
<mgrwt>
<rscale>  2 0.61093287E+01</rscale>
<asrwt>0</asrwt>
<pdfrwt beam="1">  1       21 0.18551144E-03 0.61093287E+01</pdfrwt>
<pdfrwt beam="2">  1       21 0.55542579E-02 0.61093287E+01</pdfrwt>
<totfact> 0.27713075E+09</totfact>
</mgrwt>
</event>
<event>
 4    1  0.3858687E+006  0.1847798E+02  0.7546771E-02  0.1777407E+00
         21   -1    0    0  501  502  0.00000000000E+00  0.00000000000E+00  0.34832515302E+01  0.34832515302E+01  0.00000000000E+00 0. -1.
         21   -1    0    0  502  503 -0.00000000000E+00 -0.00000000000E+00 -0.10907244195E+03  0.10907244195E+03  0.00000000000E+00 0.  1.
          5    1    1    2  501    0 -0.97163558667E+01  0.14997942587E+02 -0.70707522078E+02  0.73082073941E+02  0.47000000000E+01 0.  1.
         -5    1    1    2    0  503  0.97163558667E+01 -0.14997942587E+02 -0.34881668341E+02  0.39473619538E+02  0.47000000000E+01 0. -1.
<mgrwt>
<rscale>  2 0.18477983E+02</rscale>
<asrwt>0</asrwt>
<pdfrwt beam="1">  1       21 0.53588486E-03 0.18477983E+02</pdfrwt>
<pdfrwt beam="2">  1       21 0.16780375E-01 0.18477983E+02</pdfrwt>
<totfact> 0.19709506E+08</totfact>
</mgrwt>
</event>
<event>
 4    1  0.3858687E+006  0.5309167E+01  0.7546771E-02  0.2515067E+00
         21   -1    0    0  503  502  0.00000000000E+00  0.00000000000E+00  0.18741035243E+01  0.18741035243E+01  0.00000000000E+00 0.  1.
         21   -1    0    0  501  503 -0.00000000000E+00 -0.00000000000E+00 -0.35296720912E+02  0.35296720912E+02  0.00000000000E+00 0. -1.
          5    1    1    2  501    0 -0.35780889594E+00 -0.24431991998E+01 -0.30790749290E+02  0.31245119481E+02  0.47000000000E+01 0. -1.
         -5    1    1    2    0  502  0.35780889594E+00  0.24431991998E+01 -0.26318680978E+01  0.59257049555E+01  0.47000000000E+01 0.  1.
<mgrwt>
<rscale>  2 0.53091666E+01</rscale>
<asrwt>0</asrwt>
<pdfrwt beam="1">  1       21 0.28832364E-03 0.53091666E+01</pdfrwt>
<pdfrwt beam="2">  1       21 0.54302643E-02 0.53091666E+01</pdfrwt>
<totfact> 0.13901683E+09</totfact>
</mgrwt>
</event>
<event>
 4    1  0.3858687E+006  0.5372952E+01  0.7546771E-02  0.2504961E+00
         21   -1    0    0  501  502  0.00000000000E+00  0.00000000000E+00  0.58857641356E+01  0.58857641356E+01  0.00000000000E+00 0.  1.
         21   -1    0    0  502  503 -0.00000000000E+00 -0.00000000000E+00 -0.11258810571E+02  0.11258810571E+02  0.00000000000E+00 0.  1.
          5    1    1    2  501    0  0.12003014607E+01 -0.23103874670E+01  0.37532970481E+01  0.65540714503E+01  0.47000000000E+01 0.  1.
         -5    1    1    2    0  503 -0.12003014607E+01  0.23103874670E+01 -0.91263434839E+01  0.10590503257E+02  0.47000000000E+01 0.  1.
<mgrwt>
<rscale>  2 0.53729521E+01</rscale>
<asrwt>0</asrwt>
<pdfrwt beam="1">  1       21 0.90550217E-03 0.53729521E+01</pdfrwt>
<pdfrwt beam="2">  1       21 0.17321247E-02 0.53729521E+01</pdfrwt>
<totfact> 0.15097664E+09</totfact>
</mgrwt>
</event>
<event>
 4    1  0.3858687E+006  0.6128806E+01  0.7546771E-02  0.2398955E+00
         21   -1    0    0  501  502  0.00000000000E+00  0.00000000000E+00  0.11394546913E+02  0.11394546913E+02  0.00000000000E+00 0. -1.
         21   -1    0    0  502  503 -0.00000000000E+00 -0.00000000000E+00 -0.46354511304E+01  0.46354511304E+01  0.00000000000E+00 0. -1.
          5    1    1    2  501    0 -0.35311051978E+01  0.17330780241E+01  0.76871724913E+01  0.98313215931E+01  0.47000000000E+01 0. -1.
         -5    1    1    2    0  503  0.35311051978E+01 -0.17330780241E+01 -0.92807670882E+00  0.61986764501E+01  0.47000000000E+01 0. -1.
<mgrwt>
<rscale>  2 0.61288060E+01</rscale>
<asrwt>0</asrwt>
<pdfrwt beam="1">  1       21 0.17530072E-02 0.61288060E+01</pdfrwt>
<pdfrwt beam="2">  1       21 0.71314633E-03 0.61288060E+01</pdfrwt>
<totfact> 0.23290085E+09</totfact>
</mgrwt>
</event>
<event>
 4    1  0.3858687E+006  0.8261489E+01  0.7546771E-02  0.2189938E+00
         21   -1    0    0  503  502  0.00000000000E+00  0.00000000000E+00  0.11250022857E+03  0.11250022857E+03  0.00000000000E+00 0.  1.
         21   -1    0    0  501  503 -0.00000000000E+00 -0.00000000000E+00 -0.13330251185E+01  0.13330251185E+01  0.00000000000E+00 0.  1.
          5    1    1    2  501    0 -0.63617985648E+01 -0.23853124525E+01  0.13569990146E+02  0.15887001889E+02  0.47000000000E+01 0.  1.
         -5    1    1    2    0  502  0.63617985648E+01  0.23853124525E+01  0.97597213303E+02  0.97946251796E+02  0.47000000000E+01 0.  1.
<mgrwt>
<rscale>  2 0.82614888E+01</rscale>
<asrwt>0</asrwt>
<pdfrwt beam="1">  1       21 0.17307720E-01 0.82614888E+01</pdfrwt>
<pdfrwt beam="2">  1       21 0.20508088E-03 0.82614888E+01</pdfrwt>
<totfact> 0.51231140E+08</totfact>
</mgrwt>
</event>
<event>
 4    1  0.3858687E+006  0.9192441E+01  0.7546771E-02  0.2124087E+00
         21   -1    0    0  501  502  0.00000000000E+00  0.00000000000E+00  0.11415756241E+01  0.11415756241E+01  0.00000000000E+00 0. -1.
         21   -1    0    0  502  503 -0.00000000000E+00 -0.00000000000E+00 -0.83782465804E+02  0.83782465804E+02  0.00000000000E+00 0.  1.
          5    1    1    2  501    0 -0.77651801137E+01  0.14536005679E+01 -0.26826932043E+02  0.28358160372E+02  0.47000000000E+01 0.  1.
         -5    1    1    2    0  503  0.77651801137E+01 -0.14536005679E+01 -0.55813958136E+02  0.56565881056E+02  0.47000000000E+01 0. -1.
<mgrwt>
<rscale>  2 0.91924413E+01</rscale>
<asrwt>0</asrwt>
<pdfrwt beam="1">  1       21 0.17562700E-03 0.91924413E+01</pdfrwt>
<pdfrwt beam="2">  1       21 0.12889612E-01 0.91924413E+01</pdfrwt>
<totfact> 0.10907866E+09</totfact>
</mgrwt>
</event>
<event>
 4    1  0.3858687E+006  0.5108717E+01  0.7546771E-02  0.2548222E+00
         21   -1    0    0  501  502  0.00000000000E+00  0.00000000000E+00  0.67338611561E+01  0.67338611561E+01  0.00000000000E+00 0.  1.
         21   -1    0    0  502  503 -0.00000000000E+00 -0.00000000000E+00 -0.51166172171E+01  0.51166172171E+01  0.00000000000E+00 0.  1.
          5    1    1    2  501    0  0.19194816689E+01 -0.56971680443E+00  0.37265275690E+01  0.63234480181E+01  0.47000000000E+01 0.  1.
         -5    1    1    2    0  503 -0.19194816689E+01  0.56971680443E+00 -0.21092836301E+01  0.55270303551E+01  0.47000000000E+01 0.  1.
<mgrwt>
<rscale>  2 0.51087168E+01</rscale>
<asrwt>0</asrwt>
<pdfrwt beam="1">  1       21 0.10359786E-02 0.51087168E+01</pdfrwt>
<pdfrwt beam="2">  1       21 0.78717188E-03 0.51087168E+01</pdfrwt>
<totfact> 0.36013344E+09</totfact>
</mgrwt>
</event>
<event>
 4    1  0.3858687E+006  0.6115449E+01  0.7546771E-02  0.2400636E+00
         21   -1    0    0  501  502  0.00000000000E+00  0.00000000000E+00  0.44004344178E+03  0.44004344178E+03  0.00000000000E+00 0.  1.
         21   -1    0    0  502  503 -0.00000000000E+00 -0.00000000000E+00 -0.93235813746E+00  0.93235813746E+00  0.00000000000E+00 0.  1.
          5    1    1    2  501    0  0.87209282434E+00 -0.38142057425E+01  0.42975412351E+03  0.42979763307E+03  0.47000000000E+01 0.  1.
         -5    1    1    2    0  503 -0.87209282434E+00  0.38142057425E+01  0.93569601328E+01  0.11178166856E+02  0.47000000000E+01 0.  1.
<mgrwt>
<rscale>  2 0.61154486E+01</rscale>
<asrwt>0</asrwt>
<pdfrwt beam="1">  1       21 0.67698825E-01 0.61154486E+01</pdfrwt>
<pdfrwt beam="2">  1       21 0.14344006E-03 0.61154486E+01</pdfrwt>
<totfact> 0.65206648E+07</totfact>
</mgrwt>
</event>
<event>
 4    1  0.3858687E+006  0.4949163E+01  0.7546771E-02  0.2576252E+00
         21   -1    0    0  501  502  0.00000000000E+00  0.00000000000E+00  0.32530310625E+01  0.32530310625E+01  0.00000000000E+00 0.  1.
         21   -1    0    0  502  503 -0.00000000000E+00 -0.00000000000E+00 -0.11900120612E+02  0.11900120612E+02  0.00000000000E+00 0.  1.
          5    1    1    2  501    0 -0.15284144604E+01  0.26108989016E+00  0.26802180097E+00  0.49564154769E+01  0.47000000000E+01 0.  1.
         -5    1    1    2    0  503  0.15284144604E+01 -0.26108989016E+00 -0.89151113507E+01  0.10196736198E+02  0.47000000000E+01 0.  1.
<mgrwt>
<rscale>  2 0.49491634E+01</rscale>
<asrwt>0</asrwt>
<pdfrwt beam="1">  1       21 0.50046632E-03 0.49491634E+01</pdfrwt>
<pdfrwt beam="2">  1       21 0.18307878E-02 0.49491634E+01</pdfrwt>
<totfact> 0.29259307E+09</totfact>
</mgrwt>
</event>
<event>
 4    1  0.3858687E+006  0.5203182E+01  0.7546771E-02  0.2532324E+00
         21   -1    0    0  501  502  0.00000000000E+00  0.00000000000E+00  0.35297386421E+02  0.35297386421E+02  0.00000000000E+00 0. -1.
         21   -1    0    0  502  503 -0.00000000000E+00 -0.00000000000E+00 -0.10848789711E+01  0.10848789711E+01  0.00000000000E+00 0. -1.
          5    1    1    2  501    0  0.14717406351E+01  0.16784156265E+01  0.26953162528E+02  0.27450793609E+02  0.47000000000E+01 0. -1.
         -5    1    1    2    0  503 -0.14717406351E+01 -0.16784156265E+01  0.72593449214E+01  0.89314717824E+01  0.47000000000E+01 0. -1.
<mgrwt>
<rscale>  2 0.52031817E+01</rscale>
<asrwt>0</asrwt>
<pdfrwt beam="1">  1       21 0.54303663E-02 0.52031817E+01</pdfrwt>
<pdfrwt beam="2">  1       21 0.16690448E-03 0.52031817E+01</pdfrwt>
<totfact> 0.28563780E+09</totfact>
</mgrwt>
</event>
<event>
 4    1  0.3858687E+006  0.7494974E+01  0.7546771E-02  0.2253809E+00
         21   -1    0    0  503  502  0.00000000000E+00  0.00000000000E+00  0.94446465390E+00  0.94446465390E+00  0.00000000000E+00 0. -1.
         21   -1    0    0  501  503 -0.00000000000E+00 -0.00000000000E+00 -0.59481682787E+02  0.59481682787E+02  0.00000000000E+00 0.  1.
          5    1    1    2  501    0  0.16772331106E+01  0.55920950165E+01 -0.29514114049E+02  0.30450904185E+02  0.47000000000E+01 0.  1.
         -5    1    1    2    0  502 -0.16772331106E+01 -0.55920950165E+01 -0.29023104085E+02  0.29975243256E+02  0.47000000000E+01 0. -1.
<mgrwt>
<rscale>  2 0.74949742E+01</rscale>
<asrwt>0</asrwt>
<pdfrwt beam="1">  1       21 0.14530220E-03 0.74949742E+01</pdfrwt>
<pdfrwt beam="2">  1       21 0.91510313E-02 0.74949742E+01</pdfrwt>
<totfact> 0.21267388E+09</totfact>
</mgrwt>
</event>
<event>
 4    1  0.3858687E+006  0.5927245E+01  0.7546771E-02  0.2424990E+00
         21   -1    0    0  501  502  0.00000000000E+00  0.00000000000E+00  0.34841760090E+02  0.34841760090E+02  0.00000000000E+00 0.  1.
         21   -1    0    0  502  503 -0.00000000000E+00 -0.00000000000E+00 -0.12825124277E+01  0.12825124277E+01  0.00000000000E+00 0.  1.
          5    1    1    2  501    0  0.11255480789E+01 -0.34315269865E+01  0.25130895005E+02  0.25820420595E+02  0.47000000000E+01 0.  1.
         -5    1    1    2    0  503 -0.11255480789E+01  0.34315269865E+01  0.84283526577E+01  0.10303851923E+02  0.47000000000E+01 0.  1.
<mgrwt>
<rscale>  2 0.59272452E+01</rscale>
<asrwt>0</asrwt>
<pdfrwt beam="1">  1       21 0.53602701E-02 0.59272452E+01</pdfrwt>
<pdfrwt beam="2">  1       21 0.19730963E-03 0.59272452E+01</pdfrwt>
<totfact> 0.26175537E+09</totfact>
</mgrwt>
</event>
<event>
 4    1  0.3858687E+006  0.7730206E+01  0.7546771E-02  0.2233122E+00
         21   -1    0    0  503  502  0.00000000000E+00  0.00000000000E+00  0.32567858378E+01  0.32567858378E+01  0.00000000000E+00 0.  1.
         21   -1    0    0  501  503 -0.00000000000E+00 -0.00000000000E+00 -0.38769676736E+03  0.38769676736E+03  0.00000000000E+00 0. -1.
          5    1    1    2  501    0  0.77031462706E+00 -0.60887360923E+01 -0.38301512739E+03  0.38309312693E+03  0.47000000000E+01 0. -1.
         -5    1    1    2    0  502 -0.77031462706E+00  0.60887360923E+01 -0.14248541339E+01  0.78604262689E+01  0.47000000000E+01 0.  1.
<mgrwt>
<rscale>  2 0.77302065E+01</rscale>
<asrwt>0</asrwt>
<pdfrwt beam="1">  1       21 0.50104403E-03 0.77302065E+01</pdfrwt>
<pdfrwt beam="2">  1       21 0.59645650E-01 0.77302065E+01</pdfrwt>
<totfact> 0.16500647E+07</totfact>
</mgrwt>
</event>
<event>
 4    1  0.3858687E+006  0.5146991E+01  0.7546771E-02  0.2541720E+00
         21   -1    0    0  501  502  0.00000000000E+00  0.00000000000E+00  0.10571503768E+01  0.10571503768E+01  0.00000000000E+00 0. -1.
         21   -1    0    0  502  503 -0.00000000000E+00 -0.00000000000E+00 -0.26413759015E+02  0.26413759015E+02  0.00000000000E+00 0. -1.
          5    1    1    2  501    0 -0.99050582758E+00 -0.18494355011E+01 -0.15788595199E+02  0.16606361788E+02  0.47000000000E+01 0.  1.
         -5    1    1    2    0  503  0.99050582758E+00  0.18494355011E+01 -0.95680134388E+01  0.10864547604E+02  0.47000000000E+01 0.  1.
<mgrwt>
<rscale>  2 0.51469907E+01</rscale>
<asrwt>0</asrwt>
<pdfrwt beam="1">  1       21 0.16263851E-03 0.51469907E+01</pdfrwt>
<pdfrwt beam="2">  1       21 0.40636555E-02 0.51469907E+01</pdfrwt>
<totfact> 0.44699346E+09</totfact>
</mgrwt>
</event>
<event>
 4    1  0.3858687E+006  0.5004630E+01  0.7546771E-02  0.2566333E+00
         21   -1    0    0  503  502  0.00000000000E+00  0.00000000000E+00  0.68022183793E+01  0.68022183793E+01  0.00000000000E+00 0. -1.
         21   -1    0    0  501  503 -0.00000000000E+00 -0.00000000000E+00 -0.44744563979E+01  0.44744563979E+01  0.00000000000E+00 0. -1.
          5    1    1    2  501    0 -0.10172686179E+01  0.13861775331E+01 -0.12088375725E+01  0.51485543477E+01  0.47000000000E+01 0. -1.
         -5    1    1    2    0  502  0.10172686179E+01 -0.13861775331E+01  0.35365995539E+01  0.61281204295E+01  0.47000000000E+01 0. -1.
<mgrwt>
<rscale>  2 0.50046302E+01</rscale>
<asrwt>0</asrwt>
<pdfrwt beam="1">  1       21 0.10464951E-02 0.50046302E+01</pdfrwt>
<pdfrwt beam="2">  1       21 0.68837790E-03 0.50046302E+01</pdfrwt>
<totfact> 0.41855519E+09</totfact>
</mgrwt>
</event>
<event>
 4    1  0.3858687E+006  0.5131678E+01  0.7546771E-02  0.2544311E+00
         21   -1    0    0  503  502  0.00000000000E+00  0.00000000000E+00  0.32032568410E+02  0.32032568410E+02  0.00000000000E+00 0. -1.
         21   -1    0    0  501  503 -0.00000000000E+00 -0.00000000000E+00 -0.97224527862E+00  0.97224527862E+00  0.00000000000E+00 0.  1.
          5    1    1    2  501    0 -0.20485928770E+01  0.21768806064E+00  0.22015140947E+02  0.22605321316E+02  0.47000000000E+01 0. -1.
         -5    1    1    2    0  502  0.20485928770E+01 -0.21768806064E+00  0.90451821846E+01  0.10399492373E+02  0.47000000000E+01 0.  1.
<mgrwt>
<rscale>  2 0.51316782E+01</rscale>
<asrwt>0</asrwt>
<pdfrwt beam="1">  1       21 0.49280866E-02 0.51316782E+01</pdfrwt>
<pdfrwt beam="2">  1       21 0.14957622E-03 0.51316782E+01</pdfrwt>
<totfact> 0.37632657E+09</totfact>
</mgrwt>
</event>
<event>
 4    1  0.3858687E+006  0.1607982E+02  0.7546771E-02  0.1836800E+00
         21   -1    0    0  501  502  0.00000000000E+00  0.00000000000E+00  0.13316689587E+01  0.13316689587E+01  0.00000000000E+00 0.  1.
         21   -1    0    0  502  503 -0.00000000000E+00 -0.00000000000E+00 -0.21011030420E+03  0.21011030420E+03  0.00000000000E+00 0. -1.
          5    1    1    2  501    0  0.70585668520E+01  0.13661888990E+02 -0.75263115257E+02  0.76961659902E+02  0.47000000000E+01 0.  1.
         -5    1    1    2    0  503 -0.70585668520E+01 -0.13661888990E+02 -0.13351551999E+03  0.13448031326E+03  0.47000000000E+01 0. -1.
<mgrwt>
<rscale>  2 0.16079819E+02</rscale>
<asrwt>0</asrwt>
<pdfrwt beam="1">  1       21 0.20487236E-03 0.16079819E+02</pdfrwt>
<pdfrwt beam="2">  1       21 0.32324629E-01 0.16079819E+02</pdfrwt>
<totfact> 0.23958736E+08</totfact>
</mgrwt>
</event>
<event>
 4    1  0.3858687E+006  0.1124528E+02  0.7546771E-02  0.2010353E+00
         21   -1    0    0  501  502  0.00000000000E+00  0.00000000000E+00  0.38455400075E+00  0.38455400075E+00  0.00000000000E+00 0.  1.
         21   -1    0    0  502  503 -0.00000000000E+00 -0.00000000000E+00 -0.59391362828E+03  0.59391362828E+03  0.00000000000E+00 0. -1.
          5    1    1    2  501    0 -0.87071914284E+01 -0.53433207455E+01 -0.98247839817E+02  0.98889303202E+02  0.47000000000E+01 0. -1.
         -5    1    1    2    0  503  0.87071914284E+01  0.53433207455E+01 -0.49528123446E+03  0.49540887908E+03  0.47000000000E+01 0.  1.
<mgrwt>
<rscale>  2 0.11245277E+02</rscale>
<asrwt>0</asrwt>
<pdfrwt beam="1">  1       21 0.59161952E-04 0.11245277E+02</pdfrwt>
<pdfrwt beam="2">  1       21 0.91371639E-01 0.11245277E+02</pdfrwt>
<totfact> 0.16112112E+08</totfact>
</mgrwt>
</event>
<event>
 4    1  0.3858687E+006  0.5917383E+01  0.7546771E-02  0.2426302E+00
         21   -1    0    0  501  502  0.00000000000E+00  0.00000000000E+00  0.13105006481E+02  0.13105006481E+02  0.00000000000E+00 0.  1.
         21   -1    0    0  502  503 -0.00000000000E+00 -0.00000000000E+00 -0.60668971761E+01  0.60668971761E+01  0.00000000000E+00 0.  1.
          5    1    1    2  501    0  0.35798005039E+01  0.33233681286E+00  0.10689908797E+02  0.12218411087E+02  0.47000000000E+01 0.  1.
         -5    1    1    2    0  503 -0.35798005039E+01 -0.33233681286E+00 -0.36517994913E+01  0.69534925706E+01  0.47000000000E+01 0.  1.
<mgrwt>
<rscale>  2 0.59173828E+01</rscale>
<asrwt>0</asrwt>
<pdfrwt beam="1">  1       21 0.20161548E-02 0.59173828E+01</pdfrwt>
<pdfrwt beam="2">  1       21 0.93336880E-03 0.59173828E+01</pdfrwt>
<totfact> 0.12672929E+09</totfact>
</mgrwt>
</event>
<event>
 4    1  0.3858687E+006  0.6645141E+01  0.7546771E-02  0.2338328E+00
         21   -1    0    0  503  502  0.00000000000E+00  0.00000000000E+00  0.69649207646E+03  0.69649207646E+03  0.00000000000E+00 0. -1.
         21   -1    0    0  501  503 -0.00000000000E+00 -0.00000000000E+00 -0.83689311460E-01  0.83689311460E-01  0.00000000000E+00 0. -1.
          5    1    1    2  501    0 -0.13999792040E+01  0.44841891867E+01  0.17671669640E+03  0.17684159206E+03  0.47000000000E+01 0. -1.
         -5    1    1    2    0  502  0.13999792040E+01 -0.44841891867E+01  0.51969169074E+03  0.51973417371E+03  0.47000000000E+01 0. -1.
<mgrwt>
<rscale>  2 0.66451407E+01</rscale>
<asrwt>0</asrwt>
<pdfrwt beam="1">  1       21 0.10714799E+00 0.66451407E+01</pdfrwt>
<pdfrwt beam="2">  1       21 0.12875836E-04 0.66451407E+01</pdfrwt>
<totfact> 0.70173877E+08</totfact>
</mgrwt>
</event>
<event>
 4    1  0.3858687E+006  0.5218388E+01  0.7546771E-02  0.2529811E+00
         21   -1    0    0  501  502  0.00000000000E+00  0.00000000000E+00  0.14500306959E+01  0.14500306959E+01  0.00000000000E+00 0. -1.
         21   -1    0    0  502  503 -0.00000000000E+00 -0.00000000000E+00 -0.35644143813E+02  0.35644143813E+02  0.00000000000E+00 0. -1.
          5    1    1    2  501    0  0.74955165933E+00 -0.21400345235E+01 -0.43396093735E+01  0.67870306443E+01  0.47000000000E+01 0. -1.
         -5    1    1    2    0  503 -0.74955165933E+00  0.21400345235E+01 -0.29854503744E+02  0.30307143865E+02  0.47000000000E+01 0. -1.
<mgrwt>
<rscale>  2 0.52183882E+01</rscale>
<asrwt>0</asrwt>
<pdfrwt beam="1">  1       21 0.22308163E-03 0.52183882E+01</pdfrwt>
<pdfrwt beam="2">  1       21 0.54837149E-02 0.52183882E+01</pdfrwt>
<totfact> 0.19097173E+09</totfact>
</mgrwt>
</event>
<event>
 4    1  0.3858687E+006  0.4798168E+01  0.7546771E-02  0.2604254E+00
         21   -1    0    0  503  502  0.00000000000E+00  0.00000000000E+00  0.68773839773E+02  0.68773839773E+02  0.00000000000E+00 0. -1.
         21   -1    0    0  501  503 -0.00000000000E+00 -0.00000000000E+00 -0.33920916541E+00  0.33920916541E+00  0.00000000000E+00 0. -1.
          5    1    1    2  501    0  0.79841342434E+00 -0.54309080219E+00  0.30257619720E+02  0.30635697523E+02  0.47000000000E+01 0.  1.
         -5    1    1    2    0  502 -0.79841342434E+00  0.54309080219E+00  0.38177010888E+02  0.38477351416E+02  0.47000000000E+01 0.  1.
<mgrwt>
<rscale>  2 0.47981675E+01</rscale>
<asrwt>0</asrwt>
<pdfrwt beam="1">  1       21 0.10580580E-01 0.47981675E+01</pdfrwt>
<pdfrwt beam="2">  1       21 0.52186080E-04 0.47981675E+01</pdfrwt>
<totfact> 0.45672014E+09</totfact>
</mgrwt>
</event>
<event>
 4    1  0.3858687E+006  0.4782445E+01  0.7546771E-02  0.2607258E+00
         21   -1    0    0  501  502  0.00000000000E+00  0.00000000000E+00  0.17655982707E+02  0.17655982707E+02  0.00000000000E+00 0.  1.
         21   -1    0    0  502  503 -0.00000000000E+00 -0.00000000000E+00 -0.19788933611E+01  0.19788933611E+01  0.00000000000E+00 0.  1.
          5    1    1    2  501    0  0.88413071150E+00  0.97706761602E-02  0.13608203301E+02  0.14424111052E+02  0.47000000000E+01 0.  1.
         -5    1    1    2    0  503 -0.88413071150E+00 -0.97706761602E-02  0.20688860455E+01  0.52107650159E+01  0.47000000000E+01 0.  1.
<mgrwt>
<rscale>  2 0.47824453E+01</rscale>
<asrwt>0</asrwt>
<pdfrwt beam="1">  1       21 0.27163049E-02 0.47824453E+01</pdfrwt>
<pdfrwt beam="2">  1       21 0.30444514E-03 0.47824453E+01</pdfrwt>
<totfact> 0.31755902E+09</totfact>
</mgrwt>
</event>
<event>
 4    1  0.3858687E+006  0.5564515E+01  0.7546771E-02  0.2475801E+00
         21   -1    0    0  501  502  0.00000000000E+00  0.00000000000E+00  0.19990994580E+01  0.19990994580E+01  0.00000000000E+00 0. -1.
         21   -1    0    0  502  503 -0.00000000000E+00 -0.00000000000E+00 -0.15613190589E+02  0.15613190589E+02  0.00000000000E+00 0.  1.
          5    1    1    2  501    0  0.91393829738E+00 -0.28352335936E+01 -0.60213114651E+01  0.81987818913E+01  0.47000000000E+01 0. -1.
         -5    1    1    2    0  503 -0.91393829738E+00  0.28352335936E+01 -0.75927796656E+01  0.94135081554E+01  0.47000000000E+01 0.  1.
<mgrwt>
<rscale>  2 0.55645155E+01</rscale>
<asrwt>0</asrwt>
<pdfrwt beam="1">  1       21 0.30755377E-03 0.55645155E+01</pdfrwt>
<pdfrwt beam="2">  1       21 0.24020293E-02 0.55645155E+01</pdfrwt>
<totfact> 0.43537928E+09</totfact>
</mgrwt>
</event>
<event>
 4    1  0.3858687E+006  0.6912617E+01  0.7546771E-02  0.2309894E+00
         21   -1    0    0  503  502  0.00000000000E+00  0.00000000000E+00  0.62171026157E+02  0.62171026157E+02  0.00000000000E+00 0.  1.
         21   -1    0    0  501  503 -0.00000000000E+00 -0.00000000000E+00 -0.10378864424E+01  0.10378864424E+01  0.00000000000E+00 0. -1.
          5    1    1    2  501    0  0.50627870459E+01 -0.24992030008E+00  0.14468064757E+02  0.16034624119E+02  0.47000000000E+01 0. -1.
         -5    1    1    2    0  502 -0.50627870459E+01  0.24992030008E+00  0.46665074957E+02  0.47174288480E+02  0.47000000000E+01 0.  1.
<mgrwt>
<rscale>  2 0.69126169E+01</rscale>
<asrwt>0</asrwt>
<pdfrwt beam="1">  1       21 0.95647704E-02 0.69126169E+01</pdfrwt>
<pdfrwt beam="2">  1       21 0.15967488E-03 0.69126169E+01</pdfrwt>
<totfact> 0.16449532E+09</totfact>
</mgrwt>
</event>
<event>
 4    1  0.3858687E+006  0.1401878E+02  0.7546771E-02  0.1899576E+00
         21   -1    0    0  501  502  0.00000000000E+00  0.00000000000E+00  0.22202625714E+02  0.22202625714E+02  0.00000000000E+00 0. -1.
         21   -1    0    0  502  503 -0.00000000000E+00 -0.00000000000E+00 -0.12915899467E+02  0.12915899467E+02  0.00000000000E+00 0. -1.
          5    1    1    2  501    0 -0.12524761330E+02  0.41912518178E+01  0.14493513674E+02  0.20164031759E+02  0.47000000000E+01 0. -1.
         -5    1    1    2    0  503  0.12524761330E+02 -0.41912518178E+01 -0.52067874269E+01  0.14954493421E+02  0.47000000000E+01 0. -1.
<mgrwt>
<rscale>  2 0.14018782E+02</rscale>
<asrwt>0</asrwt>
<pdfrwt beam="1">  1       21 0.34157886E-02 0.14018782E+02</pdfrwt>
<pdfrwt beam="2">  1       21 0.19870615E-02 0.14018782E+02</pdfrwt>
<totfact> 0.32719271E+08</totfact>
</mgrwt>
</event>
<event>
 4    1  0.3858687E+006  0.9325630E+01  0.7546771E-02  0.2115529E+00
         21   -1    0    0  503  502  0.00000000000E+00  0.00000000000E+00  0.69240896986E+02  0.69240896986E+02  0.00000000000E+00 0. -1.
         21   -1    0    0  501  503 -0.00000000000E+00 -0.00000000000E+00 -0.13109041978E+01  0.13109041978E+01  0.00000000000E+00 0.  1.
          5    1    1    2  501    0 -0.65228260412E+01  0.47254750774E+01  0.26746458010E+02  0.28325613680E+02  0.47000000000E+01 0. -1.
         -5    1    1    2    0  502  0.65228260412E+01 -0.47254750774E+01  0.41183534778E+02  0.42226187503E+02  0.47000000000E+01 0.  1.
<mgrwt>
<rscale>  2 0.93256300E+01</rscale>
<asrwt>0</asrwt>
<pdfrwt beam="1">  1       21 0.10652443E-01 0.93256300E+01</pdfrwt>
<pdfrwt beam="2">  1       21 0.20167762E-03 0.93256300E+01</pdfrwt>
<totfact> 0.12307712E+09</totfact>
</mgrwt>
</event>
<event>
 4    1  0.3858687E+006  0.9284447E+01  0.7546771E-02  0.2118154E+00
         21   -1    0    0  501  502  0.00000000000E+00  0.00000000000E+00  0.38572613009E+01  0.38572613009E+01  0.00000000000E+00 0.  1.
         21   -1    0    0  502  503 -0.00000000000E+00 -0.00000000000E+00 -0.31426837933E+02  0.31426837933E+02  0.00000000000E+00 0. -1.
          5    1    1    2  501    0  0.33821573843E+01 -0.72575458254E+01 -0.43023343011E+01  0.10232841268E+02  0.47000000000E+01 0.  1.
         -5    1    1    2    0  503 -0.33821573843E+01  0.72575458254E+01 -0.23267242331E+02  0.25051257966E+02  0.47000000000E+01 0. -1.
<mgrwt>
<rscale>  2 0.92844472E+01</rscale>
<asrwt>0</asrwt>
<pdfrwt beam="1">  1       21 0.59342481E-03 0.92844472E+01</pdfrwt>
<pdfrwt beam="2">  1       21 0.48348982E-02 0.92844472E+01</pdfrwt>
<totfact> 0.91337347E+08</totfact>
</mgrwt>
</event>
<event>
 4    1  0.3858687E+006  0.4776356E+01  0.7546771E-02  0.2608426E+00
         21   -1    0    0  503  502  0.00000000000E+00  0.00000000000E+00  0.70562118186E+01  0.70562118186E+01  0.00000000000E+00 0. -1.
         21   -1    0    0  501  503 -0.00000000000E+00 -0.00000000000E+00 -0.46420565847E+01  0.46420565847E+01  0.00000000000E+00 0. -1.
          5    1    1    2  501    0  0.84226656194E+00  0.11900488811E+00 -0.20153427273E+01  0.51841278373E+01  0.47000000000E+01 0. -1.
         -5    1    1    2    0  502 -0.84226656194E+00 -0.11900488811E+00  0.44294979612E+01  0.65141405660E+01  0.47000000000E+01 0. -1.
<mgrwt>
<rscale>  2 0.47763558E+01</rscale>
<asrwt>0</asrwt>
<pdfrwt beam="1">  1       21 0.10855710E-02 0.47763558E+01</pdfrwt>
<pdfrwt beam="2">  1       21 0.71416255E-03 0.47763558E+01</pdfrwt>
<totfact> 0.35969920E+09</totfact>
</mgrwt>
</event>
<event>
 4    1  0.3858687E+006  0.6435823E+01  0.7546771E-02  0.2361932E+00
         21   -1    0    0  503  502  0.00000000000E+00  0.00000000000E+00  0.55760617060E+03  0.55760617060E+03  0.00000000000E+00 0.  1.
         21   -1    0    0  501  503 -0.00000000000E+00 -0.00000000000E+00 -0.84270914234E-01  0.84270914234E-01  0.00000000000E+00 0. -1.
          5    1    1    2  501    0 -0.41111725128E+01  0.15582308771E+01  0.18275583785E+03  0.18286912284E+03  0.47000000000E+01 0. -1.
         -5    1    1    2    0  502  0.41111725128E+01 -0.15582308771E+01  0.37476606184E+03  0.37482131867E+03  0.47000000000E+01 0.  1.
<mgrwt>
<rscale>  2 0.64358234E+01</rscale>
<asrwt>0</asrwt>
<pdfrwt beam="1">  1       21 0.85782610E-01 0.64358234E+01</pdfrwt>
<pdfrwt beam="2">  1       21 0.12965203E-04 0.64358234E+01</pdfrwt>
<totfact> 0.10675558E+09</totfact>
</mgrwt>
</event>
<event>
 4    1  0.3858687E+006  0.8469270E+01  0.7546771E-02  0.2174242E+00
         21   -1    0    0  503  502  0.00000000000E+00  0.00000000000E+00  0.35569801570E+02  0.35569801570E+02  0.00000000000E+00 0.  1.
         21   -1    0    0  501  503 -0.00000000000E+00 -0.00000000000E+00 -0.22584387525E+01  0.22584387525E+01  0.00000000000E+00 0.  1.
          5    1    1    2  501    0  0.70074711426E+01 -0.73067236170E+00  0.10465783320E+02  0.13463326276E+02  0.47000000000E+01 0.  1.
         -5    1    1    2    0  502 -0.70074711426E+01  0.73067236170E+00  0.22845579497E+02  0.24364914046E+02  0.47000000000E+01 0.  1.
<mgrwt>
<rscale>  2 0.84692700E+01</rscale>
<asrwt>0</asrwt>
<pdfrwt beam="1">  1       21 0.54722768E-02 0.84692700E+01</pdfrwt>
<pdfrwt beam="2">  1       21 0.34745214E-03 0.84692700E+01</pdfrwt>
<totfact> 0.15225044E+09</totfact>
</mgrwt>
</event>
<event>
 4    1  0.3858687E+006  0.1576218E+02  0.7546771E-02  0.1845663E+00
         21   -1    0    0  503  502  0.00000000000E+00  0.00000000000E+00  0.35769631328E+02  0.35769631328E+02  0.00000000000E+00 0. -1.
         21   -1    0    0  501  503 -0.00000000000E+00 -0.00000000000E+00 -0.29997063280E+02  0.29997063280E+02  0.00000000000E+00 0.  1.
          5    1    1    2  501    0  0.67733629961E+01  0.13434207612E+02 -0.25939732254E+02  0.30353189122E+02  0.47000000000E+01 0.  1.
         -5    1    1    2    0  502 -0.67733629961E+01 -0.13434207612E+02  0.31712300302E+02  0.35413505487E+02  0.47000000000E+01 0. -1.
<mgrwt>
<rscale>  2 0.15762182E+02</rscale>
<asrwt>0</asrwt>
<pdfrwt beam="1">  1       21 0.55030202E-02 0.15762182E+02</pdfrwt>
<pdfrwt beam="2">  1       21 0.46149328E-02 0.15762182E+02</pdfrwt>
<totfact> 0.44878177E+07</totfact>
</mgrwt>
</event>
<event>
 4    1  0.3858687E+006  0.8542222E+01  0.7546771E-02  0.2168877E+00
         21   -1    0    0  501  502  0.00000000000E+00  0.00000000000E+00  0.14754510610E+02  0.14754510610E+02  0.00000000000E+00 0.  1.
         21   -1    0    0  502  503 -0.00000000000E+00 -0.00000000000E+00 -0.18541998334E+02  0.18541998334E+02  0.00000000000E+00 0. -1.
          5    1    1    2  501    0 -0.37618576288E+01  0.60603617097E+01  0.12362422550E+02  0.15026611334E+02  0.47000000000E+01 0.  1.
         -5    1    1    2    0  503  0.37618576288E+01 -0.60603617097E+01 -0.16149910274E+02  0.18269897611E+02  0.47000000000E+01 0. -1.
<mgrwt>
<rscale>  2 0.85422220E+01</rscale>
<asrwt>0</asrwt>
<pdfrwt beam="1">  1       21 0.22699247E-02 0.85422220E+01</pdfrwt>
<pdfrwt beam="2">  1       21 0.28526151E-02 0.85422220E+01</pdfrwt>
<totfact> 0.27493582E+08</totfact>
</mgrwt>
</event>
<event>
 4    1  0.3858687E+006  0.9397873E+01  0.7546771E-02  0.2110967E+00
         21   -1    0    0  503  502  0.00000000000E+00  0.00000000000E+00  0.85464839921E+02  0.85464839921E+02  0.00000000000E+00 0.  1.
         21   -1    0    0  501  503 -0.00000000000E+00 -0.00000000000E+00 -0.12462626404E+01  0.12462626404E+01  0.00000000000E+00 0. -1.
          5    1    1    2  501    0 -0.50972702557E+01  0.63441195468E+01  0.24191604649E+02  0.25952914140E+02  0.47000000000E+01 0.  1.
         -5    1    1    2    0  502  0.50972702557E+01 -0.63441195468E+01  0.60026972632E+02  0.60758188422E+02  0.47000000000E+01 0. -1.
<mgrwt>
<rscale>  2 0.93978730E+01</rscale>
<asrwt>0</asrwt>
<pdfrwt beam="1">  1       21 0.13148432E-01 0.93978730E+01</pdfrwt>
<pdfrwt beam="2">  1       21 0.19173278E-03 0.93978730E+01</pdfrwt>
<totfact> 0.94751725E+08</totfact>
</mgrwt>
</event>
<event>
 4    1  0.3858687E+006  0.5885098E+01  0.7546771E-02  0.2430622E+00
         21   -1    0    0  503  502  0.00000000000E+00  0.00000000000E+00  0.79558792968E+00  0.79558792968E+00  0.00000000000E+00 0.  1.
         21   -1    0    0  501  503 -0.00000000000E+00 -0.00000000000E+00 -0.47483270692E+02  0.47483270692E+02  0.00000000000E+00 0.  1.
          5    1    1    2  501    0 -0.15409817068E+01  0.31890052100E+01 -0.30306365190E+02  0.30872482082E+02  0.47000000000E+01 0.  1.
         -5    1    1    2    0  502  0.15409817068E+01 -0.31890052100E+01 -0.16381317573E+02  0.17406376540E+02  0.47000000000E+01 0.  1.
<mgrwt>
<rscale>  2 0.58850980E+01</rscale>
<asrwt>0</asrwt>
<pdfrwt beam="1">  1       21 0.12239815E-03 0.58850980E+01</pdfrwt>
<pdfrwt beam="2">  1       21 0.73051180E-02 0.58850980E+01</pdfrwt>
<totfact> 0.31234385E+09</totfact>
</mgrwt>
</event>
<event>
 4    1  0.3858687E+006  0.1098348E+02  0.7546771E-02  0.2022989E+00
         21   -1    0    0  501  502  0.00000000000E+00  0.00000000000E+00  0.69022510935E+00  0.69022510935E+00  0.00000000000E+00 0. -1.
         21   -1    0    0  502  503 -0.00000000000E+00 -0.00000000000E+00 -0.28660039436E+03  0.28660039436E+03  0.00000000000E+00 0.  1.
          5    1    1    2  501    0 -0.33237055595E+01 -0.93541313466E+01 -0.53229626223E+02  0.54350988029E+02  0.47000000000E+01 0. -1.
         -5    1    1    2    0  503  0.33237055595E+01  0.93541313466E+01 -0.23268054303E+03  0.23293963144E+03  0.47000000000E+01 0.  1.
<mgrwt>
<rscale>  2 0.10983478E+02</rscale>
<asrwt>0</asrwt>
<pdfrwt beam="1">  1       21 0.10618831E-03 0.10983478E+02</pdfrwt>
<pdfrwt beam="2">  1       21 0.44092437E-01 0.10983478E+02</pdfrwt>
<totfact> 0.29420564E+08</totfact>
</mgrwt>
</event>
<event>
 4    1  0.3858687E+006  0.6875426E+01  0.7546771E-02  0.2313739E+00
         21   -1    0    0  501  502  0.00000000000E+00  0.00000000000E+00  0.17998210796E+00  0.17998210796E+00  0.00000000000E+00 0.  1.
         21   -1    0    0  502  503 -0.00000000000E+00 -0.00000000000E+00 -0.26605088933E+03  0.26605088933E+03  0.00000000000E+00 0.  1.
          5    1    1    2  501    0 -0.49922169480E+01 -0.50916307572E+00 -0.11787513085E+03  0.11807547565E+03  0.47000000000E+01 0.  1.
         -5    1    1    2    0  503  0.49922169480E+01  0.50916307572E+00 -0.14799577636E+03  0.14815539578E+03  0.47000000000E+01 0.  1.
<mgrwt>
<rscale>  2 0.68754256E+01</rscale>
<asrwt>0</asrwt>
<pdfrwt beam="1">  1       21 0.27689495E-04 0.68754256E+01</pdfrwt>
<pdfrwt beam="2">  1       21 0.40930995E-01 0.68754256E+01</pdfrwt>
<totfact> 0.16100376E+09</totfact>
</mgrwt>
</event>
<event>
 4    1  0.3858687E+006  0.4712622E+01  0.7546771E-02  0.2620807E+00
         21   -1    0    0  501  502  0.00000000000E+00  0.00000000000E+00  0.53280320013E+03  0.53280320013E+03  0.00000000000E+00 0. -1.
         21   -1    0    0  502  503 -0.00000000000E+00 -0.00000000000E+00 -0.18653077537E+00  0.18653077537E+00  0.00000000000E+00 0. -1.
          5    1    1    2  501    0  0.13183691031E+00  0.31847653315E+00  0.50114699291E+03  0.50116915040E+03  0.47000000000E+01 0. -1.
         -5    1    1    2    0  503 -0.13183691031E+00 -0.31847653315E+00  0.31469676444E+02  0.31820580506E+02  0.47000000000E+01 0. -1.
<mgrwt>
<rscale>  2 0.47126222E+01</rscale>
<asrwt>0</asrwt>
<pdfrwt beam="1">  1       21 0.81968505E-01 0.47126222E+01</pdfrwt>
<pdfrwt beam="2">  1       21 0.28697469E-04 0.47126222E+01</pdfrwt>
<totfact> 0.32367949E+08</totfact>
</mgrwt>
</event>
<event>
 4    1  0.3858687E+006  0.5404900E+01  0.7546771E-02  0.2499976E+00
         21   -1    0    0  501  502  0.00000000000E+00  0.00000000000E+00  0.16252487130E+02  0.16252487130E+02  0.00000000000E+00 0. -1.
         21   -1    0    0  502  503 -0.00000000000E+00 -0.00000000000E+00 -0.19031028142E+01  0.19031028142E+01  0.00000000000E+00 0.  1.
          5    1    1    2  501    0  0.26507063883E+01 -0.31096028085E+00  0.93136462114E+01  0.10768330716E+02  0.47000000000E+01 0.  1.
         -5    1    1    2    0  503 -0.26507063883E+01  0.31096028085E+00  0.50357381047E+01  0.73872592287E+01  0.47000000000E+01 0.  1.
<mgrwt>
<rscale>  2 0.54048997E+01</rscale>
<asrwt>0</asrwt>
<pdfrwt beam="1">  1       21 0.25003825E-02 0.54048997E+01</pdfrwt>
<pdfrwt beam="2">  1       21 0.29278506E-03 0.54048997E+01</pdfrwt>
<totfact> 0.42749264E+09</totfact>
</mgrwt>
</event>
<event>
 4    1  0.3858687E+006  0.5180624E+01  0.7546771E-02  0.2536075E+00
         21   -1    0    0  501  502  0.00000000000E+00  0.00000000000E+00  0.10272353551E+03  0.10272353551E+03  0.00000000000E+00 0.  1.
         21   -1    0    0  502  503 -0.00000000000E+00 -0.00000000000E+00 -0.38618675549E+00  0.38618675549E+00  0.00000000000E+00 0.  1.
          5    1    1    2  501    0  0.21497673515E+01 -0.35688164543E+00  0.80489516586E+02  0.80656067003E+02  0.47000000000E+01 0.  1.
         -5    1    1    2    0  503 -0.21497673515E+01  0.35688164543E+00  0.21847832168E+02  0.22453655262E+02  0.47000000000E+01 0.  1.
<mgrwt>
<rscale>  2 0.51806239E+01</rscale>
<asrwt>0</asrwt>
<pdfrwt beam="1">  1       21 0.15803599E-01 0.51806239E+01</pdfrwt>
<pdfrwt beam="2">  1       21 0.59413429E-04 0.51806239E+01</pdfrwt>
<totfact> 0.22389638E+09</totfact>
</mgrwt>
</event>
<event>
 4    1  0.3858687E+006  0.5023264E+01  0.7546771E-02  0.2563043E+00
         21   -1    0    0  503  502  0.00000000000E+00  0.00000000000E+00  0.85279611936E+02  0.85279611936E+02  0.00000000000E+00 0. -1.
         21   -1    0    0  501  503 -0.00000000000E+00 -0.00000000000E+00 -0.64411048182E+00  0.64411048182E+00  0.00000000000E+00 0.  1.
          5    1    1    2  501    0  0.12530792687E+01 -0.12541841344E+01  0.10729068080E+02  0.11846775400E+02  0.47000000000E+01 0.  1.
         -5    1    1    2    0  502 -0.12530792687E+01  0.12541841344E+01  0.73906433374E+02  0.74076947018E+02  0.47000000000E+01 0. -1.
<mgrwt>
<rscale>  2 0.50232644E+01</rscale>
<asrwt>0</asrwt>
<pdfrwt beam="1">  1       21 0.13119931E-01 0.50232644E+01</pdfrwt>
<pdfrwt beam="2">  1       21 0.99093988E-04 0.50232644E+01</pdfrwt>
<totfact> 0.14721952E+09</totfact>
</mgrwt>
</event>
<event>
 4    1  0.3858687E+006  0.4842215E+01  0.7546771E-02  0.2595930E+00
         21   -1    0    0  503  502  0.00000000000E+00  0.00000000000E+00  0.29624783366E+00  0.29624783366E+00  0.00000000000E+00 0. -1.
         21   -1    0    0  501  503 -0.00000000000E+00 -0.00000000000E+00 -0.11320623457E+03  0.11320623457E+03  0.00000000000E+00 0. -1.
          5    1    1    2  501    0 -0.10220280844E+01 -0.55901843244E+00 -0.87583583227E+02  0.87717336336E+02  0.47000000000E+01 0. -1.
         -5    1    1    2    0  502  0.10220280844E+01  0.55901843244E+00 -0.25326403513E+02  0.25785146072E+02  0.47000000000E+01 0. -1.
<mgrwt>
<rscale>  2 0.48422147E+01</rscale>
<asrwt>0</asrwt>
<pdfrwt beam="1">  1       21 0.45576681E-04 0.48422147E+01</pdfrwt>
<pdfrwt beam="2">  1       21 0.17416309E-01 0.48422147E+01</pdfrwt>
<totfact> 0.25607781E+09</totfact>
</mgrwt>
</event>
<event>
 4    1  0.3858687E+006  0.5339877E+01  0.7546771E-02  0.2510175E+00
         21   -1    0    0  501  502  0.00000000000E+00  0.00000000000E+00  0.62801472078E+00  0.62801472078E+00  0.00000000000E+00 0.  1.
         21   -1    0    0  502  503 -0.00000000000E+00 -0.00000000000E+00 -0.51166248438E+02  0.51166248438E+02  0.00000000000E+00 0.  1.
          5    1    1    2  501    0 -0.23918711073E+01  0.83859267959E+00 -0.16578280271E+02  0.17417050893E+02  0.47000000000E+01 0.  1.
         -5    1    1    2    0  503  0.23918711073E+01 -0.83859267959E+00 -0.33959953446E+02  0.34377212265E+02  0.47000000000E+01 0.  1.
<mgrwt>
<rscale>  2 0.53398769E+01</rscale>
<asrwt>0</asrwt>
<pdfrwt beam="1">  1       21 0.96617653E-04 0.53398769E+01</pdfrwt>
<pdfrwt beam="2">  1       21 0.78717303E-02 0.53398769E+01</pdfrwt>
<totfact> 0.35073987E+09</totfact>
</mgrwt>
</event>
<event>
 4    1  0.3858687E+006  0.4887356E+01  0.7546771E-02  0.2587533E+00
         21   -1    0    0  501  502  0.00000000000E+00  0.00000000000E+00  0.32416721834E+03  0.32416721834E+03  0.00000000000E+00 0. -1.
         21   -1    0    0  502  503 -0.00000000000E+00 -0.00000000000E+00 -0.75130395633E-01  0.75130395633E-01  0.00000000000E+00 0. -1.
          5    1    1    2  501    0 -0.12911046803E+01 -0.35958310741E+00  0.18453296469E+03  0.18459767417E+03  0.47000000000E+01 0.  1.
         -5    1    1    2    0  503  0.12911046803E+01  0.35958310741E+00  0.13955912326E+03  0.13964467457E+03  0.47000000000E+01 0.  1.
<mgrwt>
<rscale>  2 0.48873563E+01</rscale>
<asrwt>0</asrwt>
<pdfrwt beam="1">  1       21 0.49870760E-01 0.48873563E+01</pdfrwt>
<pdfrwt beam="2">  1       21 0.11558782E-04 0.48873563E+01</pdfrwt>
<totfact> 0.27725137E+09</totfact>
</mgrwt>
</event>
<event>
 4    1  0.3858687E+006  0.8910958E+01  0.7546771E-02  0.2142838E+00
         21   -1    0    0  503  502  0.00000000000E+00  0.00000000000E+00  0.17351647105E+01  0.17351647105E+01  0.00000000000E+00 0. -1.
         21   -1    0    0  501  503 -0.00000000000E+00 -0.00000000000E+00 -0.45767439288E+02  0.45767439288E+02  0.00000000000E+00 0.  1.
          5    1    1    2  501    0  0.70235056664E+01  0.28258689061E+01 -0.21764999816E+02  0.23518511516E+02  0.47000000000E+01 0. -1.
         -5    1    1    2    0  502 -0.70235056664E+01 -0.28258689061E+01 -0.22267274761E+02  0.23984092483E+02  0.47000000000E+01 0.  1.
<mgrwt>
<rscale>  2 0.89109577E+01</rscale>
<asrwt>0</asrwt>
<pdfrwt beam="1">  1       21 0.26694844E-03 0.89109577E+01</pdfrwt>
<pdfrwt beam="2">  1       21 0.70411440E-02 0.89109577E+01</pdfrwt>
<totfact> 0.15466353E+09</totfact>
</mgrwt>
</event>
<event>
 4    1  0.3858687E+006  0.6331964E+01  0.7546771E-02  0.2374122E+00
         21   -1    0    0  501  502  0.00000000000E+00  0.00000000000E+00  0.27443693121E+03  0.27443693121E+03  0.00000000000E+00 0. -1.
         21   -1    0    0  502  503 -0.00000000000E+00 -0.00000000000E+00 -0.14651289791E+00  0.14651289791E+00  0.00000000000E+00 0. -1.
          5    1    1    2  501    0  0.36313584810E+01  0.21947665657E+01  0.12980973061E+03  0.12996407167E+03  0.47000000000E+01 0. -1.
         -5    1    1    2    0  503 -0.36313584810E+01 -0.21947665657E+01  0.14448068770E+03  0.14461937243E+03  0.47000000000E+01 0. -1.
<mgrwt>
<rscale>  2 0.63319637E+01</rscale>
<asrwt>0</asrwt>
<pdfrwt beam="1">  1       21 0.42220655E-01 0.63319637E+01</pdfrwt>
<pdfrwt beam="2">  1       21 0.22540665E-04 0.63319637E+01</pdfrwt>
<totfact> 0.18925763E+09</totfact>
</mgrwt>
</event>
<event>
 4    1  0.3858687E+006  0.5601097E+01  0.7546771E-02  0.2470426E+00
         21   -1    0    0  503  502  0.00000000000E+00  0.00000000000E+00  0.22923351214E+02  0.22923351214E+02  0.00000000000E+00 0.  1.
         21   -1    0    0  501  503 -0.00000000000E+00 -0.00000000000E+00 -0.13981101208E+01  0.13981101208E+01  0.00000000000E+00 0.  1.
          5    1    1    2  501    0 -0.29885860894E+01  0.59215064097E+00  0.89950776455E+01  0.10596400853E+02  0.47000000000E+01 0.  1.
         -5    1    1    2    0  502  0.29885860894E+01 -0.59215064097E+00  0.12530163447E+02  0.13725060481E+02  0.47000000000E+01 0.  1.
<mgrwt>
<rscale>  2 0.56010971E+01</rscale>
<asrwt>0</asrwt>
<pdfrwt beam="1">  1       21 0.35266692E-02 0.56010971E+01</pdfrwt>
<pdfrwt beam="2">  1       21 0.21509388E-03 0.56010971E+01</pdfrwt>
<totfact> 0.40933223E+09</totfact>
</mgrwt>
</event>
<event>
 4    1  0.3858687E+006  0.1469984E+02  0.7546771E-02  0.1877369E+00
         21   -1    0    0  503  502  0.00000000000E+00  0.00000000000E+00  0.46976575048E+00  0.46976575048E+00  0.00000000000E+00 0. -1.
         21   -1    0    0  501  503 -0.00000000000E+00 -0.00000000000E+00 -0.94993477674E+03  0.94993477674E+03  0.00000000000E+00 0.  1.
          5    1    1    2  501    0 -0.13657155032E+02 -0.27344822744E+01 -0.81600974276E+03  0.81614213563E+03  0.47000000000E+01 0.  1.
         -5    1    1    2    0  502  0.13657155032E+02  0.27344822744E+01 -0.13345526824E+03  0.13426240687E+03  0.47000000000E+01 0. -1.
<mgrwt>
<rscale>  2 0.14699839E+02</rscale>
<asrwt>0</asrwt>
<pdfrwt beam="1">  1       21 0.72272766E-04 0.14699839E+02</pdfrwt>
<pdfrwt beam="2">  1       21 0.14614156E+00 0.14699839E+02</pdfrwt>
<totfact> 0.47970632E+07</totfact>
</mgrwt>
</event>
<event>
 4    1  0.3858687E+006  0.5167904E+01  0.7546771E-02  0.2538203E+00
         21   -1    0    0  503  502  0.00000000000E+00  0.00000000000E+00  0.19883838992E+02  0.19883838992E+02  0.00000000000E+00 0. -1.
         21   -1    0    0  501  503 -0.00000000000E+00 -0.00000000000E+00 -0.20196067374E+01  0.20196067374E+01  0.00000000000E+00 0. -1.
          5    1    1    2  501    0  0.17922073643E+01 -0.11854219841E+01  0.25939305652E+01  0.57823618266E+01  0.47000000000E+01 0. -1.
         -5    1    1    2    0  502 -0.17922073643E+01  0.11854219841E+01  0.15270301690E+02  0.16121083903E+02  0.47000000000E+01 0. -1.
<mgrwt>
<rscale>  2 0.51679041E+01</rscale>
<asrwt>0</asrwt>
<pdfrwt beam="1">  1       21 0.30590520E-02 0.51679041E+01</pdfrwt>
<pdfrwt beam="2">  1       21 0.31070874E-03 0.51679041E+01</pdfrwt>
<totfact> 0.28211402E+09</totfact>
</mgrwt>
</event>
<event>
 4    1  0.3858687E+006  0.6223152E+01  0.7546771E-02  0.2387254E+00
         21   -1    0    0  501  502  0.00000000000E+00  0.00000000000E+00  0.12229691670E+02  0.12229691670E+02  0.00000000000E+00 0.  1.
         21   -1    0    0  502  503 -0.00000000000E+00 -0.00000000000E+00 -0.32042436337E+01  0.32042436337E+01  0.00000000000E+00 0.  1.
          5    1    1    2  501    0 -0.65811846529E+00 -0.40254816963E+01  0.53481714402E+01  0.82055201271E+01  0.47000000000E+01 0.  1.
         -5    1    1    2    0  503  0.65811846529E+00  0.40254816963E+01  0.36772765961E+01  0.72284151767E+01  0.47000000000E+01 0.  1.
<mgrwt>
<rscale>  2 0.62231522E+01</rscale>
<asrwt>0</asrwt>
<pdfrwt beam="1">  1       21 0.18814910E-02 0.62231522E+01</pdfrwt>
<pdfrwt beam="2">  1       21 0.49296057E-03 0.62231522E+01</pdfrwt>
<totfact> 0.35717560E+09</totfact>
</mgrwt>
</event>
<event>
 4    1  0.3858687E+006  0.4868572E+01  0.7546771E-02  0.2591011E+00
         21   -1    0    0  503  502  0.00000000000E+00  0.00000000000E+00  0.29650324151E+00  0.29650324151E+00  0.00000000000E+00 0. -1.
         21   -1    0    0  501  503 -0.00000000000E+00 -0.00000000000E+00 -0.12688583562E+03  0.12688583562E+03  0.00000000000E+00 0. -1.
          5    1    1    2  501    0  0.65785296658E+00 -0.10863814809E+01 -0.10197414101E+03  0.10209029547E+03  0.47000000000E+01 0. -1.
         -5    1    1    2    0  502 -0.65785296658E+00  0.10863814809E+01 -0.24615191364E+02  0.25092043383E+02  0.47000000000E+01 0. -1.
<mgrwt>
<rscale>  2 0.48685722E+01</rscale>
<asrwt>0</asrwt>
<pdfrwt beam="1">  1       21 0.45615967E-04 0.48685722E+01</pdfrwt>
<pdfrwt beam="2">  1       21 0.19520862E-01 0.48685722E+01</pdfrwt>
<totfact> 0.21482853E+09</totfact>
</mgrwt>
</event>
<event>
 4    1  0.3858687E+006  0.1373536E+02  0.7546771E-02  0.1909305E+00
         21   -1    0    0  503  502  0.00000000000E+00  0.00000000000E+00  0.14154889294E+01  0.14154889294E+01  0.00000000000E+00 0. -1.
         21   -1    0    0  501  503 -0.00000000000E+00 -0.00000000000E+00 -0.13338157427E+03  0.13338157427E+03  0.00000000000E+00 0.  1.
          5    1    1    2  501    0  0.82303252183E+01  0.99414195130E+01 -0.67818805687E+02  0.69195740331E+02  0.47000000000E+01 0. -1.
         -5    1    1    2    0  502 -0.82303252183E+01 -0.99414195130E+01 -0.64147279653E+02  0.65601322868E+02  0.47000000000E+01 0.  1.
<mgrwt>
<rscale>  2 0.13735359E+02</rscale>
<asrwt>0</asrwt>
<pdfrwt beam="1">  1       21 0.21776763E-03 0.13735359E+02</pdfrwt>
<pdfrwt beam="2">  1       21 0.20520233E-01 0.13735359E+02</pdfrwt>
<totfact> 0.45811569E+08</totfact>
</mgrwt>
</event>
<event>
 4    1  0.3858687E+006  0.9322075E+01  0.7546771E-02  0.2115755E+00
         21   -1    0    0  503  502  0.00000000000E+00  0.00000000000E+00  0.67685956252E+02  0.67685956252E+02  0.00000000000E+00 0. -1.
         21   -1    0    0  501  503 -0.00000000000E+00 -0.00000000000E+00 -0.14646911856E+01  0.14646911856E+01  0.00000000000E+00 0.  1.
          5    1    1    2  501    0  0.60176916730E+01  0.53477540463E+01  0.20962821016E+02  0.22942121771E+02  0.47000000000E+01 0. -1.
         -5    1    1    2    0  502 -0.60176916730E+01 -0.53477540463E+01  0.45258444051E+02  0.46208525667E+02  0.47000000000E+01 0.  1.
<mgrwt>
<rscale>  2 0.93220752E+01</rscale>
<asrwt>0</asrwt>
<pdfrwt beam="1">  1       21 0.10413222E-01 0.93220752E+01</pdfrwt>
<pdfrwt beam="2">  1       21 0.22533716E-03 0.93220752E+01</pdfrwt>
<totfact> 0.10927354E+09</totfact>
</mgrwt>
</event>
<event>
 4    1  0.3858687E+006  0.8489688E+01  0.7546771E-02  0.2172733E+00
         21   -1    0    0  503  502  0.00000000000E+00  0.00000000000E+00  0.87045054932E+00  0.87045054932E+00  0.00000000000E+00 0. -1.
         21   -1    0    0  501  503 -0.00000000000E+00 -0.00000000000E+00 -0.14148847815E+03  0.14148847815E+03  0.00000000000E+00 0. -1.
          5    1    1    2  501    0 -0.70576628425E+01  0.41736966603E+00 -0.11615108586E+03  0.11646093572E+03  0.47000000000E+01 0. -1.
         -5    1    1    2    0  502  0.70576628425E+01 -0.41736966603E+00 -0.24466941742E+02  0.25897992981E+02  0.47000000000E+01 0. -1.
<mgrwt>
<rscale>  2 0.84896880E+01</rscale>
<asrwt>0</asrwt>
<pdfrwt beam="1">  1       21 0.13391564E-03 0.84896880E+01</pdfrwt>
<pdfrwt beam="2">  1       21 0.21767431E-01 0.84896880E+01</pdfrwt>
<totfact> 0.64228974E+08</totfact>
</mgrwt>
</event>
<event>
 4    1  0.3858687E+006  0.6502134E+01  0.7546771E-02  0.2354318E+00
         21   -1    0    0  503  502  0.00000000000E+00  0.00000000000E+00  0.24777761008E+02  0.24777761008E+02  0.00000000000E+00 0.  1.
         21   -1    0    0  501  503 -0.00000000000E+00 -0.00000000000E+00 -0.84197977461E+01  0.84197977461E+01  0.00000000000E+00 0.  1.
          5    1    1    2  501    0  0.23500320380E+00 -0.44869269812E+01 -0.66428019943E+01  0.92954052400E+01  0.47000000000E+01 0.  1.
         -5    1    1    2    0  502 -0.23500320380E+00  0.44869269812E+01  0.23000765256E+02  0.23902153514E+02  0.47000000000E+01 0.  1.
<mgrwt>
<rscale>  2 0.65021335E+01</rscale>
<asrwt>0</asrwt>
<pdfrwt beam="1">  1       21 0.38119632E-02 0.65021335E+01</pdfrwt>
<pdfrwt beam="2">  1       21 0.12953535E-02 0.65021335E+01</pdfrwt>
<totfact> 0.33951223E+08</totfact>
</mgrwt>
</event>
<event>
 4    1  0.3858687E+006  0.6973498E+01  0.7546771E-02  0.2303674E+00
         21   -1    0    0  501  502  0.00000000000E+00  0.00000000000E+00  0.78618941219E+01  0.78618941219E+01  0.00000000000E+00 0.  1.
         21   -1    0    0  502  503 -0.00000000000E+00 -0.00000000000E+00 -0.80351231975E+01  0.80351231975E+01  0.00000000000E+00 0. -1.
          5    1    1    2  501    0 -0.14344310233E+01 -0.49479373756E+01  0.37269583448E+01  0.79069523292E+01  0.47000000000E+01 0.  1.
         -5    1    1    2    0  503  0.14344310233E+01  0.49479373756E+01 -0.39001874204E+01  0.79900649902E+01  0.47000000000E+01 0. -1.
<mgrwt>
<rscale>  2 0.69734982E+01</rscale>
<asrwt>0</asrwt>
<pdfrwt beam="1">  1       21 0.12095222E-02 0.69734982E+01</pdfrwt>
<pdfrwt beam="2">  1       21 0.12361728E-02 0.69734982E+01</pdfrwt>
<totfact> 0.20205558E+09</totfact>
</mgrwt>
</event>
<event>
 4    1  0.3858687E+006  0.4979080E+01  0.7546771E-02  0.2570878E+00
         21   -1    0    0  503  502  0.00000000000E+00  0.00000000000E+00  0.51893852414E+01  0.51893852414E+01  0.00000000000E+00 0. -1.
         21   -1    0    0  501  503 -0.00000000000E+00 -0.00000000000E+00 -0.71737496737E+01  0.71737496737E+01  0.00000000000E+00 0. -1.
          5    1    1    2  501    0 -0.13170043335E+01 -0.98322776370E+00 -0.45649919184E+01  0.67550269033E+01  0.47000000000E+01 0. -1.
         -5    1    1    2    0  502  0.13170043335E+01  0.98322776370E+00  0.25806274861E+01  0.56081080118E+01  0.47000000000E+01 0. -1.
<mgrwt>
<rscale>  2 0.49790800E+01</rscale>
<asrwt>0</asrwt>
<pdfrwt beam="1">  1       21 0.79836696E-03 0.49790800E+01</pdfrwt>
<pdfrwt beam="2">  1       21 0.11036538E-02 0.49790800E+01</pdfrwt>
<totfact> 0.31477621E+09</totfact>
</mgrwt>
</event>
<event>
 4    1  0.3858687E+006  0.1095244E+02  0.7546771E-02  0.2024518E+00
         21   -1    0    0  501  502  0.00000000000E+00  0.00000000000E+00  0.33012636204E+01  0.33012636204E+01  0.00000000000E+00 0. -1.
         21   -1    0    0  502  503 -0.00000000000E+00 -0.00000000000E+00 -0.47301446176E+02  0.47301446176E+02  0.00000000000E+00 0.  1.
          5    1    1    2  501    0  0.92816122938E+01  0.34230977007E+01 -0.98182632010E+01  0.14708984225E+02  0.47000000000E+01 0.  1.
         -5    1    1    2    0  503 -0.92816122938E+01 -0.34230977007E+01 -0.34181919354E+02  0.35893725571E+02  0.47000000000E+01 0. -1.
<mgrwt>
<rscale>  2 0.10952439E+02</rscale>
<asrwt>0</asrwt>
<pdfrwt beam="1">  1       21 0.50788678E-03 0.10952439E+02</pdfrwt>
<pdfrwt beam="2">  1       21 0.72771446E-02 0.10952439E+02</pdfrwt>
<totfact> 0.66600324E+08</totfact>
</mgrwt>
</event>
<event>
 4    1  0.3858687E+006  0.5195160E+01  0.7546771E-02  0.2533655E+00
         21   -1    0    0  503  502  0.00000000000E+00  0.00000000000E+00  0.27881893373E+02  0.27881893373E+02  0.00000000000E+00 0. -1.
         21   -1    0    0  501  503 -0.00000000000E+00 -0.00000000000E+00 -0.97807296453E+00  0.97807296453E+00  0.00000000000E+00 0. -1.
          5    1    1    2  501    0 -0.11049925887E+01 -0.19179878864E+01  0.14916272416E+02  0.15795090026E+02  0.47000000000E+01 0. -1.
         -5    1    1    2    0  502  0.11049925887E+01  0.19179878864E+01  0.11987547993E+02  0.13064876311E+02  0.47000000000E+01 0. -1.
<mgrwt>
<rscale>  2 0.51951599E+01</rscale>
<asrwt>0</asrwt>
<pdfrwt beam="1">  1       21 0.42895214E-02 0.51951599E+01</pdfrwt>
<pdfrwt beam="2">  1       21 0.15047279E-03 0.51951599E+01</pdfrwt>
<totfact> 0.46296176E+09</totfact>
</mgrwt>
</event>
<event>
 4    1  0.3858687E+006  0.5877057E+01  0.7546771E-02  0.2431705E+00
         21   -1    0    0  501  502  0.00000000000E+00  0.00000000000E+00  0.12499213911E+01  0.12499213911E+01  0.00000000000E+00 0.  1.
         21   -1    0    0  502  503 -0.00000000000E+00 -0.00000000000E+00 -0.78995293776E+02  0.78995293776E+02  0.00000000000E+00 0.  1.
          5    1    1    2  501    0  0.12272714073E+01  0.33081122245E+01 -0.65201525089E+01  0.87779377041E+01  0.47000000000E+01 0.  1.
         -5    1    1    2    0  503 -0.12272714073E+01 -0.33081122245E+01 -0.71225219876E+02  0.71467277463E+02  0.47000000000E+01 0.  1.
<mgrwt>
<rscale>  2 0.58770572E+01</rscale>
<asrwt>0</asrwt>
<pdfrwt beam="1">  1       21 0.19229561E-03 0.58770572E+01</pdfrwt>
<pdfrwt beam="2">  1       21 0.12153122E-01 0.58770572E+01</pdfrwt>
<totfact> 0.77827937E+08</totfact>
</mgrwt>
</event>
<event>
 4    1  0.3858687E+006  0.5794591E+01  0.7546771E-02  0.2442950E+00
         21   -1    0    0  503  502  0.00000000000E+00  0.00000000000E+00  0.99068941432E+02  0.99068941432E+02  0.00000000000E+00 0. -1.
         21   -1    0    0  501  503 -0.00000000000E+00 -0.00000000000E+00 -0.81435220230E+00  0.81435220230E+00  0.00000000000E+00 0. -1.
          5    1    1    2  501    0 -0.30994675019E+01  0.13713437164E+01  0.10968279161E+02  0.12404855103E+02  0.47000000000E+01 0. -1.
         -5    1    1    2    0  502  0.30994675019E+01 -0.13713437164E+01  0.87286310069E+02  0.87478438531E+02  0.47000000000E+01 0. -1.
<mgrwt>
<rscale>  2 0.57945908E+01</rscale>
<asrwt>0</asrwt>
<pdfrwt beam="1">  1       21 0.15241366E-01 0.57945908E+01</pdfrwt>
<pdfrwt beam="2">  1       21 0.12528503E-03 0.57945908E+01</pdfrwt>
<totfact> 0.96404842E+08</totfact>
</mgrwt>
</event>
<event>
 4    1  0.3858687E+006  0.1098772E+02  0.7546771E-02  0.2022781E+00
         21   -1    0    0  501  502  0.00000000000E+00  0.00000000000E+00  0.50841608331E+01  0.50841608331E+01  0.00000000000E+00 0.  1.
         21   -1    0    0  502  503 -0.00000000000E+00 -0.00000000000E+00 -0.67979805136E+02  0.67979805136E+02  0.00000000000E+00 0. -1.
          5    1    1    2  501    0  0.13175658051E+01 -0.98439804421E+01 -0.19792535122E+01  0.11164558883E+02  0.47000000000E+01 0.  1.
         -5    1    1    2    0  503 -0.13175658051E+01  0.98439804421E+01 -0.60916390791E+02  0.61899407086E+02  0.47000000000E+01 0. -1.
<mgrwt>
<rscale>  2 0.10987717E+02</rscale>
<asrwt>0</asrwt>
<pdfrwt beam="1">  1       21 0.78217861E-03 0.10987717E+02</pdfrwt>
<pdfrwt beam="2">  1       21 0.10458431E-01 0.10987717E+02</pdfrwt>
<totfact> 0.20162991E+08</totfact>
</mgrwt>
</event>
<event>
 4    1  0.3858687E+006  0.7709150E+01  0.7546771E-02  0.2234932E+00
         21   -1    0    0  503  502  0.00000000000E+00  0.00000000000E+00  0.17791838849E+00  0.17791838849E+00  0.00000000000E+00 0. -1.
         21   -1    0    0  501  503 -0.00000000000E+00 -0.00000000000E+00 -0.16450862726E+04  0.16450862726E+04  0.00000000000E+00 0.  1.
          5    1    1    2  501    0 -0.60843408397E+01 -0.56726111787E+00 -0.15568346667E+04  0.15568537537E+04  0.47000000000E+01 0.  1.
         -5    1    1    2    0  502  0.60843408397E+01  0.56726111787E+00 -0.88073687464E+02  0.88410437236E+02  0.47000000000E+01 0. -1.
<mgrwt>
<rscale>  2 0.77091497E+01</rscale>
<asrwt>0</asrwt>
<pdfrwt beam="1">  1       21 0.27373444E-04 0.77091497E+01</pdfrwt>
<pdfrwt beam="2">  1       21 0.25307740E+00 0.77091497E+01</pdfrwt>
<totfact> 0.40486504E+07</totfact>
</mgrwt>
</event>
<event>
 4    1  0.3858687E+006  0.6687603E+01  0.7546771E-02  0.2333689E+00
         21   -1    0    0  503  502  0.00000000000E+00  0.00000000000E+00  0.12009718214E+03  0.12009718214E+03  0.00000000000E+00 0.  1.
         21   -1    0    0  501  503 -0.00000000000E+00 -0.00000000000E+00 -0.76311327424E+00  0.76311327424E+00  0.00000000000E+00 0. -1.
          5    1    1    2  501    0  0.42060979605E+01  0.22232356440E+01  0.16426709697E+02  0.17735862771E+02  0.47000000000E+01 0. -1.
         -5    1    1    2    0  502 -0.42060979605E+01 -0.22232356440E+01  0.10290735917E+03  0.10312443264E+03  0.47000000000E+01 0.  1.
<mgrwt>
<rscale>  2 0.66876032E+01</rscale>
<asrwt>0</asrwt>
<pdfrwt beam="1">  1       21 0.18476475E-01 0.66876032E+01</pdfrwt>
<pdfrwt beam="2">  1       21 0.11740214E-03 0.66876032E+01</pdfrwt>
<totfact> 0.86260981E+08</totfact>
</mgrwt>
</event>
<event>
 4    1  0.3858687E+006  0.7263688E+01  0.7546771E-02  0.2275204E+00
         21   -1    0    0  501  502  0.00000000000E+00  0.00000000000E+00  0.26509773972E+01  0.26509773972E+01  0.00000000000E+00 0. -1.
         21   -1    0    0  502  503 -0.00000000000E+00 -0.00000000000E+00 -0.25442040383E+02  0.25442040383E+02  0.00000000000E+00 0. -1.
          5    1    1    2  501    0  0.45130784010E+01 -0.32098722568E+01 -0.48412041267E+01  0.87291702902E+01  0.47000000000E+01 0. -1.
         -5    1    1    2    0  503 -0.45130784010E+01  0.32098722568E+01 -0.17949858859E+02  0.19363847490E+02  0.47000000000E+01 0. -1.
<mgrwt>
<rscale>  2 0.72636875E+01</rscale>
<asrwt>0</asrwt>
<pdfrwt beam="1">  1       21 0.40784269E-03 0.72636875E+01</pdfrwt>
<pdfrwt beam="2">  1       21 0.39141599E-02 0.72636875E+01</pdfrwt>
<totfact> 0.18078206E+09</totfact>
</mgrwt>
</event>
<event>
 4    1  0.3858687E+006  0.5145209E+01  0.7546771E-02  0.2542021E+00
         21   -1    0    0  503  502  0.00000000000E+00  0.00000000000E+00  0.71747369527E-01  0.71747369527E-01  0.00000000000E+00 0.  1.
         21   -1    0    0  501  503 -0.00000000000E+00 -0.00000000000E+00 -0.37875817218E+03  0.37875817218E+03  0.00000000000E+00 0. -1.
          5    1    1    2  501    0 -0.11183304851E-01 -0.20935744241E+01 -0.21978101678E+03  0.21984123479E+03  0.47000000000E+01 0. -1.
         -5    1    1    2    0  502  0.11183304851E-01  0.20935744241E+01 -0.15890540803E+03  0.15898868476E+03  0.47000000000E+01 0.  1.
<mgrwt>
<rscale>  2 0.51452093E+01</rscale>
<asrwt>0</asrwt>
<pdfrwt beam="1">  1       21 0.11038295E-04 0.51452093E+01</pdfrwt>
<pdfrwt beam="2">  1       21 0.58269232E-01 0.51452093E+01</pdfrwt>
<totfact> 0.23304053E+09</totfact>
</mgrwt>
</event>
<event>
 4    1  0.3858687E+006  0.5469900E+01  0.7546771E-02  0.2489987E+00
         21   -1    0    0  503  502  0.00000000000E+00  0.00000000000E+00  0.38998899130E+02  0.38998899130E+02  0.00000000000E+00 0.  1.
         21   -1    0    0  501  503 -0.00000000000E+00 -0.00000000000E+00 -0.47461385294E+01  0.47461385294E+01  0.00000000000E+00 0.  1.
          5    1    1    2  501    0 -0.12850213650E+01  0.24856633264E+01 -0.29004594840E+01  0.61913219347E+01  0.47000000000E+01 0.  1.
         -5    1    1    2    0  502  0.12850213650E+01 -0.24856633264E+01  0.37153220085E+02  0.37553715725E+02  0.47000000000E+01 0.  1.
<mgrwt>
<rscale>  2 0.54698996E+01</rscale>
<asrwt>0</asrwt>
<pdfrwt beam="1">  1       21 0.59998304E-02 0.54698996E+01</pdfrwt>
<pdfrwt beam="2">  1       21 0.73017519E-03 0.54698996E+01</pdfrwt>
<totfact> 0.34229181E+08</totfact>
</mgrwt>
</event>
<event>
 4    1  0.3858687E+006  0.5435854E+01  0.7546771E-02  0.2495194E+00
         21   -1    0    0  503  502  0.00000000000E+00  0.00000000000E+00  0.11853620932E+01  0.11853620932E+01  0.00000000000E+00 0.  1.
         21   -1    0    0  501  503 -0.00000000000E+00 -0.00000000000E+00 -0.25167854185E+02  0.25167854185E+02  0.00000000000E+00 0. -1.
          5    1    1    2  501    0 -0.25850520978E+01 -0.88091939339E+00 -0.13278017717E+02  0.14347622375E+02  0.47000000000E+01 0. -1.
         -5    1    1    2    0  502  0.25850520978E+01  0.88091939339E+00 -0.10704474375E+02  0.12005593903E+02  0.47000000000E+01 0. -1.
<mgrwt>
<rscale>  2 0.54358544E+01</rscale>
<asrwt>0</asrwt>
<pdfrwt beam="1">  1       21 0.18236341E-03 0.54358544E+01</pdfrwt>
<pdfrwt beam="2">  1       21 0.38719774E-02 0.54358544E+01</pdfrwt>
<totfact> 0.43429440E+09</totfact>
</mgrwt>
</event>
<event>
 4    1  0.3858687E+006  0.5712599E+01  0.7546771E-02  0.2454401E+00
         21   -1    0    0  503  502  0.00000000000E+00  0.00000000000E+00  0.45187558381E+02  0.45187558381E+02  0.00000000000E+00 0. -1.
         21   -1    0    0  501  503 -0.00000000000E+00 -0.00000000000E+00 -0.72700843844E+00  0.72700843844E+00  0.00000000000E+00 0.  1.
          5    1    1    2  501    0  0.27860712126E+01 -0.16678125652E+01  0.20360391731E+02  0.21146615403E+02  0.47000000000E+01 0.  1.
         -5    1    1    2    0  502 -0.27860712126E+01  0.16678125652E+01  0.24100158212E+02  0.24767951417E+02  0.47000000000E+01 0. -1.
<mgrwt>
<rscale>  2 0.57125994E+01</rscale>
<asrwt>0</asrwt>
<pdfrwt beam="1">  1       21 0.69519298E-02 0.57125994E+01</pdfrwt>
<pdfrwt beam="2">  1       21 0.11184749E-03 0.57125994E+01</pdfrwt>
<totfact> 0.36990998E+09</totfact>
</mgrwt>
</event>
<event>
 4    1  0.3858687E+006  0.5317571E+01  0.7546771E-02  0.2513723E+00
         21   -1    0    0  503  502  0.00000000000E+00  0.00000000000E+00  0.76231264666E-01  0.76231264666E-01  0.00000000000E+00 0.  1.
         21   -1    0    0  501  503 -0.00000000000E+00 -0.00000000000E+00 -0.97403319136E+03  0.97403319136E+03  0.00000000000E+00 0. -1.
          5    1    1    2  501    0 -0.31428227462E+00  0.24673436013E+01 -0.87023207398E+03  0.87024832039E+03  0.47000000000E+01 0. -1.
         -5    1    1    2    0  502  0.31428227462E+00 -0.24673436013E+01 -0.10372488611E+03  0.10386110223E+03  0.47000000000E+01 0.  1.
<mgrwt>
<rscale>  2 0.53175707E+01</rscale>
<asrwt>0</asrwt>
<pdfrwt beam="1">  1       21 0.11729018E-04 0.53175707E+01</pdfrwt>
<pdfrwt beam="2">  1       21 0.14983680E+00 0.53175707E+01</pdfrwt>
<totfact> 0.34028141E+08</totfact>
</mgrwt>
</event>
<event>
 4    1  0.3858687E+006  0.7760695E+01  0.7546771E-02  0.2230515E+00
         21   -1    0    0  501  502  0.00000000000E+00  0.00000000000E+00  0.15158737233E+02  0.15158737233E+02  0.00000000000E+00 0.  1.
         21   -1    0    0  502  503 -0.00000000000E+00 -0.00000000000E+00 -0.40227393584E+01  0.40227393584E+01  0.00000000000E+00 0.  1.
          5    1    1    2  501    0  0.39611952635E+01 -0.47378593722E+01  0.66325278785E+01  0.10208761208E+02  0.47000000000E+01 0.  1.
         -5    1    1    2    0  503 -0.39611952635E+01  0.47378593722E+01  0.45034699966E+01  0.89727153837E+01  0.47000000000E+01 0.  1.
<mgrwt>
<rscale>  2 0.77606945E+01</rscale>
<asrwt>0</asrwt>
<pdfrwt beam="1">  1       21 0.23321134E-02 0.77606945E+01</pdfrwt>
<pdfrwt beam="2">  1       21 0.61888299E-03 0.77606945E+01</pdfrwt>
<totfact> 0.22681685E+09</totfact>
</mgrwt>
</event>
<event>
 4    1  0.3858687E+006  0.8861308E+01  0.7546771E-02  0.2146244E+00
         21   -1    0    0  501  502  0.00000000000E+00  0.00000000000E+00  0.23186454411E+02  0.23186454411E+02  0.00000000000E+00 0.  1.
         21   -1    0    0  502  503 -0.00000000000E+00 -0.00000000000E+00 -0.38081699516E+01  0.38081699516E+01  0.00000000000E+00 0. -1.
          5    1    1    2  501    0  0.64640706384E+01  0.38273449372E+01  0.51982322179E+01  0.10273480261E+02  0.47000000000E+01 0.  1.
         -5    1    1    2    0  503 -0.64640706384E+01 -0.38273449372E+01  0.14180052241E+02  0.16721144101E+02  0.47000000000E+01 0. -1.
<mgrwt>
<rscale>  2 0.88613079E+01</rscale>
<asrwt>0</asrwt>
<pdfrwt beam="1">  1       21 0.35671468E-02 0.88613079E+01</pdfrwt>
<pdfrwt beam="2">  1       21 0.58587231E-03 0.88613079E+01</pdfrwt>
<totfact> 0.14299094E+09</totfact>
</mgrwt>
</event>
<event>
 4    1  0.3858687E+006  0.6071457E+01  0.7546771E-02  0.2406215E+00
         21   -1    0    0  501  502  0.00000000000E+00  0.00000000000E+00  0.24958583425E+02  0.24958583425E+02  0.00000000000E+00 0.  1.
         21   -1    0    0  502  503 -0.00000000000E+00 -0.00000000000E+00 -0.14985339320E+01  0.14985339320E+01  0.00000000000E+00 0.  1.
          5    1    1    2  501    0  0.20366346463E+01  0.32595562573E+01  0.10142423833E+02  0.11820801534E+02  0.47000000000E+01 0.  1.
         -5    1    1    2    0  503 -0.20366346463E+01 -0.32595562573E+01  0.13317625659E+02  0.14636315823E+02  0.47000000000E+01 0.  1.
<mgrwt>
<rscale>  2 0.60714568E+01</rscale>
<asrwt>0</asrwt>
<pdfrwt beam="1">  1       21 0.38397818E-02 0.60714568E+01</pdfrwt>
<pdfrwt beam="2">  1       21 0.23054370E-03 0.60714568E+01</pdfrwt>
<totfact> 0.35384920E+09</totfact>
</mgrwt>
</event>
<event>
 4    1  0.3858687E+006  0.5741798E+01  0.7546771E-02  0.2450291E+00
         21   -1    0    0  503  502  0.00000000000E+00  0.00000000000E+00  0.46305394539E+00  0.46305394539E+00  0.00000000000E+00 0.  1.
         21   -1    0    0  501  503 -0.00000000000E+00 -0.00000000000E+00 -0.79412256312E+02  0.79412256312E+02  0.00000000000E+00 0.  1.
          5    1    1    2  501    0  0.31293725029E+01 -0.10417665165E+01 -0.52319717806E+02  0.52633840075E+02  0.47000000000E+01 0.  1.
         -5    1    1    2    0  502 -0.31293725029E+01  0.10417665165E+01 -0.26629484560E+02  0.27241470182E+02  0.47000000000E+01 0.  1.
<mgrwt>
<rscale>  2 0.57417985E+01</rscale>
<asrwt>0</asrwt>
<pdfrwt beam="1">  1       21 0.71239021E-04 0.57417985E+01</pdfrwt>
<pdfrwt beam="2">  1       21 0.12217278E-01 0.57417985E+01</pdfrwt>
<totfact> 0.28801653E+09</totfact>
</mgrwt>
</event>
<event>
 4    1  0.3858687E+006  0.5177147E+01  0.7546771E-02  0.2536656E+00
         21   -1    0    0  501  502  0.00000000000E+00  0.00000000000E+00  0.80416966243E+00  0.80416966243E+00  0.00000000000E+00 0.  1.
         21   -1    0    0  502  503 -0.00000000000E+00 -0.00000000000E+00 -0.48498513897E+02  0.48498513897E+02  0.00000000000E+00 0. -1.
          5    1    1    2  501    0  0.13889719593E+01 -0.16684144447E+01 -0.10060797057E+02  0.11314702262E+02  0.47000000000E+01 0.  1.
         -5    1    1    2    0  503 -0.13889719593E+01  0.16684144447E+01 -0.37633547177E+02  0.37987981297E+02  0.47000000000E+01 0. -1.
<mgrwt>
<rscale>  2 0.51771469E+01</rscale>
<asrwt>0</asrwt>
<pdfrwt beam="1">  1       21 0.12371839E-03 0.51771469E+01</pdfrwt>
<pdfrwt beam="2">  1       21 0.74613112E-02 0.51771469E+01</pdfrwt>
<totfact> 0.26508934E+09</totfact>
</mgrwt>
</event>
<event>
 4    1  0.3858687E+006  0.5710095E+01  0.7546771E-02  0.2454755E+00
         21   -1    0    0  501  502  0.00000000000E+00  0.00000000000E+00  0.63825361680E+03  0.63825361680E+03  0.00000000000E+00 0.  1.
         21   -1    0    0  502  503 -0.00000000000E+00 -0.00000000000E+00 -0.52055161915E-01  0.52055161915E-01  0.00000000000E+00 0.  1.
          5    1    1    2  501    0  0.32204946014E+01  0.37894354161E+00  0.36267099900E+03  0.36271594767E+03  0.47000000000E+01 0.  1.
         -5    1    1    2    0  503 -0.32204946014E+01 -0.37894354161E+00  0.27553056264E+03  0.27558972429E+03  0.47000000000E+01 0.  1.
<mgrwt>
<rscale>  2 0.57100949E+01</rscale>
<asrwt>0</asrwt>
<pdfrwt beam="1">  1       21 0.98186597E-01 0.57100949E+01</pdfrwt>
<pdfrwt beam="2">  1       21 0.80089976E-05 0.57100949E+01</pdfrwt>
<totfact> 0.14278876E+09</totfact>
</mgrwt>
</event>
<event>
 4    1  0.3858687E+006  0.6523807E+01  0.7546771E-02  0.2351858E+00
         21   -1    0    0  503  502  0.00000000000E+00  0.00000000000E+00  0.30603317966E+03  0.30603317966E+03  0.00000000000E+00 0. -1.
         21   -1    0    0  501  503 -0.00000000000E+00 -0.00000000000E+00 -0.20932457280E+00  0.20932457280E+00  0.00000000000E+00 0.  1.
          5    1    1    2  501    0  0.36040118441E+01  0.27351700916E+01  0.64203999332E+02  0.64534592173E+02  0.47000000000E+01 0.  1.
         -5    1    1    2    0  502 -0.36040118441E+01 -0.27351700916E+01  0.24161985576E+03  0.24170791206E+03  0.47000000000E+01 0. -1.
<mgrwt>
<rscale>  2 0.65238069E+01</rscale>
<asrwt>0</asrwt>
<pdfrwt beam="1">  1       21 0.47081670E-01 0.65238069E+01</pdfrwt>
<pdfrwt beam="2">  1       21 0.32204025E-04 0.65238069E+01</pdfrwt>
<totfact> 0.98781946E+08</totfact>
</mgrwt>
</event>
<event>
 4    1  0.3858687E+006  0.5098519E+01  0.7546771E-02  0.2549968E+00
         21   -1    0    0  503  502  0.00000000000E+00  0.00000000000E+00  0.42384038428E+02  0.42384038428E+02  0.00000000000E+00 0.  1.
         21   -1    0    0  501  503 -0.00000000000E+00 -0.00000000000E+00 -0.62273345491E+00  0.62273345491E+00  0.00000000000E+00 0.  1.
          5    1    1    2  501    0  0.17396016539E+01  0.93737779906E+00  0.18236552738E+02  0.18935858756E+02  0.47000000000E+01 0.  1.
         -5    1    1    2    0  502 -0.17396016539E+01 -0.93737779906E+00  0.23524752235E+02  0.24070913127E+02  0.47000000000E+01 0.  1.
<mgrwt>
<rscale>  2 0.50985185E+01</rscale>
<asrwt>0</asrwt>
<pdfrwt beam="1">  1       21 0.65206190E-02 0.50985185E+01</pdfrwt>
<pdfrwt beam="2">  1       21 0.95805180E-04 0.50985185E+01</pdfrwt>
<totfact> 0.44857139E+09</totfact>
</mgrwt>
</event>
<event>
 4    1  0.3858687E+006  0.5876387E+01  0.7546771E-02  0.2431795E+00
         21   -1    0    0  503  502  0.00000000000E+00  0.00000000000E+00  0.27929732357E+03  0.27929732357E+03  0.00000000000E+00 0.  1.
         21   -1    0    0  501  503 -0.00000000000E+00 -0.00000000000E+00 -0.13636587136E+00  0.13636587136E+00  0.00000000000E+00 0.  1.
          5    1    1    2  501    0 -0.34849058019E+01 -0.54530752383E+00  0.96896621854E+02  0.97074647851E+02  0.47000000000E+01 0.  1.
         -5    1    1    2    0  502  0.34849058019E+01  0.54530752383E+00  0.18226433584E+03  0.18235904159E+03  0.47000000000E+01 0.  1.
<mgrwt>
<rscale>  2 0.58763874E+01</rscale>
<asrwt>0</asrwt>
<pdfrwt beam="1">  1       21 0.42968361E-01 0.58763874E+01</pdfrwt>
<pdfrwt beam="2">  1       21 0.20979588E-04 0.58763874E+01</pdfrwt>
<totfact> 0.19084400E+09</totfact>
</mgrwt>
</event>
<event>
 4    1  0.3858687E+006  0.5814963E+01  0.7546771E-02  0.2440147E+00
         21   -1    0    0  501  502  0.00000000000E+00  0.00000000000E+00  0.18269875366E+00  0.18269875366E+00  0.00000000000E+00 0.  1.
         21   -1    0    0  502  503 -0.00000000000E+00 -0.00000000000E+00 -0.38069658385E+03  0.38069658385E+03  0.00000000000E+00 0. -1.
          5    1    1    2  501    0  0.22868229110E+01  0.25483787042E+01 -0.53744806956E+02  0.54058468974E+02  0.47000000000E+01 0.  1.
         -5    1    1    2    0  503 -0.22868229110E+01 -0.25483787042E+01 -0.32676907814E+03  0.32682081363E+03  0.47000000000E+01 0. -1.
<mgrwt>
<rscale>  2 0.58149629E+01</rscale>
<asrwt>0</asrwt>
<pdfrwt beam="1">  1       21 0.28107595E-04 0.58149629E+01</pdfrwt>
<pdfrwt beam="2">  1       21 0.58568508E-01 0.58149629E+01</pdfrwt>
<totfact> 0.73444786E+08</totfact>
</mgrwt>
</event>
<event>
 4    1  0.3858687E+006  0.6152296E+01  0.7546771E-02  0.2396014E+00
         21   -1    0    0  503  502  0.00000000000E+00  0.00000000000E+00  0.84643923232E+01  0.84643923232E+01  0.00000000000E+00 0.  1.
         21   -1    0    0  501  503 -0.00000000000E+00 -0.00000000000E+00 -0.45687797179E+01  0.45687797179E+01  0.00000000000E+00 0.  1.
          5    1    1    2  501    0 -0.28786931400E+01 -0.27338382035E+01  0.99819430737E+00  0.62327471786E+01  0.47000000000E+01 0. -1.
         -5    1    1    2    0  502  0.28786931400E+01  0.27338382035E+01  0.28974182980E+01  0.68004248625E+01  0.47000000000E+01 0. -1.
<mgrwt>
<rscale>  2 0.61522960E+01</rscale>
<asrwt>0</asrwt>
<pdfrwt beam="1">  1       21 0.13022142E-02 0.61522960E+01</pdfrwt>
<pdfrwt beam="2">  1       21 0.70288919E-03 0.61522960E+01</pdfrwt>
<totfact> 0.36454805E+09</totfact>
</mgrwt>
</event>
<event>
 4    1  0.3858687E+006  0.7447304E+01  0.7546771E-02  0.2258130E+00
         21   -1    0    0  501  502  0.00000000000E+00  0.00000000000E+00  0.16043144463E+02  0.16043144463E+02  0.00000000000E+00 0. -1.
         21   -1    0    0  502  503 -0.00000000000E+00 -0.00000000000E+00 -0.51896318392E+01  0.51896318392E+01  0.00000000000E+00 0. -1.
          5    1    1    2  501    0 -0.56985498721E+01 -0.94808464164E+00  0.11560878239E+02  0.13751954071E+02  0.47000000000E+01 0. -1.
         -5    1    1    2    0  503  0.56985498721E+01  0.94808464164E+00 -0.70736561499E+00  0.74808222306E+01  0.47000000000E+01 0. -1.
<mgrwt>
<rscale>  2 0.74473039E+01</rscale>
<asrwt>0</asrwt>
<pdfrwt beam="1">  1       21 0.24681760E-02 0.74473039E+01</pdfrwt>
<pdfrwt beam="2">  1       21 0.79840491E-03 0.74473039E+01</pdfrwt>
<totfact> 0.14108140E+09</totfact>
</mgrwt>
</event>
<event>
 4    1  0.3858687E+006  0.5469329E+01  0.7546771E-02  0.2490074E+00
         21   -1    0    0  501  502  0.00000000000E+00  0.00000000000E+00  0.24787842019E+00  0.24787842019E+00  0.00000000000E+00 0. -1.
         21   -1    0    0  502  503 -0.00000000000E+00 -0.00000000000E+00 -0.12312656661E+03  0.12312656661E+03  0.00000000000E+00 0. -1.
          5    1    1    2  501    0  0.62977167733E+00  0.27252428340E+01 -0.70137826564E+02  0.70350751780E+02  0.47000000000E+01 0. -1.
         -5    1    1    2    0  503 -0.62977167733E+00 -0.27252428340E+01 -0.52740861621E+02  0.53023693246E+02  0.47000000000E+01 0. -1.
<mgrwt>
<rscale>  2 0.54693291E+01</rscale>
<asrwt>0</asrwt>
<pdfrwt beam="1">  1       21 0.38135015E-04 0.54693291E+01</pdfrwt>
<pdfrwt beam="2">  1       21 0.18942612E-01 0.54693291E+01</pdfrwt>
<totfact> 0.31857858E+09</totfact>
</mgrwt>
</event>
<event>
 4    1  0.3858687E+006  0.5218339E+01  0.7546771E-02  0.2529820E+00
         21   -1    0    0  503  502  0.00000000000E+00  0.00000000000E+00  0.21177373257E+02  0.21177373257E+02  0.00000000000E+00 0. -1.
         21   -1    0    0  501  503 -0.00000000000E+00 -0.00000000000E+00 -0.32899289607E+01  0.32899289607E+01  0.00000000000E+00 0. -1.
          5    1    1    2  501    0  0.22636249641E+01 -0.13064457858E+00 -0.60443428323E+00  0.52532282253E+01  0.47000000000E+01 0. -1.
         -5    1    1    2    0  502 -0.22636249641E+01  0.13064457858E+00  0.18491878580E+02  0.19214073993E+02  0.47000000000E+01 0. -1.
<mgrwt>
<rscale>  2 0.52183394E+01</rscale>
<asrwt>0</asrwt>
<pdfrwt beam="1">  1       21 0.32580573E-02 0.52183394E+01</pdfrwt>
<pdfrwt beam="2">  1       21 0.50614293E-03 0.52183394E+01</pdfrwt>
<totfact> 0.13328836E+09</totfact>
</mgrwt>
</event>
<event>
 4    1  0.3858687E+006  0.1020837E+02  0.7546771E-02  0.2063319E+00
         21   -1    0    0  503  502  0.00000000000E+00  0.00000000000E+00  0.63094067859E+02  0.63094067859E+02  0.00000000000E+00 0.  1.
         21   -1    0    0  501  503 -0.00000000000E+00 -0.00000000000E+00 -0.29250375171E+01  0.29250375171E+01  0.00000000000E+00 0. -1.
          5    1    1    2  501    0  0.44154007079E+01  0.79136038946E+01  0.83049120307E+01  0.13159880465E+02  0.47000000000E+01 0. -1.
         -5    1    1    2    0  502 -0.44154007079E+01 -0.79136038946E+01  0.51864118311E+02  0.52859224911E+02  0.47000000000E+01 0.  1.
<mgrwt>
<rscale>  2 0.10208374E+02</rscale>
<asrwt>0</asrwt>
<pdfrwt beam="1">  1       21 0.97067786E-02 0.10208374E+02</pdfrwt>
<pdfrwt beam="2">  1       21 0.45000582E-03 0.10208374E+02</pdfrwt>
<totfact> 0.48437289E+08</totfact>
</mgrwt>
</event>
<event>
 4    1  0.3858687E+006  0.5419423E+01  0.7546771E-02  0.2497726E+00
         21   -1    0    0  501  502  0.00000000000E+00  0.00000000000E+00  0.57733439444E+02  0.57733439444E+02  0.00000000000E+00 0.  1.
         21   -1    0    0  502  503 -0.00000000000E+00 -0.00000000000E+00 -0.61695323107E+00  0.61695323107E+00  0.00000000000E+00 0.  1.
          5    1    1    2  501    0 -0.23158153903E+01  0.13846083336E+01  0.16338320102E+02  0.17213681911E+02  0.47000000000E+01 0.  1.
         -5    1    1    2    0  503  0.23158153903E+01 -0.13846083336E+01  0.40778166110E+02  0.41136710764E+02  0.47000000000E+01 0.  1.
<mgrwt>
<rscale>  2 0.54194226E+01</rscale>
<asrwt>0</asrwt>
<pdfrwt beam="1">  1       21 0.88820633E-02 0.54194226E+01</pdfrwt>
<pdfrwt beam="2">  1       21 0.94915928E-04 0.54194226E+01</pdfrwt>
<totfact> 0.30368990E+09</totfact>
</mgrwt>
</event>
<event>
 4    1  0.3858687E+006  0.5184446E+01  0.7546771E-02  0.2535438E+00
         21   -1    0    0  503  502  0.00000000000E+00  0.00000000000E+00  0.12488570170E+01  0.12488570170E+01  0.00000000000E+00 0. -1.
         21   -1    0    0  501  503 -0.00000000000E+00 -0.00000000000E+00 -0.21826848797E+02  0.21826848797E+02  0.00000000000E+00 0. -1.
          5    1    1    2  501    0  0.16503567387E+01  0.14369416937E+01 -0.11651512335E+02  0.12752890594E+02  0.47000000000E+01 0. -1.
         -5    1    1    2    0  502 -0.16503567387E+01 -0.14369416937E+01 -0.89264794443E+01  0.10322815220E+02  0.47000000000E+01 0. -1.
<mgrwt>
<rscale>  2 0.51844459E+01</rscale>
<asrwt>0</asrwt>
<pdfrwt beam="1">  1       21 0.19213185E-03 0.51844459E+01</pdfrwt>
<pdfrwt beam="2">  1       21 0.33579766E-02 0.51844459E+01</pdfrwt>
<totfact> 0.47448817E+09</totfact>
</mgrwt>
</event>
<event>
 4    1  0.3858687E+006  0.5102561E+01  0.7546771E-02  0.2549275E+00
         21   -1    0    0  501  502  0.00000000000E+00  0.00000000000E+00  0.93791451014E+02  0.93791451014E+02  0.00000000000E+00 0. -1.
         21   -1    0    0  502  503 -0.00000000000E+00 -0.00000000000E+00 -0.23196092284E+01  0.23196092284E+01  0.00000000000E+00 0. -1.
          5    1    1    2  501    0 -0.16921983103E+01 -0.10404753952E+01  0.90824364325E+02  0.90967583672E+02  0.47000000000E+01 0. -1.
         -5    1    1    2    0  503  0.16921983103E+01  0.10404753952E+01  0.64747746127E+00  0.51434765706E+01  0.47000000000E+01 0. -1.
<mgrwt>
<rscale>  2 0.51025606E+01</rscale>
<asrwt>0</asrwt>
<pdfrwt beam="1">  1       21 0.14429451E-01 0.51025606E+01</pdfrwt>
<pdfrwt beam="2">  1       21 0.35686303E-03 0.51025606E+01</pdfrwt>
<totfact> 0.22974985E+08</totfact>
</mgrwt>
</event>
<event>
 4    1  0.3858687E+006  0.5600562E+01  0.7546771E-02  0.2470504E+00
         21   -1    0    0  501  502  0.00000000000E+00  0.00000000000E+00  0.29706153271E+00  0.29706153271E+00  0.00000000000E+00 0.  1.
         21   -1    0    0  502  503 -0.00000000000E+00 -0.00000000000E+00 -0.18879645939E+03  0.18879645939E+03  0.00000000000E+00 0.  1.
          5    1    1    2  501    0  0.21519449326E+01 -0.21553264991E+01 -0.31482606586E+02  0.31976879409E+02  0.47000000000E+01 0.  1.
         -5    1    1    2    0  503 -0.21519449326E+01  0.21553264991E+01 -0.15701679127E+03  0.15711664151E+03  0.47000000000E+01 0.  1.
<mgrwt>
<rscale>  2 0.56005624E+01</rscale>
<asrwt>0</asrwt>
<pdfrwt beam="1">  1       21 0.45701904E-04 0.56005624E+01</pdfrwt>
<pdfrwt beam="2">  1       21 0.29045527E-01 0.56005624E+01</pdfrwt>
<totfact> 0.12725724E+09</totfact>
</mgrwt>
</event>
<event>
 4    1  0.3858687E+006  0.6385835E+01  0.7546771E-02  0.2367758E+00
         21   -1    0    0  501  502  0.00000000000E+00  0.00000000000E+00  0.65565775077E+02  0.65565775077E+02  0.00000000000E+00 0. -1.
         21   -1    0    0  502  503 -0.00000000000E+00 -0.00000000000E+00 -0.10871460959E+01  0.10871460959E+01  0.00000000000E+00 0.  1.
          5    1    1    2  501    0  0.29076544868E+01  0.31991301896E+01  0.54039563470E+02  0.54415561273E+02  0.47000000000E+01 0. -1.
         -5    1    1    2    0  503 -0.29076544868E+01 -0.31991301896E+01  0.10439065511E+02  0.12237359900E+02  0.47000000000E+01 0.  1.
<mgrwt>
<rscale>  2 0.63858350E+01</rscale>
<asrwt>0</asrwt>
<pdfrwt beam="1">  1       21 0.10087039E-01 0.63858350E+01</pdfrwt>
<pdfrwt beam="2">  1       21 0.16725330E-03 0.63858350E+01</pdfrwt>
<totfact> 0.13394490E+09</totfact>
</mgrwt>
</event>
<event>
 4    1  0.3858687E+006  0.5995865E+01  0.7546771E-02  0.2415962E+00
         21   -1    0    0  501  502  0.00000000000E+00  0.00000000000E+00  0.23585054249E+01  0.23585054249E+01  0.00000000000E+00 0.  1.
         21   -1    0    0  502  503 -0.00000000000E+00 -0.00000000000E+00 -0.36189718422E+02  0.36189718422E+02  0.00000000000E+00 0. -1.
          5    1    1    2  501    0  0.18623040671E+01  0.32236965026E+01 -0.22519897255E+01  0.64048304664E+01  0.47000000000E+01 0.  1.
         -5    1    1    2    0  503 -0.18623040671E+01 -0.32236965026E+01 -0.31579223272E+02  0.32143393381E+02  0.47000000000E+01 0. -1.
<mgrwt>
<rscale>  2 0.59958649E+01</rscale>
<asrwt>0</asrwt>
<pdfrwt beam="1">  1       21 0.36284700E-03 0.59958649E+01</pdfrwt>
<pdfrwt beam="2">  1       21 0.55676489E-02 0.59958649E+01</pdfrwt>
<totfact> 0.10845816E+09</totfact>
</mgrwt>
</event>
<event>
 4    1  0.3858687E+006  0.5256705E+01  0.7546771E-02  0.2523535E+00
         21   -1    0    0  501  502  0.00000000000E+00  0.00000000000E+00  0.64457131978E+00  0.64457131978E+00  0.00000000000E+00 0.  1.
         21   -1    0    0  502  503 -0.00000000000E+00 -0.00000000000E+00 -0.43524223296E+02  0.43524223296E+02  0.00000000000E+00 0.  1.
          5    1    1    2  501    0  0.22638784206E+01  0.64637861898E+00 -0.18732807739E+02  0.19456388067E+02  0.47000000000E+01 0.  1.
         -5    1    1    2    0  503 -0.22638784206E+01 -0.64637861898E+00 -0.24146844237E+02  0.24712406549E+02  0.47000000000E+01 0.  1.
<mgrwt>
<rscale>  2 0.52567053E+01</rscale>
<asrwt>0</asrwt>
<pdfrwt beam="1">  1       21 0.99164762E-04 0.52567053E+01</pdfrwt>
<pdfrwt beam="2">  1       21 0.66960381E-02 0.52567053E+01</pdfrwt>
<totfact> 0.42477742E+09</totfact>
</mgrwt>
</event>
<event>
 4    1  0.3858687E+006  0.5892359E+01  0.7546771E-02  0.2429647E+00
         21   -1    0    0  501  502  0.00000000000E+00  0.00000000000E+00  0.44495599345E+00  0.44495599345E+00  0.00000000000E+00 0.  1.
         21   -1    0    0  502  503 -0.00000000000E+00 -0.00000000000E+00 -0.30071252830E+03  0.30071252830E+03  0.00000000000E+00 0. -1.
          5    1    1    2  501    0 -0.28945151313E+01 -0.20619583743E+01 -0.20555857699E+02  0.21383712865E+02  0.47000000000E+01 0.  1.
         -5    1    1    2    0  503  0.28945151313E+01  0.20619583743E+01 -0.27971171461E+03  0.27977377143E+03  0.47000000000E+01 0. -1.
<mgrwt>
<rscale>  2 0.58923586E+01</rscale>
<asrwt>0</asrwt>
<pdfrwt beam="1">  1       21 0.68454882E-04 0.58923586E+01</pdfrwt>
<pdfrwt beam="2">  1       21 0.46263389E-01 0.58923586E+01</pdfrwt>
<totfact> 0.34611042E+08</totfact>
</mgrwt>
</event>
<event>
 4    1  0.3858687E+006  0.7336877E+01  0.7546771E-02  0.2268314E+00
         21   -1    0    0  503  502  0.00000000000E+00  0.00000000000E+00  0.82869843133E+00  0.82869843133E+00  0.00000000000E+00 0. -1.
         21   -1    0    0  501  503 -0.00000000000E+00 -0.00000000000E+00 -0.11022664866E+03  0.11022664866E+03  0.00000000000E+00 0. -1.
          5    1    1    2  501    0 -0.23453701902E+01  0.51224024796E+01 -0.90284199812E+02  0.90581822150E+02  0.47000000000E+01 0. -1.
         -5    1    1    2    0  502  0.23453701902E+01 -0.51224024796E+01 -0.19113750416E+02  0.20473524940E+02  0.47000000000E+01 0. -1.
<mgrwt>
<rscale>  2 0.73368773E+01</rscale>
<asrwt>0</asrwt>
<pdfrwt beam="1">  1       21 0.12749209E-03 0.73368773E+01</pdfrwt>
<pdfrwt beam="2">  1       21 0.16957943E-01 0.73368773E+01</pdfrwt>
<totfact> 0.94423752E+08</totfact>
</mgrwt>
</event>
<event>
 4    1  0.3858687E+006  0.6862518E+01  0.7546771E-02  0.2315081E+00
         21   -1    0    0  501  502  0.00000000000E+00  0.00000000000E+00  0.30198162226E+00  0.30198162226E+00  0.00000000000E+00 0. -1.
         21   -1    0    0  502  503 -0.00000000000E+00 -0.00000000000E+00 -0.19656270336E+03  0.19656270336E+03  0.00000000000E+00 0. -1.
          5    1    1    2  501    0  0.40099927413E+01 -0.29873241640E+01 -0.53388277466E+02  0.53827523798E+02  0.47000000000E+01 0.  1.
         -5    1    1    2    0  503 -0.40099927413E+01  0.29873241640E+01 -0.14287244427E+03  0.14303716118E+03  0.47000000000E+01 0.  1.
<mgrwt>
<rscale>  2 0.68625176E+01</rscale>
<asrwt>0</asrwt>
<pdfrwt beam="1">  1       21 0.46458910E-04 0.68625176E+01</pdfrwt>
<pdfrwt beam="2">  1       21 0.30240286E-01 0.68625176E+01</pdfrwt>
<totfact> 0.13558481E+09</totfact>
</mgrwt>
</event>
<event>
 4    1  0.3858687E+006  0.6290519E+01  0.7546771E-02  0.2379079E+00
         21   -1    0    0  501  502  0.00000000000E+00  0.00000000000E+00  0.18195544761E+03  0.18195544761E+03  0.00000000000E+00 0.  1.
         21   -1    0    0  502  503 -0.00000000000E+00 -0.00000000000E+00 -0.21810744243E+00  0.21810744243E+00  0.00000000000E+00 0. -1.
          5    1    1    2  501    0  0.14218738161E+01 -0.39317807916E+01  0.85960875618E+02  0.86190734783E+02  0.47000000000E+01 0. -1.
         -5    1    1    2    0  503 -0.14218738161E+01  0.39317807916E+01  0.95776464544E+02  0.95982820265E+02  0.47000000000E+01 0.  1.
<mgrwt>
<rscale>  2 0.62905187E+01</rscale>
<asrwt>0</asrwt>
<pdfrwt beam="1">  1       21 0.27993024E-01 0.62905187E+01</pdfrwt>
<pdfrwt beam="2">  1       21 0.33555137E-04 0.62905187E+01</pdfrwt>
<totfact> 0.22416242E+09</totfact>
</mgrwt>
</event>
<event>
 4    1  0.3858687E+006  0.5214037E+01  0.7546771E-02  0.2530529E+00
         21   -1    0    0  503  502  0.00000000000E+00  0.00000000000E+00  0.20685154114E+01  0.20685154114E+01  0.00000000000E+00 0. -1.
         21   -1    0    0  501  503 -0.00000000000E+00 -0.00000000000E+00 -0.18008605248E+02  0.18008605248E+02  0.00000000000E+00 0. -1.
          5    1    1    2  501    0 -0.13397199397E+01  0.18169562203E+01 -0.13188076511E+02  0.14181380098E+02  0.47000000000E+01 0. -1.
         -5    1    1    2    0  502  0.13397199397E+01 -0.18169562203E+01 -0.27520133258E+01  0.58957405615E+01  0.47000000000E+01 0. -1.
<mgrwt>
<rscale>  2 0.52140368E+01</rscale>
<asrwt>0</asrwt>
<pdfrwt beam="1">  1       21 0.31823314E-03 0.52140368E+01</pdfrwt>
<pdfrwt beam="2">  1       21 0.27705547E-02 0.52140368E+01</pdfrwt>
<totfact> 0.31766778E+09</totfact>
</mgrwt>
</event>
<event>
 4    1  0.3858687E+006  0.6336474E+01  0.7546771E-02  0.2373585E+00
         21   -1    0    0  503  502  0.00000000000E+00  0.00000000000E+00  0.83321839703E+01  0.83321839703E+01  0.00000000000E+00 0. -1.
         21   -1    0    0  501  503 -0.00000000000E+00 -0.00000000000E+00 -0.48891146105E+01  0.48891146105E+01  0.00000000000E+00 0. -1.
          5    1    1    2  501    0  0.32985467895E+01  0.26796445688E+01  0.92860599607E+00  0.64041560750E+01  0.47000000000E+01 0. -1.
         -5    1    1    2    0  502 -0.32985467895E+01 -0.26796445688E+01  0.25144633637E+01  0.68171425058E+01  0.47000000000E+01 0. -1.
<mgrwt>
<rscale>  2 0.63364743E+01</rscale>
<asrwt>0</asrwt>
<pdfrwt beam="1">  1       21 0.12818745E-02 0.63364743E+01</pdfrwt>
<pdfrwt beam="2">  1       21 0.75217148E-03 0.63364743E+01</pdfrwt>
<totfact> 0.34790649E+09</totfact>
</mgrwt>
</event>
<event>
 4    1  0.3858687E+006  0.9808292E+01  0.7546771E-02  0.2086065E+00
         21   -1    0    0  501  502  0.00000000000E+00  0.00000000000E+00  0.47106686764E+02  0.47106686764E+02  0.00000000000E+00 0. -1.
         21   -1    0    0  502  503 -0.00000000000E+00 -0.00000000000E+00 -0.20493266891E+01  0.20493266891E+01  0.00000000000E+00 0.  1.
          5    1    1    2  501    0  0.79874942254E+00 -0.85717323587E+01  0.23975215603E+02  0.25903929422E+02  0.47000000000E+01 0.  1.
         -5    1    1    2    0  503 -0.79874942254E+00  0.85717323587E+01  0.21082144471E+02  0.23252084031E+02  0.47000000000E+01 0. -1.
<mgrwt>
<rscale>  2 0.98082922E+01</rscale>
<asrwt>0</asrwt>
<pdfrwt beam="1">  1       21 0.72471818E-02 0.98082922E+01</pdfrwt>
<pdfrwt beam="2">  1       21 0.31528106E-03 0.98082922E+01</pdfrwt>
<totfact> 0.12418868E+09</totfact>
</mgrwt>
</event>
<event>
 4    1  0.3858687E+006  0.5309140E+01  0.7546771E-02  0.2515071E+00
         21   -1    0    0  501  502  0.00000000000E+00  0.00000000000E+00  0.48569644886E+01  0.48569644886E+01  0.00000000000E+00 0. -1.
         21   -1    0    0  502  503 -0.00000000000E+00 -0.00000000000E+00 -0.60421500521E+01  0.60421500521E+01  0.00000000000E+00 0. -1.
          5    1    1    2  501    0 -0.13707692863E+01  0.20537662849E+01  0.49065196574E+00  0.53317636614E+01  0.47000000000E+01 0. -1.
         -5    1    1    2    0  503  0.13707692863E+01 -0.20537662849E+01 -0.16758375292E+01  0.55673508793E+01  0.47000000000E+01 0. -1.
<mgrwt>
<rscale>  2 0.53091397E+01</rscale>
<asrwt>0</asrwt>
<pdfrwt beam="1">  1       21 0.74722531E-03 0.53091397E+01</pdfrwt>
<pdfrwt beam="2">  1       21 0.92956154E-03 0.53091397E+01</pdfrwt>
<totfact> 0.46868050E+09</totfact>
</mgrwt>
</event>
<event>
 4    1  0.3858687E+006  0.4724490E+01  0.7546771E-02  0.2618480E+00
         21   -1    0    0  503  502  0.00000000000E+00  0.00000000000E+00  0.82062153864E-01  0.82062153864E-01  0.00000000000E+00 0.  1.
         21   -1    0    0  501  503 -0.00000000000E+00 -0.00000000000E+00 -0.10089511636E+04  0.10089511636E+04  0.00000000000E+00 0.  1.
          5    1    1    2  501    0  0.28128264393E+00  0.38946721140E+00 -0.93561604825E+03  0.93562797657E+03  0.47000000000E+01 0.  1.
         -5    1    1    2    0  502 -0.28128264393E+00 -0.38946721140E+00 -0.73253053206E+02  0.73405249190E+02  0.47000000000E+01 0.  1.
<mgrwt>
<rscale>  2 0.47244899E+01</rscale>
<asrwt>0</asrwt>
<pdfrwt beam="1">  1       21 0.12625489E-04 0.47244899E+01</pdfrwt>
<pdfrwt beam="2">  1       21 0.15521659E+00 0.47244899E+01</pdfrwt>
<totfact> 0.26350561E+08</totfact>
</mgrwt>
</event>
<event>
 4    1  0.3858687E+006  0.5625213E+01  0.7546771E-02  0.2466914E+00
         21   -1    0    0  503  502  0.00000000000E+00  0.00000000000E+00  0.66418696899E+02  0.66418696899E+02  0.00000000000E+00 0.  1.
         21   -1    0    0  501  503 -0.00000000000E+00 -0.00000000000E+00 -0.94492254438E+00  0.94492254438E+00  0.00000000000E+00 0. -1.
          5    1    1    2  501    0 -0.24708056535E+01 -0.18569155809E+01  0.90201717597E+01  0.10630452231E+02  0.47000000000E+01 0. -1.
         -5    1    1    2    0  502  0.24708056535E+01  0.18569155809E+01  0.56453602595E+02  0.56733167213E+02  0.47000000000E+01 0.  1.
<mgrwt>
<rscale>  2 0.56252125E+01</rscale>
<asrwt>0</asrwt>
<pdfrwt beam="1">  1       21 0.10218257E-01 0.56252125E+01</pdfrwt>
<pdfrwt beam="2">  1       21 0.14537275E-03 0.56252125E+01</pdfrwt>
<totfact> 0.14320715E+09</totfact>
</mgrwt>
</event>
<event>
 4    1  0.3858687E+006  0.1358924E+02  0.7546771E-02  0.1914442E+00
         21   -1    0    0  503  502  0.00000000000E+00  0.00000000000E+00  0.20277775589E+01  0.20277775589E+01  0.00000000000E+00 0. -1.
         21   -1    0    0  501  503 -0.00000000000E+00 -0.00000000000E+00 -0.93813719072E+02  0.93813719072E+02  0.00000000000E+00 0.  1.
          5    1    1    2  501    0 -0.11852387205E+02  0.47008879370E+01 -0.37696084473E+02  0.40070715173E+02  0.47000000000E+01 0. -1.
         -5    1    1    2    0  502  0.11852387205E+02 -0.47008879370E+01 -0.54089857040E+02  0.55770781458E+02  0.47000000000E+01 0.  1.
<mgrwt>
<rscale>  2 0.13589239E+02</rscale>
<asrwt>0</asrwt>
<pdfrwt beam="1">  1       21 0.31196578E-03 0.13589239E+02</pdfrwt>
<pdfrwt beam="2">  1       21 0.14432880E-01 0.13589239E+02</pdfrwt>
<totfact> 0.49348850E+08</totfact>
</mgrwt>
</event>
<event>
 4    1  0.3858687E+006  0.8061330E+01  0.7546771E-02  0.2205668E+00
         21   -1    0    0  501  502  0.00000000000E+00  0.00000000000E+00  0.13731306787E+00  0.13731306787E+00  0.00000000000E+00 0.  1.
         21   -1    0    0  502  503 -0.00000000000E+00 -0.00000000000E+00 -0.33448880956E+04  0.33448880956E+04  0.00000000000E+00 0. -1.
          5    1    1    2  501    0  0.25434584053E+01  0.60353845343E+01 -0.12269342185E+03  0.12295796360E+03  0.47000000000E+01 0.  1.
         -5    1    1    2    0  503 -0.25434584053E+01 -0.60353845343E+01 -0.32220573607E+04  0.32220674451E+04  0.47000000000E+01 0. -1.
<mgrwt>
<rscale>  2 0.80613304E+01</rscale>
<asrwt>0</asrwt>
<pdfrwt beam="1">  1       21 0.21125563E-04 0.80613304E+01</pdfrwt>
<pdfrwt beam="2">  1       21 0.51458659E+00 0.80613304E+01</pdfrwt>
<totfact> 0.32013379E+06</totfact>
</mgrwt>
</event>
<event>
 4    1  0.3858687E+006  0.1051829E+02  0.7546771E-02  0.2046638E+00
         21   -1    0    0  503  502  0.00000000000E+00  0.00000000000E+00  0.45323111200E+02  0.45323111200E+02  0.00000000000E+00 0. -1.
         21   -1    0    0  501  503 -0.00000000000E+00 -0.00000000000E+00 -0.37929245132E+01  0.37929245132E+01  0.00000000000E+00 0. -1.
          5    1    1    2  501    0  0.51814249303E+01 -0.78547572746E+01  0.61035365362E+01  0.12160901874E+02  0.47000000000E+01 0. -1.
         -5    1    1    2    0  502 -0.51814249303E+01  0.78547572746E+01  0.35426650150E+02  0.36955133838E+02  0.47000000000E+01 0. -1.
<mgrwt>
<rscale>  2 0.10518288E+02</rscale>
<asrwt>0</asrwt>
<pdfrwt beam="1">  1       21 0.69727860E-02 0.10518288E+02</pdfrwt>
<pdfrwt beam="2">  1       21 0.58352688E-03 0.10518288E+02</pdfrwt>
<totfact> 0.57103441E+08</totfact>
</mgrwt>
</event>
<event>
 4    1  0.3858687E+006  0.4914245E+01  0.7546771E-02  0.2582595E+00
         21   -1    0    0  501  502  0.00000000000E+00  0.00000000000E+00  0.45686196386E+00  0.45686196386E+00  0.00000000000E+00 0.  1.
         21   -1    0    0  502  503 -0.00000000000E+00 -0.00000000000E+00 -0.85554309290E+02  0.85554309290E+02  0.00000000000E+00 0.  1.
          5    1    1    2  501    0 -0.70964385955E+00 -0.12474813652E+01 -0.15963591070E+02  0.16702875321E+02  0.47000000000E+01 0. -1.
         -5    1    1    2    0  503  0.70964385955E+00  0.12474813652E+01 -0.69133856257E+02  0.69308295933E+02  0.47000000000E+01 0. -1.
<mgrwt>
<rscale>  2 0.49142450E+01</rscale>
<asrwt>0</asrwt>
<pdfrwt beam="1">  1       21 0.70286404E-04 0.49142450E+01</pdfrwt>
<pdfrwt beam="2">  1       21 0.13162211E-01 0.49142450E+01</pdfrwt>
<totfact> 0.22622985E+09</totfact>
</mgrwt>
</event>
<event>
 4    1  0.3858687E+006  0.5703523E+01  0.7546771E-02  0.2455685E+00
         21   -1    0    0  501  502  0.00000000000E+00  0.00000000000E+00  0.49351796493E+03  0.49351796493E+03  0.00000000000E+00 0. -1.
         21   -1    0    0  502  503 -0.00000000000E+00 -0.00000000000E+00 -0.64629388968E+00  0.64629388968E+00  0.00000000000E+00 0.  1.
          5    1    1    2  501    0 -0.29945251678E+01  0.12136689554E+01  0.48057936586E+03  0.48061320942E+03  0.47000000000E+01 0. -1.
         -5    1    1    2    0  503  0.29945251678E+01 -0.12136689554E+01  0.12292305172E+02  0.13551049397E+02  0.47000000000E+01 0.  1.
<mgrwt>
<rscale>  2 0.57035229E+01</rscale>
<asrwt>0</asrwt>
<pdfrwt beam="1">  1       21 0.75925540E-01 0.57035229E+01</pdfrwt>
<pdfrwt beam="2">  1       21 0.99430224E-04 0.57035229E+01</pdfrwt>
<totfact> 0.82382062E+07</totfact>
</mgrwt>
</event>
<event>
 4    1  0.3858687E+006  0.4874802E+01  0.7546771E-02  0.2589855E+00
         21   -1    0    0  501  502  0.00000000000E+00  0.00000000000E+00  0.76372995804E+02  0.76372995804E+02  0.00000000000E+00 0. -1.
         21   -1    0    0  502  503 -0.00000000000E+00 -0.00000000000E+00 -0.34883561364E+00  0.34883561364E+00  0.00000000000E+00 0. -1.
          5    1    1    2  501    0  0.12142562261E+01 -0.44640867247E+00  0.50620136738E+02  0.50854320782E+02  0.47000000000E+01 0. -1.
         -5    1    1    2    0  503 -0.12142562261E+01  0.44640867247E+00  0.25404023452E+02  0.25867510635E+02  0.47000000000E+01 0. -1.
<mgrwt>
<rscale>  2 0.48748024E+01</rscale>
<asrwt>0</asrwt>
<pdfrwt beam="1">  1       21 0.11749678E-01 0.48748024E+01</pdfrwt>
<pdfrwt beam="2">  1       21 0.53667078E-04 0.48748024E+01</pdfrwt>
<totfact> 0.38156809E+09</totfact>
</mgrwt>
</event>
<event>
 4    1  0.3858687E+006  0.6739907E+01  0.7546771E-02  0.2328042E+00
         21   -1    0    0  501  502  0.00000000000E+00  0.00000000000E+00  0.14586841634E+01  0.14586841634E+01  0.00000000000E+00 0. -1.
         21   -1    0    0  502  503 -0.00000000000E+00 -0.00000000000E+00 -0.18818666888E+03  0.18818666888E+03  0.00000000000E+00 0. -1.
          5    1    1    2  501    0  0.12973860399E+01 -0.46532927871E+01 -0.67417584635E+01  0.95329770523E+01  0.47000000000E+01 0. -1.
         -5    1    1    2    0  503 -0.12973860399E+01  0.46532927871E+01 -0.17998622625E+03  0.18011237599E+03  0.47000000000E+01 0. -1.
<mgrwt>
<rscale>  2 0.67399068E+01</rscale>
<asrwt>0</asrwt>
<pdfrwt beam="1">  1       21 0.22441299E-03 0.67399068E+01</pdfrwt>
<pdfrwt beam="2">  1       21 0.28951790E-01 0.67399068E+01</pdfrwt>
<totfact> 0.17056688E+08</totfact>
</mgrwt>
</event>
<event>
 4    1  0.3858687E+006  0.6173099E+01  0.7546771E-02  0.2393425E+00
         21   -1    0    0  501  502  0.00000000000E+00  0.00000000000E+00  0.56839868656E+00  0.56839868656E+00  0.00000000000E+00 0.  1.
         21   -1    0    0  502  503 -0.00000000000E+00 -0.00000000000E+00 -0.70826538945E+02  0.70826538945E+02  0.00000000000E+00 0. -1.
          5    1    1    2  501    0 -0.34067220767E+01  0.21003317915E+01 -0.43379734894E+02  0.43816761044E+02  0.47000000000E+01 0.  1.
         -5    1    1    2    0  503  0.34067220767E+01 -0.21003317915E+01 -0.26878405365E+02  0.27578176588E+02  0.47000000000E+01 0.  1.
<mgrwt>
<rscale>  2 0.61730988E+01</rscale>
<asrwt>0</asrwt>
<pdfrwt beam="1">  1       21 0.87445911E-04 0.61730988E+01</pdfrwt>
<pdfrwt beam="2">  1       21 0.10896396E-01 0.61730988E+01</pdfrwt>
<totfact> 0.27791468E+09</totfact>
</mgrwt>
</event>
<event>
 4    1  0.3858687E+006  0.1042433E+02  0.7546771E-02  0.2051613E+00
         21   -1    0    0  501  502  0.00000000000E+00  0.00000000000E+00  0.81174819123E+02  0.81174819123E+02  0.00000000000E+00 0. -1.
         21   -1    0    0  502  503 -0.00000000000E+00 -0.00000000000E+00 -0.33639293017E+01  0.33639293017E+01  0.00000000000E+00 0.  1.
          5    1    1    2  501    0 -0.83365860935E+01 -0.41325511537E+01  0.71703058258E+02  0.72456850679E+02  0.47000000000E+01 0. -1.
         -5    1    1    2    0  503  0.83365860935E+01  0.41325511537E+01  0.61078315627E+01  0.12081897745E+02  0.47000000000E+01 0.  1.
<mgrwt>
<rscale>  2 0.10424330E+02</rscale>
<asrwt>0</asrwt>
<pdfrwt beam="1">  1       21 0.12488432E-01 0.10424330E+02</pdfrwt>
<pdfrwt beam="2">  1       21 0.51752765E-03 0.10424330E+02</pdfrwt>
<totfact> 0.26788244E+08</totfact>
</mgrwt>
</event>
<event>
 4    1  0.3858687E+006  0.6256099E+01  0.7546771E-02  0.2383238E+00
         21   -1    0    0  501  502  0.00000000000E+00  0.00000000000E+00  0.18187145788E+02  0.18187145788E+02  0.00000000000E+00 0. -1.
         21   -1    0    0  502  503 -0.00000000000E+00 -0.00000000000E+00 -0.29243959307E+01  0.29243959307E+01  0.00000000000E+00 0.  1.
          5    1    1    2  501    0 -0.35194408761E+01  0.21592376242E+01  0.22064798881E+01  0.66338016774E+01  0.47000000000E+01 0.  1.
         -5    1    1    2    0  503  0.35194408761E+01 -0.21592376242E+01  0.13056269969E+02  0.14477740041E+02  0.47000000000E+01 0. -1.
<mgrwt>
<rscale>  2 0.62560987E+01</rscale>
<asrwt>0</asrwt>
<pdfrwt beam="1">  1       21 0.27980224E-02 0.62560987E+01</pdfrwt>
<pdfrwt beam="2">  1       21 0.44990708E-03 0.62560987E+01</pdfrwt>
<totfact> 0.22954629E+09</totfact>
</mgrwt>
</event>
<event>
 4    1  0.3858687E+006  0.8059986E+01  0.7546771E-02  0.2205776E+00
         21   -1    0    0  501  502  0.00000000000E+00  0.00000000000E+00  0.16871797399E+01  0.16871797399E+01  0.00000000000E+00 0. -1.
         21   -1    0    0  502  503 -0.00000000000E+00 -0.00000000000E+00 -0.55213647062E+02  0.55213647062E+02  0.00000000000E+00 0.  1.
          5    1    1    2  501    0 -0.26768715137E+01 -0.59755948401E+01 -0.11112041811E+02  0.13727375860E+02  0.47000000000E+01 0. -1.
         -5    1    1    2    0  503  0.26768715137E+01  0.59755948401E+01 -0.42414425510E+02  0.43173450941E+02  0.47000000000E+01 0.  1.
<mgrwt>
<rscale>  2 0.80599860E+01</rscale>
<asrwt>0</asrwt>
<pdfrwt beam="1">  1       21 0.25956614E-03 0.80599860E+01</pdfrwt>
<pdfrwt beam="2">  1       21 0.84944064E-02 0.80599860E+01</pdfrwt>
<totfact> 0.11273629E+09</totfact>
</mgrwt>
</event>
<event>
 4    1  0.3858687E+006  0.6915268E+01  0.7546771E-02  0.2309622E+00
         21   -1    0    0  501  502  0.00000000000E+00  0.00000000000E+00  0.50439706769E+01  0.50439706769E+01  0.00000000000E+00 0. -1.
         21   -1    0    0  502  503 -0.00000000000E+00 -0.00000000000E+00 -0.11554043563E+02  0.11554043563E+02  0.00000000000E+00 0. -1.
          5    1    1    2  501    0  0.40970979431E+01 -0.29907722028E+01  0.26043200765E+00  0.69201701391E+01  0.47000000000E+01 0. -1.
         -5    1    1    2    0  503 -0.40970979431E+01  0.29907722028E+01 -0.67705048942E+01  0.96778441012E+01  0.47000000000E+01 0. -1.
<mgrwt>
<rscale>  2 0.69152679E+01</rscale>
<asrwt>0</asrwt>
<pdfrwt beam="1">  1       21 0.77599550E-03 0.69152679E+01</pdfrwt>
<pdfrwt beam="2">  1       21 0.17775451E-02 0.69152679E+01</pdfrwt>
<totfact> 0.22388783E+09</totfact>
</mgrwt>
</event>
<event>
 4    1  0.3858687E+006  0.5246098E+01  0.7546771E-02  0.2525264E+00
         21   -1    0    0  501  502  0.00000000000E+00  0.00000000000E+00  0.11456079098E+02  0.11456079098E+02  0.00000000000E+00 0. -1.
         21   -1    0    0  502  503 -0.00000000000E+00 -0.00000000000E+00 -0.27723929624E+02  0.27723929624E+02  0.00000000000E+00 0. -1.
          5    1    1    2  501    0 -0.11930374956E+01 -0.20020491689E+01  0.10588086568E+02  0.11816476484E+02  0.47000000000E+01 0. -1.
         -5    1    1    2    0  503  0.11930374956E+01  0.20020491689E+01 -0.26855937094E+02  0.27363532238E+02  0.47000000000E+01 0. -1.
<mgrwt>
<rscale>  2 0.52460975E+01</rscale>
<asrwt>0</asrwt>
<pdfrwt beam="1">  1       21 0.17624737E-02 0.52460975E+01</pdfrwt>
<pdfrwt beam="2">  1       21 0.42652199E-02 0.52460975E+01</pdfrwt>
<totfact> 0.15849074E+08</totfact>
</mgrwt>
</event>
<event>
 4    1  0.3858687E+006  0.5310855E+01  0.7546771E-02  0.2514796E+00
         21   -1    0    0  501  502  0.00000000000E+00  0.00000000000E+00  0.10198433946E+03  0.10198433946E+03  0.00000000000E+00 0. -1.
         21   -1    0    0  502  503 -0.00000000000E+00 -0.00000000000E+00 -0.74505479225E+00  0.74505479225E+00  0.00000000000E+00 0. -1.
          5    1    1    2  501    0 -0.68165721318E+00 -0.23770827556E+01  0.91350282545E+02  0.91504531582E+02  0.47000000000E+01 0. -1.
         -5    1    1    2    0  503  0.68165721318E+00  0.23770827556E+01  0.98890021229E+01  0.11224862670E+02  0.47000000000E+01 0. -1.
<mgrwt>
<rscale>  2 0.53108548E+01</rscale>
<asrwt>0</asrwt>
<pdfrwt beam="1">  1       21 0.15689887E-01 0.53108548E+01</pdfrwt>
<pdfrwt beam="2">  1       21 0.11462389E-03 0.53108548E+01</pdfrwt>
<totfact> 0.96574206E+08</totfact>
</mgrwt>
</event>
<event>
 4    1  0.3858687E+006  0.7091060E+01  0.7546771E-02  0.2291910E+00
         21   -1    0    0  501  502  0.00000000000E+00  0.00000000000E+00  0.51066981717E+02  0.51066981717E+02  0.00000000000E+00 0. -1.
         21   -1    0    0  502  503 -0.00000000000E+00 -0.00000000000E+00 -0.10136091455E+01  0.10136091455E+01  0.00000000000E+00 0.  1.
          5    1    1    2  501    0 -0.53089426974E+01  0.90874078577E-01  0.29428174436E+02  0.30270457236E+02  0.47000000000E+01 0.  1.
         -5    1    1    2    0  503  0.53089426974E+01 -0.90874078577E-01  0.20625198136E+02  0.21810133626E+02  0.47000000000E+01 0.  1.
<mgrwt>
<rscale>  2 0.70910599E+01</rscale>
<asrwt>0</asrwt>
<pdfrwt beam="1">  1       21 0.78564567E-02 0.70910599E+01</pdfrwt>
<pdfrwt beam="2">  1       21 0.15593991E-03 0.70910599E+01</pdfrwt>
<totfact> 0.23443840E+09</totfact>
</mgrwt>
</event>
<event>
 4    1  0.3858687E+006  0.1037228E+02  0.7546771E-02  0.2054400E+00
         21   -1    0    0  501  502  0.00000000000E+00  0.00000000000E+00  0.11930820894E+02  0.11930820894E+02  0.00000000000E+00 0. -1.
         21   -1    0    0  502  503 -0.00000000000E+00 -0.00000000000E+00 -0.92339465169E+01  0.92339465169E+01  0.00000000000E+00 0.  1.
          5    1    1    2  501    0  0.92189280806E+01  0.71108166691E+00  0.29692217197E+01  0.10788908643E+02  0.47000000000E+01 0. -1.
         -5    1    1    2    0  503 -0.92189280806E+01 -0.71108166691E+00 -0.27234734265E+00  0.10375858768E+02  0.47000000000E+01 0.  1.
<mgrwt>
<rscale>  2 0.10372284E+02</rscale>
<asrwt>0</asrwt>
<pdfrwt beam="1">  1       21 0.18355109E-02 0.10372284E+02</pdfrwt>
<pdfrwt beam="2">  1       21 0.14206071E-02 0.10372284E+02</pdfrwt>
<totfact> 0.11773740E+09</totfact>
</mgrwt>
</event>
<event>
 4    1  0.3858687E+006  0.5550373E+01  0.7546771E-02  0.2477895E+00
         21   -1    0    0  501  502  0.00000000000E+00  0.00000000000E+00  0.18962597202E+02  0.18962597202E+02  0.00000000000E+00 0.  1.
         21   -1    0    0  502  503 -0.00000000000E+00 -0.00000000000E+00 -0.27710095736E+01  0.27710095736E+01  0.00000000000E+00 0. -1.
          5    1    1    2  501    0 -0.12259209163E+01 -0.26858436437E+01  0.15085399418E+02  0.16074075830E+02  0.47000000000E+01 0. -1.
         -5    1    1    2    0  503  0.12259209163E+01  0.26858436437E+01  0.11061882103E+01  0.56595309460E+01  0.47000000000E+01 0.  1.
<mgrwt>
<rscale>  2 0.55503728E+01</rscale>
<asrwt>0</asrwt>
<pdfrwt beam="1">  1       21 0.29173226E-02 0.55503728E+01</pdfrwt>
<pdfrwt beam="2">  1       21 0.42630918E-03 0.55503728E+01</pdfrwt>
<totfact> 0.20970155E+09</totfact>
</mgrwt>
</event>
<event>
 4    1  0.3858687E+006  0.5686215E+01  0.7546771E-02  0.2458145E+00
         21   -1    0    0  503  502  0.00000000000E+00  0.00000000000E+00  0.30113341243E+00  0.30113341243E+00  0.00000000000E+00 0.  1.
         21   -1    0    0  501  503 -0.00000000000E+00 -0.00000000000E+00 -0.14603124493E+03  0.14603124493E+03  0.00000000000E+00 0.  1.
          5    1    1    2  501    0  0.31169399015E+01 -0.72644901457E+00 -0.11051106700E+03  0.11065725902E+03  0.47000000000E+01 0.  1.
         -5    1    1    2    0  502 -0.31169399015E+01  0.72644901457E+00 -0.35219044512E+02  0.35675119325E+02  0.47000000000E+01 0.  1.
<mgrwt>
<rscale>  2 0.56862151E+01</rscale>
<asrwt>0</asrwt>
<pdfrwt beam="1">  1       21 0.46328215E-04 0.56862151E+01</pdfrwt>
<pdfrwt beam="2">  1       21 0.22466347E-01 0.56862151E+01</pdfrwt>
<totfact> 0.19313406E+09</totfact>
</mgrwt>
</event>
<event>
 4    1  0.3858687E+006  0.8181533E+01  0.7546771E-02  0.2196147E+00
         21   -1    0    0  503  502  0.00000000000E+00  0.00000000000E+00  0.24038863727E+04  0.24038863727E+04  0.00000000000E+00 0. -1.
         21   -1    0    0  501  503 -0.00000000000E+00 -0.00000000000E+00 -0.38348602529E+00  0.38348602529E+00  0.00000000000E+00 0.  1.
          5    1    1    2  501    0  0.18630911642E+01  0.64324472368E+01  0.44083388701E+02  0.44836175635E+02  0.47000000000E+01 0.  1.
         -5    1    1    2    0  502 -0.18630911642E+01 -0.64324472368E+01  0.23594194980E+04  0.23594336831E+04  0.47000000000E+01 0. -1.
<mgrwt>
<rscale>  2 0.81815332E+01</rscale>
<asrwt>0</asrwt>
<pdfrwt beam="1">  1       21 0.36981661E+00 0.81815332E+01</pdfrwt>
<pdfrwt beam="2">  1       21 0.58999775E-04 0.81815332E+01</pdfrwt>
<totfact> 0.47064485E+06</totfact>
</mgrwt>
</event>
<event>
 4    1  0.3858687E+006  0.1312702E+02  0.7546771E-02  0.1931258E+00
         21   -1    0    0  501  502  0.00000000000E+00  0.00000000000E+00  0.17165701865E+00  0.17165701865E+00  0.00000000000E+00 0.  1.
         21   -1    0    0  502  503 -0.00000000000E+00 -0.00000000000E+00 -0.10622461976E+04  0.10622461976E+04  0.00000000000E+00 0.  1.
          5    1    1    2  501    0 -0.55896202980E+01  0.10908013274E+02 -0.40649130420E+03  0.40670320751E+03  0.47000000000E+01 0.  1.
         -5    1    1    2    0  503  0.55896202980E+01 -0.10908013274E+02 -0.65558323642E+03  0.65571464715E+03  0.47000000000E+01 0.  1.
<mgrwt>
<rscale>  2 0.13127018E+02</rscale>
<asrwt>0</asrwt>
<pdfrwt beam="1">  1       21 0.26408762E-04 0.13127018E+02</pdfrwt>
<pdfrwt beam="2">  1       21 0.16342256E+00 0.13127018E+02</pdfrwt>
<totfact> 0.14432583E+08</totfact>
</mgrwt>
</event>
<event>
 4    1  0.3858687E+006  0.6282283E+01  0.7546771E-02  0.2380071E+00
         21   -1    0    0  501  502  0.00000000000E+00  0.00000000000E+00  0.40633301880E+01  0.40633301880E+01  0.00000000000E+00 0.  1.
         21   -1    0    0  502  503 -0.00000000000E+00 -0.00000000000E+00 -0.11790682002E+02  0.11790682002E+02  0.00000000000E+00 0. -1.
          5    1    1    2  501    0 -0.26738435010E+01  0.31980690882E+01 -0.53608195498E+00  0.63051144972E+01  0.47000000000E+01 0.  1.
         -5    1    1    2    0  503  0.26738435010E+01 -0.31980690882E+01 -0.71912698585E+01  0.95488976923E+01  0.47000000000E+01 0. -1.
<mgrwt>
<rscale>  2 0.62822834E+01</rscale>
<asrwt>0</asrwt>
<pdfrwt beam="1">  1       21 0.62512774E-03 0.62822834E+01</pdfrwt>
<pdfrwt beam="2">  1       21 0.18139510E-02 0.62822834E+01</pdfrwt>
<totfact> 0.27245340E+09</totfact>
</mgrwt>
</event>
<event>
 4    1  0.3858687E+006  0.5709665E+01  0.7546771E-02  0.2454816E+00
         21   -1    0    0  503  502  0.00000000000E+00  0.00000000000E+00  0.33403454659E+02  0.33403454659E+02  0.00000000000E+00 0. -1.
         21   -1    0    0  501  503 -0.00000000000E+00 -0.00000000000E+00 -0.18057245778E+01  0.18057245778E+01  0.00000000000E+00 0. -1.
          5    1    1    2  501    0  0.28672291728E+01 -0.15130339908E+01  0.38650622989E+01  0.68948518158E+01  0.47000000000E+01 0. -1.
         -5    1    1    2    0  502 -0.28672291728E+01  0.15130339908E+01  0.27732667782E+02  0.28314327421E+02  0.47000000000E+01 0. -1.
<mgrwt>
<rscale>  2 0.57096651E+01</rscale>
<asrwt>0</asrwt>
<pdfrwt beam="1">  1       21 0.51389926E-02 0.57096651E+01</pdfrwt>
<pdfrwt beam="2">  1       21 0.27780381E-03 0.57096651E+01</pdfrwt>
<totfact> 0.16919947E+09</totfact>
</mgrwt>
</event>
<event>
 4    1  0.3858687E+006  0.4816732E+01  0.7546771E-02  0.2600730E+00
         21   -1    0    0  503  502  0.00000000000E+00  0.00000000000E+00  0.35221086895E+00  0.35221086895E+00  0.00000000000E+00 0. -1.
         21   -1    0    0  501  503 -0.00000000000E+00 -0.00000000000E+00 -0.99186279177E+02  0.99186279177E+02  0.00000000000E+00 0. -1.
          5    1    1    2  501    0 -0.68420202845E-01  0.10517738423E+01 -0.78260608142E+02  0.78408696561E+02  0.47000000000E+01 0. -1.
         -5    1    1    2    0  502  0.68420202845E-01 -0.10517738423E+01 -0.20573460166E+02  0.21129793485E+02  0.47000000000E+01 0. -1.
<mgrwt>
<rscale>  2 0.48167322E+01</rscale>
<asrwt>0</asrwt>
<pdfrwt beam="1">  1       21 0.54186304E-04 0.48167322E+01</pdfrwt>
<pdfrwt beam="2">  1       21 0.15259423E-01 0.48167322E+01</pdfrwt>
<totfact> 0.24905155E+09</totfact>
</mgrwt>
</event>
<event>
 4    1  0.3858687E+006  0.5089012E+01  0.7546771E-02  0.2551601E+00
         21   -1    0    0  501  502  0.00000000000E+00  0.00000000000E+00  0.40470157742E+02  0.40470157742E+02  0.00000000000E+00 0. -1.
         21   -1    0    0  502  503 -0.00000000000E+00 -0.00000000000E+00 -0.99489141295E+00  0.99489141295E+00  0.00000000000E+00 0. -1.
          5    1    1    2  501    0  0.18744844566E+01  0.54254417042E+00  0.32121470841E+02  0.32522099181E+02  0.47000000000E+01 0. -1.
         -5    1    1    2    0  503 -0.18744844566E+01 -0.54254417042E+00  0.73537954879E+01  0.89429499737E+01  0.47000000000E+01 0. -1.
<mgrwt>
<rscale>  2 0.50890123E+01</rscale>
<asrwt>0</asrwt>
<pdfrwt beam="1">  1       21 0.62261769E-02 0.50890123E+01</pdfrwt>
<pdfrwt beam="2">  1       21 0.15306025E-03 0.50890123E+01</pdfrwt>
<totfact> 0.25656236E+09</totfact>
</mgrwt>
</event>
<event>
 4    1  0.3858687E+006  0.6470146E+01  0.7546771E-02  0.2357975E+00
         21   -1    0    0  503  502  0.00000000000E+00  0.00000000000E+00  0.12793401386E+01  0.12793401386E+01  0.00000000000E+00 0.  1.
         21   -1    0    0  501  503 -0.00000000000E+00 -0.00000000000E+00 -0.38297263354E+03  0.38297263354E+03  0.00000000000E+00 0. -1.
          5    1    1    2  501    0  0.33719080869E+01 -0.28987971808E+01 -0.37458152166E+03  0.37463739691E+03  0.47000000000E+01 0. -1.
         -5    1    1    2    0  502 -0.33719080869E+01  0.28987971808E+01 -0.71117717359E+01  0.96145767700E+01  0.47000000000E+01 0.  1.
<mgrwt>
<rscale>  2 0.64701460E+01</rscale>
<asrwt>0</asrwt>
<pdfrwt beam="1">  1       21 0.19682117E-03 0.64701460E+01</pdfrwt>
<pdfrwt beam="2">  1       21 0.58918983E-01 0.64701460E+01</pdfrwt>
<totfact> 0.56779420E+07</totfact>
</mgrwt>
</event>
<event>
 4    1  0.3858687E+006  0.1386626E+02  0.7546771E-02  0.1904774E+00
         21   -1    0    0  503  502  0.00000000000E+00  0.00000000000E+00  0.58396945268E+02  0.58396945268E+02  0.00000000000E+00 0.  1.
         21   -1    0    0  501  503 -0.00000000000E+00 -0.00000000000E+00 -0.10388530960E+02  0.10388530960E+02  0.00000000000E+00 0. -1.
          5    1    1    2  501    0 -0.61963926495E+01 -0.11479893485E+02 -0.44205495605E+01  0.14553848106E+02  0.47000000000E+01 0. -1.
         -5    1    1    2    0  502  0.61963926495E+01  0.11479893485E+02  0.52428963869E+02  0.54231628121E+02  0.47000000000E+01 0.  1.
<mgrwt>
<rscale>  2 0.13866263E+02</rscale>
<asrwt>0</asrwt>
<pdfrwt beam="1">  1       21 0.89841452E-02 0.13866263E+02</pdfrwt>
<pdfrwt beam="2">  1       21 0.15982356E-02 0.13866263E+02</pdfrwt>
<totfact> 0.99247265E+07</totfact>
</mgrwt>
</event>
<event>
 4    1  0.3858687E+006  0.6383064E+01  0.7546771E-02  0.2368083E+00
         21   -1    0    0  503  502  0.00000000000E+00  0.00000000000E+00  0.87538291008E+01  0.87538291008E+01  0.00000000000E+00 0. -1.
         21   -1    0    0  501  503 -0.00000000000E+00 -0.00000000000E+00 -0.45247142284E+02  0.45247142284E+02  0.00000000000E+00 0. -1.
          5    1    1    2  501    0 -0.29923170293E+01 -0.31144101980E+01 -0.43820758065E+02  0.44283206179E+02  0.47000000000E+01 0. -1.
         -5    1    1    2    0  502  0.29923170293E+01  0.31144101980E+01  0.73274448823E+01  0.97177652055E+01  0.47000000000E+01 0. -1.
<mgrwt>
<rscale>  2 0.63830645E+01</rscale>
<asrwt>0</asrwt>
<pdfrwt beam="1">  1       21 0.13467429E-02 0.63830645E+01</pdfrwt>
<pdfrwt beam="2">  1       21 0.69610988E-02 0.63830645E+01</pdfrwt>
<totfact> 0.12910760E+08</totfact>
</mgrwt>
</event>
<event>
 4    1  0.3858687E+006  0.5856897E+01  0.7546771E-02  0.2434429E+00
         21   -1    0    0  503  502  0.00000000000E+00  0.00000000000E+00  0.18414765773E+00  0.18414765773E+00  0.00000000000E+00 0.  1.
         21   -1    0    0  501  503 -0.00000000000E+00 -0.00000000000E+00 -0.19780016088E+03  0.19780016088E+03  0.00000000000E+00 0.  1.
          5    1    1    2  501    0  0.25855670202E+01  0.23511890995E+01 -0.74919221035E+02  0.75147807203E+02  0.47000000000E+01 0.  1.
         -5    1    1    2    0  502 -0.25855670202E+01 -0.23511890995E+01 -0.12269679218E+03  0.12283650133E+03  0.47000000000E+01 0.  1.
<mgrwt>
<rscale>  2 0.58568974E+01</rscale>
<asrwt>0</asrwt>
<pdfrwt beam="1">  1       21 0.28330463E-04 0.58568974E+01</pdfrwt>
<pdfrwt beam="2">  1       21 0.30430736E-01 0.58568974E+01</pdfrwt>
<totfact> 0.23084257E+09</totfact>
</mgrwt>
</event>
<event>
 4    1  0.3858687E+006  0.7416941E+01  0.7546771E-02  0.2260905E+00
         21   -1    0    0  503  502  0.00000000000E+00  0.00000000000E+00  0.11867786804E+02  0.11867786804E+02  0.00000000000E+00 0. -1.
         21   -1    0    0  501  503 -0.00000000000E+00 -0.00000000000E+00 -0.46363491084E+01  0.46363491084E+01  0.00000000000E+00 0.  1.
          5    1    1    2  501    0  0.54814371213E+01  0.16955429680E+01  0.37385145012E+01  0.83058719919E+01  0.47000000000E+01 0. -1.
         -5    1    1    2    0  502 -0.54814371213E+01 -0.16955429680E+01  0.34929231946E+01  0.81982639207E+01  0.47000000000E+01 0. -1.
<mgrwt>
<rscale>  2 0.74169413E+01</rscale>
<asrwt>0</asrwt>
<pdfrwt beam="1">  1       21 0.18258133E-02 0.74169413E+01</pdfrwt>
<pdfrwt beam="2">  1       21 0.71328448E-03 0.74169413E+01</pdfrwt>
<totfact> 0.25618094E+09</totfact>
</mgrwt>
</event>
<event>
 4    1  0.3858687E+006  0.4872581E+01  0.7546771E-02  0.2590267E+00
         21   -1    0    0  501  502  0.00000000000E+00  0.00000000000E+00  0.15216499157E+03  0.15216499157E+03  0.00000000000E+00 0. -1.
         21   -1    0    0  502  503 -0.00000000000E+00 -0.00000000000E+00 -0.15963138740E+00  0.15963138740E+00  0.00000000000E+00 0. -1.
          5    1    1    2  501    0 -0.80877749764E+00  0.99896014006E+00  0.87445139511E+02  0.87580788227E+02  0.47000000000E+01 0. -1.
         -5    1    1    2    0  503  0.80877749764E+00 -0.99896014006E+00  0.64560220669E+02  0.64743834728E+02  0.47000000000E+01 0. -1.
<mgrwt>
<rscale>  2 0.48725807E+01</rscale>
<asrwt>0</asrwt>
<pdfrwt beam="1">  1       21 0.23409883E-01 0.48725807E+01</pdfrwt>
<pdfrwt beam="2">  1       21 0.24558797E-04 0.48725807E+01</pdfrwt>
<totfact> 0.36488212E+09</totfact>
</mgrwt>
</event>
<event>
 4    1  0.3858687E+006  0.6227389E+01  0.7546771E-02  0.2386736E+00
         21   -1    0    0  501  502  0.00000000000E+00  0.00000000000E+00  0.86377800810E+00  0.86377800810E+00  0.00000000000E+00 0. -1.
         21   -1    0    0  502  503 -0.00000000000E+00 -0.00000000000E+00 -0.45151779245E+02  0.45151779245E+02  0.00000000000E+00 0. -1.
          5    1    1    2  501    0 -0.22305593997E+01 -0.34227158069E+01 -0.20413100573E+02  0.21341861534E+02  0.47000000000E+01 0. -1.
         -5    1    1    2    0  503  0.22305593997E+01  0.34227158069E+01 -0.23874900664E+02  0.24673695720E+02  0.47000000000E+01 0. -1.
<mgrwt>
<rscale>  2 0.62273894E+01</rscale>
<asrwt>0</asrwt>
<pdfrwt beam="1">  1       21 0.13288887E-03 0.62273894E+01</pdfrwt>
<pdfrwt beam="2">  1       21 0.69464302E-02 0.62273894E+01</pdfrwt>
<totfact> 0.31668660E+09</totfact>
</mgrwt>
</event>
<event>
 4    1  0.3858687E+006  0.5359875E+01  0.7546771E-02  0.2507016E+00
         21   -1    0    0  503  502  0.00000000000E+00  0.00000000000E+00  0.29312530247E+03  0.29312530247E+03  0.00000000000E+00 0. -1.
         21   -1    0    0  501  503 -0.00000000000E+00 -0.00000000000E+00 -0.98142348060E-01  0.98142348060E-01  0.00000000000E+00 0. -1.
          5    1    1    2  501    0 -0.22027239342E+01  0.13365130219E+01  0.14106405390E+03  0.14116584418E+03  0.47000000000E+01 0. -1.
         -5    1    1    2    0  502  0.22027239342E+01 -0.13365130219E+01  0.15196310622E+03  0.15205760063E+03  0.47000000000E+01 0. -1.
<mgrwt>
<rscale>  2 0.53598750E+01</rscale>
<asrwt>0</asrwt>
<pdfrwt beam="1">  1       21 0.45095499E-01 0.53598750E+01</pdfrwt>
<pdfrwt beam="2">  1       21 0.15099057E-04 0.53598750E+01</pdfrwt>
<totfact> 0.25192269E+09</totfact>
</mgrwt>
</event>
<event>
 4    1  0.3858687E+006  0.1198374E+02  0.7546771E-02  0.1977040E+00
         21   -1    0    0  501  502  0.00000000000E+00  0.00000000000E+00  0.48637386194E+00  0.48637386194E+00  0.00000000000E+00 0.  1.
         21   -1    0    0  502  503 -0.00000000000E+00 -0.00000000000E+00 -0.40146332593E+03  0.40146332593E+03  0.00000000000E+00 0. -1.
          5    1    1    2  501    0  0.10272118736E+02 -0.40004457881E+01 -0.97123312106E+02  0.97859837238E+02  0.47000000000E+01 0.  1.
         -5    1    1    2    0  503 -0.10272118736E+02  0.40004457881E+01 -0.30385363997E+03  0.30408986256E+03  0.47000000000E+01 0. -1.
<mgrwt>
<rscale>  2 0.11983739E+02</rscale>
<asrwt>0</asrwt>
<pdfrwt beam="1">  1       21 0.74826818E-04 0.11983739E+02</pdfrwt>
<pdfrwt beam="2">  1       21 0.61763531E-01 0.11983739E+02</pdfrwt>
<totfact> 0.26228443E+08</totfact>
</mgrwt>
</event>
<event>
 4    1  0.3858687E+006  0.5466952E+01  0.7546771E-02  0.2490435E+00
         21   -1    0    0  501  502  0.00000000000E+00  0.00000000000E+00  0.18810677119E+02  0.18810677119E+02  0.00000000000E+00 0. -1.
         21   -1    0    0  502  503 -0.00000000000E+00 -0.00000000000E+00 -0.47215176797E+01  0.47215176797E+01  0.00000000000E+00 0.  1.
          5    1    1    2  501    0 -0.27058506567E+01  0.68987824905E+00  0.16628606053E+02  0.17504230890E+02  0.47000000000E+01 0. -1.
         -5    1    1    2    0  503  0.27058506567E+01 -0.68987824905E+00 -0.25394466143E+01  0.60279639085E+01  0.47000000000E+01 0.  1.
<mgrwt>
<rscale>  2 0.54669516E+01</rscale>
<asrwt>0</asrwt>
<pdfrwt beam="1">  1       21 0.28939503E-02 0.54669516E+01</pdfrwt>
<pdfrwt beam="2">  1       21 0.72638735E-03 0.54669516E+01</pdfrwt>
<totfact> 0.10007219E+09</totfact>
</mgrwt>
</event>
<event>
 4    1  0.3858687E+006  0.5972823E+01  0.7546771E-02  0.2418974E+00
         21   -1    0    0  503  502  0.00000000000E+00  0.00000000000E+00  0.61110250603E+00  0.61110250603E+00  0.00000000000E+00 0. -1.
         21   -1    0    0  501  503 -0.00000000000E+00 -0.00000000000E+00 -0.60702549381E+02  0.60702549381E+02  0.00000000000E+00 0. -1.
          5    1    1    2  501    0  0.32204969484E+01 -0.17924874088E+01 -0.36045617876E+02  0.36537120573E+02  0.47000000000E+01 0. -1.
         -5    1    1    2    0  502 -0.32204969484E+01  0.17924874088E+01 -0.24045828999E+02  0.24776531314E+02  0.47000000000E+01 0. -1.
<mgrwt>
<rscale>  2 0.59728228E+01</rscale>
<asrwt>0</asrwt>
<pdfrwt beam="1">  1       21 0.94015779E-04 0.59728228E+01</pdfrwt>
<pdfrwt beam="2">  1       21 0.93388529E-02 0.59728228E+01</pdfrwt>
<totfact> 0.31077999E+09</totfact>
</mgrwt>
</event>
<event>
 4    1  0.3858687E+006  0.5742143E+01  0.7546771E-02  0.2450243E+00
         21   -1    0    0  501  502  0.00000000000E+00  0.00000000000E+00  0.39146837472E+00  0.39146837472E+00  0.00000000000E+00 0. -1.
         21   -1    0    0  502  503 -0.00000000000E+00 -0.00000000000E+00 -0.88453112702E+02  0.88453112702E+02  0.00000000000E+00 0. -1.
          5    1    1    2  501    0 -0.32178830480E+01 -0.72624535663E+00 -0.34320909106E+02  0.34797945420E+02  0.47000000000E+01 0.  1.
         -5    1    1    2    0  503  0.32178830480E+01  0.72624535663E+00 -0.53740735221E+02  0.54046635656E+02  0.47000000000E+01 0.  1.
<mgrwt>
<rscale>  2 0.57421428E+01</rscale>
<asrwt>0</asrwt>
<pdfrwt beam="1">  1       21 0.60225859E-04 0.57421428E+01</pdfrwt>
<pdfrwt beam="2">  1       21 0.13608181E-01 0.57421428E+01</pdfrwt>
<totfact> 0.30480676E+09</totfact>
</mgrwt>
</event>
<event>
 4    1  0.3858687E+006  0.7282729E+01  0.7546771E-02  0.2273400E+00
         21   -1    0    0  501  502  0.00000000000E+00  0.00000000000E+00  0.16046388013E+03  0.16046388013E+03  0.00000000000E+00 0.  1.
         21   -1    0    0  502  503 -0.00000000000E+00 -0.00000000000E+00 -0.36110950961E+00  0.36110950961E+00  0.00000000000E+00 0.  1.
          5    1    1    2  501    0  0.47799048507E+01 -0.28461655687E+01  0.10345151881E+03  0.10370754501E+03  0.47000000000E+01 0.  1.
         -5    1    1    2    0  503 -0.47799048507E+01  0.28461655687E+01  0.56651251812E+02  0.57117444627E+02  0.47000000000E+01 0.  1.
<mgrwt>
<rscale>  2 0.72827295E+01</rscale>
<asrwt>0</asrwt>
<pdfrwt beam="1">  1       21 0.24686694E-01 0.72827295E+01</pdfrwt>
<pdfrwt beam="2">  1       21 0.55555437E-04 0.72827295E+01</pdfrwt>
<totfact> 0.15637717E+09</totfact>
</mgrwt>
</event>
<event>
 4    1  0.3858687E+006  0.8011618E+01  0.7546771E-02  0.2209673E+00
         21   -1    0    0  503  502  0.00000000000E+00  0.00000000000E+00  0.60005388714E+01  0.60005388714E+01  0.00000000000E+00 0.  1.
         21   -1    0    0  501  503 -0.00000000000E+00 -0.00000000000E+00 -0.11286283317E+02  0.11286283317E+02  0.00000000000E+00 0. -1.
          5    1    1    2  501    0  0.63851491716E+01  0.11514766812E+01 -0.66736628762E+00  0.80393660355E+01  0.47000000000E+01 0.  1.
         -5    1    1    2    0  502 -0.63851491716E+01 -0.11514766812E+01 -0.46183781581E+01  0.92474561530E+01  0.47000000000E+01 0. -1.
<mgrwt>
<rscale>  2 0.80116183E+01</rscale>
<asrwt>0</asrwt>
<pdfrwt beam="1">  1       21 0.92315984E-03 0.80116183E+01</pdfrwt>
<pdfrwt beam="2">  1       21 0.17363513E-02 0.80116183E+01</pdfrwt>
<totfact> 0.20208952E+09</totfact>
</mgrwt>
</event>
<event>
 4    1  0.3858687E+006  0.8406298E+01  0.7546771E-02  0.2178934E+00
         21   -1    0    0  501  502  0.00000000000E+00  0.00000000000E+00  0.52744711084E-01  0.52744711084E-01  0.00000000000E+00 0.  1.
         21   -1    0    0  502  503 -0.00000000000E+00 -0.00000000000E+00 -0.17153294923E+04  0.17153294923E+04  0.00000000000E+00 0. -1.
          5    1    1    2  501    0 -0.61442763692E+01  0.32899419825E+01 -0.12589629477E+04  0.12589910125E+04  0.47000000000E+01 0. -1.
         -5    1    1    2    0  503  0.61442763692E+01 -0.32899419825E+01 -0.45631379991E+03  0.45639122454E+03  0.47000000000E+01 0.  1.
<mgrwt>
<rscale>  2 0.84062983E+01</rscale>
<asrwt>0</asrwt>
<pdfrwt beam="1">  1       21 0.81143979E-05 0.84062983E+01</pdfrwt>
<pdfrwt beam="2">  1       21 0.26390247E+00 0.84062983E+01</pdfrwt>
<totfact> 0.19283708E+08</totfact>
</mgrwt>
</event>
<event>
 4    1  0.3858687E+006  0.1021585E+02  0.7546771E-02  0.2062908E+00
         21   -1    0    0  501  502  0.00000000000E+00  0.00000000000E+00  0.80245195029E+00  0.80245195029E+00  0.00000000000E+00 0.  1.
         21   -1    0    0  502  503 -0.00000000000E+00 -0.00000000000E+00 -0.13283808772E+03  0.13283808772E+03  0.00000000000E+00 0. -1.
          5    1    1    2  501    0 -0.17595177505E+00  0.90687693828E+01 -0.75688281084E+02  0.76374599380E+02  0.47000000000E+01 0. -1.
         -5    1    1    2    0  503  0.17595177505E+00 -0.90687693828E+01 -0.56347354685E+02  0.57265940289E+02  0.47000000000E+01 0. -1.
<mgrwt>
<rscale>  2 0.10215847E+02</rscale>
<asrwt>0</asrwt>
<pdfrwt beam="1">  1       21 0.12345410E-03 0.10215847E+02</pdfrwt>
<pdfrwt beam="2">  1       21 0.20436637E-01 0.10215847E+02</pdfrwt>
<totfact> 0.88639616E+08</totfact>
</mgrwt>
</event>
<event>
 4    1  0.3858687E+006  0.5895373E+01  0.7546771E-02  0.2429243E+00
         21   -1    0    0  501  502  0.00000000000E+00  0.00000000000E+00  0.27769885460E+01  0.27769885460E+01  0.00000000000E+00 0. -1.
         21   -1    0    0  502  503 -0.00000000000E+00 -0.00000000000E+00 -0.13531143738E+02  0.13531143738E+02  0.00000000000E+00 0. -1.
          5    1    1    2  501    0 -0.33475593465E+01 -0.12080034618E+01 -0.31431160776E+01  0.66809134569E+01  0.47000000000E+01 0. -1.
         -5    1    1    2    0  503  0.33475593465E+01  0.12080034618E+01 -0.76110391142E+01  0.96272188268E+01  0.47000000000E+01 0. -1.
<mgrwt>
<rscale>  2 0.58953733E+01</rscale>
<asrwt>0</asrwt>
<pdfrwt beam="1">  1       21 0.42722901E-03 0.58953733E+01</pdfrwt>
<pdfrwt beam="2">  1       21 0.20817144E-02 0.58953733E+01</pdfrwt>
<totfact> 0.35893632E+09</totfact>
</mgrwt>
</event>
<event>
 4    1  0.3858687E+006  0.9125198E+01  0.7546771E-02  0.2128483E+00
         21   -1    0    0  501  502  0.00000000000E+00  0.00000000000E+00  0.66105263061E+02  0.66105263061E+02  0.00000000000E+00 0.  1.
         21   -1    0    0  502  503 -0.00000000000E+00 -0.00000000000E+00 -0.12596522282E+01  0.12596522282E+01  0.00000000000E+00 0. -1.
          5    1    1    2  501    0 -0.31362325127E+00  0.78154256581E+01  0.32497009828E+02  0.33753886969E+02  0.47000000000E+01 0.  1.
         -5    1    1    2    0  503  0.31362325127E+00 -0.78154256581E+01  0.32348601004E+02  0.33611028320E+02  0.47000000000E+01 0. -1.
<mgrwt>
<rscale>  2 0.91251980E+01</rscale>
<asrwt>0</asrwt>
<pdfrwt beam="1">  1       21 0.10170038E-01 0.91251980E+01</pdfrwt>
<pdfrwt beam="2">  1       21 0.19379270E-03 0.91251980E+01</pdfrwt>
<totfact> 0.13815664E+09</totfact>
</mgrwt>
</event>
<event>
 4    1  0.3858687E+006  0.6340550E+01  0.7546771E-02  0.2373101E+00
         21   -1    0    0  501  502  0.00000000000E+00  0.00000000000E+00  0.32398091962E+01  0.32398091962E+01  0.00000000000E+00 0. -1.
         21   -1    0    0  502  503 -0.00000000000E+00 -0.00000000000E+00 -0.28700227923E+02  0.28700227923E+02  0.00000000000E+00 0. -1.
          5    1    1    2  501    0  0.36756556692E+01 -0.21452586011E+01 -0.69813422879E+00  0.63788690585E+01  0.47000000000E+01 0. -1.
         -5    1    1    2    0  503 -0.36756556692E+01  0.21452586011E+01 -0.24762284498E+02  0.25561168060E+02  0.47000000000E+01 0. -1.
<mgrwt>
<rscale>  2 0.63405504E+01</rscale>
<asrwt>0</asrwt>
<pdfrwt beam="1">  1       21 0.49843218E-03 0.63405504E+01</pdfrwt>
<pdfrwt beam="2">  1       21 0.44154197E-02 0.63405504E+01</pdfrwt>
<totfact> 0.10305420E+09</totfact>
</mgrwt>
</event>
<event>
 4    1  0.3858687E+006  0.5087955E+01  0.7546771E-02  0.2551783E+00
         21   -1    0    0  501  502  0.00000000000E+00  0.00000000000E+00  0.23165527311E+01  0.23165527311E+01  0.00000000000E+00 0.  1.
         21   -1    0    0  502  503 -0.00000000000E+00 -0.00000000000E+00 -0.11340668076E+02  0.11340668076E+02  0.00000000000E+00 0. -1.
          5    1    1    2  501    0 -0.16983932803E+01  0.95538025128E+00 -0.36865189934E+01  0.62831292719E+01  0.47000000000E+01 0. -1.
         -5    1    1    2    0  503  0.16983932803E+01 -0.95538025128E+00 -0.53375963516E+01  0.73740915354E+01  0.47000000000E+01 0.  1.
<mgrwt>
<rscale>  2 0.50879555E+01</rscale>
<asrwt>0</asrwt>
<pdfrwt beam="1">  1       21 0.35639273E-03 0.50879555E+01</pdfrwt>
<pdfrwt beam="2">  1       21 0.17447182E-02 0.50879555E+01</pdfrwt>
<totfact> 0.51306223E+09</totfact>
</mgrwt>
</event>
<event>
 4    1  0.3858687E+006  0.5236142E+01  0.7546771E-02  0.2526893E+00
         21   -1    0    0  501  502  0.00000000000E+00  0.00000000000E+00  0.92293124583E+01  0.92293124583E+01  0.00000000000E+00 0. -1.
         21   -1    0    0  502  503 -0.00000000000E+00 -0.00000000000E+00 -0.83196768216E+01  0.83196768216E+01  0.00000000000E+00 0. -1.
          5    1    1    2  501    0 -0.22921514820E+01 -0.27060032157E+00  0.74904919924E+01  0.91391823069E+01  0.47000000000E+01 0. -1.
         -5    1    1    2    0  503  0.22921514820E+01  0.27060032157E+00 -0.65808563556E+01  0.84098069730E+01  0.47000000000E+01 0. -1.
<mgrwt>
<rscale>  2 0.52361420E+01</rscale>
<asrwt>0</asrwt>
<pdfrwt beam="1">  1       21 0.14198942E-02 0.52361420E+01</pdfrwt>
<pdfrwt beam="2">  1       21 0.12799503E-02 0.52361420E+01</pdfrwt>
<totfact> 0.12014222E+09</totfact>
</mgrwt>
</event>
<event>
 4    1  0.3858687E+006  0.7742355E+01  0.7546771E-02  0.2232081E+00
         21   -1    0    0  501  502  0.00000000000E+00  0.00000000000E+00  0.19779843599E+01  0.19779843599E+01  0.00000000000E+00 0. -1.
         21   -1    0    0  502  503 -0.00000000000E+00 -0.00000000000E+00 -0.10184935807E+03  0.10184935807E+03  0.00000000000E+00 0.  1.
          5    1    1    2  501    0  0.50121962928E+01  0.35681846385E+01 -0.64257561783E+01  0.10061530488E+02  0.47000000000E+01 0. -1.
         -5    1    1    2    0  503 -0.50121962928E+01 -0.35681846385E+01 -0.93445617527E+02  0.93765811938E+02  0.47000000000E+01 0.  1.
<mgrwt>
<rscale>  2 0.77423545E+01</rscale>
<asrwt>0</asrwt>
<pdfrwt beam="1">  1       21 0.30430523E-03 0.77423545E+01</pdfrwt>
<pdfrwt beam="2">  1       21 0.15669135E-01 0.77423545E+01</pdfrwt>
<totfact> 0.33475292E+08</totfact>
</mgrwt>
</event>
<event>
 4    1  0.3858687E+006  0.5474503E+01  0.7546771E-02  0.2489287E+00
         21   -1    0    0  501  502  0.00000000000E+00  0.00000000000E+00  0.40979408180E-01  0.40979408180E-01  0.00000000000E+00 0. -1.
         21   -1    0    0  502  503 -0.00000000000E+00 -0.00000000000E+00 -0.97386392700E+03  0.97386392700E+03  0.00000000000E+00 0.  1.
          5    1    1    2  501    0  0.22848488275E+01  0.16308420238E+01 -0.24391041239E+03  0.24397184151E+03  0.47000000000E+01 0. -1.
         -5    1    1    2    0  503 -0.22848488275E+01 -0.16308420238E+01 -0.72991253521E+03  0.72993306490E+03  0.47000000000E+01 0.  1.
<mgrwt>
<rscale>  2 0.54745027E+01</rscale>
<asrwt>0</asrwt>
<pdfrwt beam="1">  1       21 0.63041635E-05 0.54745027E+01</pdfrwt>
<pdfrwt beam="2">  1       21 0.14983380E+00 0.54745027E+01</pdfrwt>
<totfact> 0.79347235E+08</totfact>
</mgrwt>
</event>
<event>
 4    1  0.3858687E+006  0.1052458E+02  0.7546771E-02  0.2046308E+00
         21   -1    0    0  501  502  0.00000000000E+00  0.00000000000E+00  0.18526138745E+00  0.18526138745E+00  0.00000000000E+00 0. -1.
         21   -1    0    0  502  503 -0.00000000000E+00 -0.00000000000E+00 -0.73836317685E+03  0.73836317685E+03  0.00000000000E+00 0. -1.
          5    1    1    2  501    0  0.18023466375E+01 -0.92427414394E+01 -0.20802288516E+03  0.20828895188E+03  0.47000000000E+01 0. -1.
         -5    1    1    2    0  503 -0.18023466375E+01  0.92427414394E+01 -0.53015503030E+03  0.53025948637E+03  0.47000000000E+01 0. -1.
<mgrwt>
<rscale>  2 0.10524577E+02</rscale>
<asrwt>0</asrwt>
<pdfrwt beam="1">  1       21 0.28501353E-04 0.10524577E+02</pdfrwt>
<pdfrwt beam="2">  1       21 0.11359592E+00 0.10524577E+02</pdfrwt>
<totfact> 0.26943378E+08</totfact>
</mgrwt>
</event>
<event>
 4    1  0.3858687E+006  0.6807355E+01  0.7546771E-02  0.2320865E+00
         21   -1    0    0  501  502  0.00000000000E+00  0.00000000000E+00  0.38626813139E+01  0.38626813139E+01  0.00000000000E+00 0. -1.
         21   -1    0    0  502  503 -0.00000000000E+00 -0.00000000000E+00 -0.47541424196E+02  0.47541424196E+02  0.00000000000E+00 0.  1.
          5    1    1    2  501    0  0.55821536414E+00  0.48926957490E+01  0.38442587697E+00  0.68182005940E+01  0.47000000000E+01 0. -1.
         -5    1    1    2    0  503 -0.55821536414E+00 -0.48926957490E+01 -0.44063168759E+02  0.44585904916E+02  0.47000000000E+01 0.  1.
<mgrwt>
<rscale>  2 0.68073546E+01</rscale>
<asrwt>0</asrwt>
<pdfrwt beam="1">  1       21 0.59425866E-03 0.68073546E+01</pdfrwt>
<pdfrwt beam="2">  1       21 0.73140653E-02 0.68073546E+01</pdfrwt>
<totfact> 0.39793990E+08</totfact>
</mgrwt>
</event>
<event>
 4    1  0.3858687E+006  0.7432206E+01  0.7546771E-02  0.2259508E+00
         21   -1    0    0  503  502  0.00000000000E+00  0.00000000000E+00  0.29700051230E+01  0.29700051230E+01  0.00000000000E+00 0.  1.
         21   -1    0    0  501  503 -0.00000000000E+00 -0.00000000000E+00 -0.10753430150E+03  0.10753430150E+03  0.00000000000E+00 0. -1.
          5    1    1    2  501    0  0.41886662023E+01 -0.39500335779E+01 -0.10252959161E+03  0.10279861306E+03  0.47000000000E+01 0. -1.
         -5    1    1    2    0  502 -0.41886662023E+01  0.39500335779E+01 -0.20347047589E+01  0.77056935624E+01  0.47000000000E+01 0.  1.
<mgrwt>
<rscale>  2 0.74322063E+01</rscale>
<asrwt>0</asrwt>
<pdfrwt beam="1">  1       21 0.45692388E-03 0.74322063E+01</pdfrwt>
<pdfrwt beam="2">  1       21 0.16543738E-01 0.74322063E+01</pdfrwt>
<totfact> 0.16953365E+08</totfact>
</mgrwt>
</event>
<event>
 4    1  0.3858687E+006  0.5954718E+01  0.7546771E-02  0.2421355E+00
         21   -1    0    0  501  502  0.00000000000E+00  0.00000000000E+00  0.63570607244E+01  0.63570607244E+01  0.00000000000E+00 0.  1.
         21   -1    0    0  502  503 -0.00000000000E+00 -0.00000000000E+00 -0.55815016987E+01  0.55815016987E+01  0.00000000000E+00 0.  1.
          5    1    1    2  501    0  0.32305991224E+01 -0.17122775296E+01  0.54068100317E+00  0.59792140767E+01  0.47000000000E+01 0.  1.
         -5    1    1    2    0  503 -0.32305991224E+01  0.17122775296E+01  0.23487802256E+00  0.59593483464E+01  0.47000000000E+01 0.  1.
<mgrwt>
<rscale>  2 0.59547179E+01</rscale>
<asrwt>0</asrwt>
<pdfrwt beam="1">  1       21 0.97800935E-03 0.59547179E+01</pdfrwt>
<pdfrwt beam="2">  1       21 0.85869256E-03 0.59547179E+01</pdfrwt>
<totfact> 0.40086399E+09</totfact>
</mgrwt>
</event>
<event>
 4    1  0.3858687E+006  0.6157706E+01  0.7546771E-02  0.2395339E+00
         21   -1    0    0  503  502  0.00000000000E+00  0.00000000000E+00  0.46555190261E+00  0.46555190261E+00  0.00000000000E+00 0.  1.
         21   -1    0    0  501  503 -0.00000000000E+00 -0.00000000000E+00 -0.81717847013E+02  0.81717847013E+02  0.00000000000E+00 0.  1.
          5    1    1    2  501    0 -0.35310597353E+01  0.18327457742E+01 -0.38256092152E+02  0.38748495798E+02  0.47000000000E+01 0.  1.
         -5    1    1    2    0  502  0.35310597353E+01 -0.18327457742E+01 -0.42996202959E+02  0.43434903117E+02  0.47000000000E+01 0.  1.
<mgrwt>
<rscale>  2 0.61577057E+01</rscale>
<asrwt>0</asrwt>
<pdfrwt beam="1">  1       21 0.71623451E-04 0.61577057E+01</pdfrwt>
<pdfrwt beam="2">  1       21 0.12571962E-01 0.61577057E+01</pdfrwt>
<totfact> 0.29032848E+09</totfact>
</mgrwt>
</event>
<event>
 4    1  0.3858687E+006  0.7762182E+01  0.7546771E-02  0.2230388E+00
         21   -1    0    0  501  502  0.00000000000E+00  0.00000000000E+00  0.28067411262E+01  0.28067411262E+01  0.00000000000E+00 0. -1.
         21   -1    0    0  502  503 -0.00000000000E+00 -0.00000000000E+00 -0.19967983569E+03  0.19967983569E+03  0.00000000000E+00 0.  1.
          5    1    1    2  501    0 -0.31740811281E+01  0.52996870638E+01 -0.27900673354E+01  0.82483907351E+01  0.47000000000E+01 0. -1.
         -5    1    1    2    0  503  0.31740811281E+01 -0.52996870638E+01 -0.19408302723E+03  0.19423818608E+03  0.47000000000E+01 0.  1.
<mgrwt>
<rscale>  2 0.77621823E+01</rscale>
<asrwt>0</asrwt>
<pdfrwt beam="1">  1       21 0.43180634E-03 0.77621823E+01</pdfrwt>
<pdfrwt beam="2">  1       21 0.30719974E-01 0.77621823E+01</pdfrwt>
<totfact> 0.67117171E+07</totfact>
</mgrwt>
</event>
<event>
 4    1  0.3858687E+006  0.5021205E+01  0.7546771E-02  0.2563406E+00
         21   -1    0    0  501  502  0.00000000000E+00  0.00000000000E+00  0.13451759607E+01  0.13451759607E+01  0.00000000000E+00 0. -1.
         21   -1    0    0  502  503 -0.00000000000E+00 -0.00000000000E+00 -0.14618512796E+03  0.14618512796E+03  0.00000000000E+00 0. -1.
          5    1    1    2  501    0  0.16794316636E+01 -0.54955507823E+00 -0.35458153681E+01  0.61469755263E+01  0.47000000000E+01 0. -1.
         -5    1    1    2    0  503 -0.16794316636E+01  0.54955507823E+00 -0.14129413663E+03  0.14138332839E+03  0.47000000000E+01 0. -1.
<mgrwt>
<rscale>  2 0.50212052E+01</rscale>
<asrwt>0</asrwt>
<pdfrwt beam="1">  1       21 0.20695028E-03 0.50212052E+01</pdfrwt>
<pdfrwt beam="2">  1       21 0.22490006E-01 0.50212052E+01</pdfrwt>
<totfact> 0.23557096E+08</totfact>
</mgrwt>
</event>
<event>
 4    1  0.3858687E+006  0.4925463E+01  0.7546771E-02  0.2580549E+00
         21   -1    0    0  503  502  0.00000000000E+00  0.00000000000E+00  0.77296619580E+00  0.77296619580E+00  0.00000000000E+00 0. -1.
         21   -1    0    0  501  503 -0.00000000000E+00 -0.00000000000E+00 -0.54467823901E+02  0.54467823901E+02  0.00000000000E+00 0. -1.
          5    1    1    2  501    0  0.12785184640E+01 -0.73183064786E+00 -0.44827712358E+02  0.45097494175E+02  0.47000000000E+01 0. -1.
         -5    1    1    2    0  502 -0.12785184640E+01  0.73183064786E+00 -0.88671453469E+01  0.10143295922E+02  0.47000000000E+01 0. -1.
<mgrwt>
<rscale>  2 0.49254630E+01</rscale>
<asrwt>0</asrwt>
<pdfrwt beam="1">  1       21 0.11891791E-03 0.49254630E+01</pdfrwt>
<pdfrwt beam="2">  1       21 0.83796630E-02 0.49254630E+01</pdfrwt>
<totfact> 0.22372894E+09</totfact>
</mgrwt>
</event>
<event>
 4    1  0.3858687E+006  0.5241374E+01  0.7546771E-02  0.2526037E+00
         21   -1    0    0  501  502  0.00000000000E+00  0.00000000000E+00  0.11762536367E+03  0.11762536367E+03  0.00000000000E+00 0. -1.
         21   -1    0    0  502  503 -0.00000000000E+00 -0.00000000000E+00 -0.23465229555E+00  0.23465229555E+00  0.00000000000E+00 0. -1.
          5    1    1    2  501    0  0.18679383281E+01  0.13757944435E+01  0.62724988605E+02  0.62943595380E+02  0.47000000000E+01 0. -1.
         -5    1    1    2    0  503 -0.18679383281E+01 -0.13757944435E+01  0.54665722770E+02  0.54916420586E+02  0.47000000000E+01 0. -1.
<mgrwt>
<rscale>  2 0.52413742E+01</rscale>
<asrwt>0</asrwt>
<pdfrwt beam="1">  1       21 0.18096163E-01 0.52413742E+01</pdfrwt>
<pdfrwt beam="2">  1       21 0.36100447E-04 0.52413742E+01</pdfrwt>
<totfact> 0.35431993E+09</totfact>
</mgrwt>
</event>
<event>
 4    1  0.3858687E+006  0.5831615E+01  0.7546771E-02  0.2437868E+00
         21   -1    0    0  503  502  0.00000000000E+00  0.00000000000E+00  0.89303349259E+00  0.89303349259E+00  0.00000000000E+00 0.  1.
         21   -1    0    0  501  503 -0.00000000000E+00 -0.00000000000E+00 -0.65689696213E+02  0.65689696213E+02  0.00000000000E+00 0. -1.
          5    1    1    2  501    0  0.11271626091E+01 -0.32630113043E+01 -0.53980981896E+02  0.54295065566E+02  0.47000000000E+01 0. -1.
         -5    1    1    2    0  502 -0.11271626091E+01  0.32630113043E+01 -0.10815680824E+02  0.12287664140E+02  0.47000000000E+01 0.  1.
<mgrwt>
<rscale>  2 0.58316154E+01</rscale>
<asrwt>0</asrwt>
<pdfrwt beam="1">  1       21 0.13738974E-03 0.58316154E+01</pdfrwt>
<pdfrwt beam="2">  1       21 0.10106109E-01 0.58316154E+01</pdfrwt>
<totfact> 0.16199301E+09</totfact>
</mgrwt>
</event>
<event>
 4    1  0.3858687E+006  0.4803176E+01  0.7546771E-02  0.2603301E+00
         21   -1    0    0  503  502  0.00000000000E+00  0.00000000000E+00  0.40019199697E+02  0.40019199697E+02  0.00000000000E+00 0. -1.
         21   -1    0    0  501  503 -0.00000000000E+00 -0.00000000000E+00 -0.81533566893E+00  0.81533566893E+00  0.00000000000E+00 0. -1.
          5    1    1    2  501    0  0.80502445801E+00 -0.57656864703E+00  0.85511755228E+01  0.98078080428E+01  0.47000000000E+01 0. -1.
         -5    1    1    2    0  502 -0.80502445801E+00  0.57656864703E+00  0.30652688505E+02  0.31026727323E+02  0.47000000000E+01 0. -1.
<mgrwt>
<rscale>  2 0.48031756E+01</rscale>
<asrwt>0</asrwt>
<pdfrwt beam="1">  1       21 0.61567984E-02 0.48031756E+01</pdfrwt>
<pdfrwt beam="2">  1       21 0.12543629E-03 0.48031756E+01</pdfrwt>
<totfact> 0.32084796E+09</totfact>
</mgrwt>
</event>
<event>
 4    1  0.3858687E+006  0.4856506E+01  0.7546771E-02  0.2593257E+00
         21   -1    0    0  503  502  0.00000000000E+00  0.00000000000E+00  0.87195411659E+01  0.87195411659E+01  0.00000000000E+00 0. -1.
         21   -1    0    0  501  503 -0.00000000000E+00 -0.00000000000E+00 -0.27152146699E+01  0.27152146699E+01  0.00000000000E+00 0. -1.
          5    1    1    2  501    0  0.73018034151E+00  0.98106452454E+00  0.26500956298E+01  0.55325091757E+01  0.47000000000E+01 0. -1.
         -5    1    1    2    0  502 -0.73018034151E+00 -0.98106452454E+00  0.33542308662E+01  0.59022466601E+01  0.47000000000E+01 0. -1.
<mgrwt>
<rscale>  2 0.48565060E+01</rscale>
<asrwt>0</asrwt>
<pdfrwt beam="1">  1       21 0.13414679E-02 0.48565060E+01</pdfrwt>
<pdfrwt beam="2">  1       21 0.41772534E-03 0.48565060E+01</pdfrwt>
<totfact> 0.56892356E+09</totfact>
</mgrwt>
</event>
<event>
 4    1  0.3858687E+006  0.5846219E+01  0.7546771E-02  0.2435878E+00
         21   -1    0    0  501  502  0.00000000000E+00  0.00000000000E+00  0.90253922070E+01  0.90253922070E+01  0.00000000000E+00 0. -1.
         21   -1    0    0  502  503 -0.00000000000E+00 -0.00000000000E+00 -0.11512946905E+02  0.11512946905E+02  0.00000000000E+00 0. -1.
          5    1    1    2  501    0  0.65433737625E+00 -0.34146925091E+01  0.71686372304E+01  0.92502779458E+01  0.47000000000E+01 0. -1.
         -5    1    1    2    0  503 -0.65433737625E+00  0.34146925091E+01 -0.96561919285E+01  0.11288061166E+02  0.47000000000E+01 0. -1.
<mgrwt>
<rscale>  2 0.58462195E+01</rscale>
<asrwt>0</asrwt>
<pdfrwt beam="1">  1       21 0.13885219E-02 0.58462195E+01</pdfrwt>
<pdfrwt beam="2">  1       21 0.17712226E-02 0.58462195E+01</pdfrwt>
<totfact> 0.86136982E+08</totfact>
</mgrwt>
</event>
<event>
 4    1  0.3858687E+006  0.6082650E+01  0.7546771E-02  0.2404789E+00
         21   -1    0    0  501  502  0.00000000000E+00  0.00000000000E+00  0.18396724885E+01  0.18396724885E+01  0.00000000000E+00 0. -1.
         21   -1    0    0  502  503 -0.00000000000E+00 -0.00000000000E+00 -0.20846056073E+02  0.20846056073E+02  0.00000000000E+00 0.  1.
          5    1    1    2  501    0 -0.80013392797E+00 -0.37773561213E+01 -0.73740059536E+01  0.95590060871E+01  0.47000000000E+01 0. -1.
         -5    1    1    2    0  503  0.80013392797E+00  0.37773561213E+01 -0.11632377631E+02  0.13126722474E+02  0.47000000000E+01 0.  1.
<mgrwt>
<rscale>  2 0.60826502E+01</rscale>
<asrwt>0</asrwt>
<pdfrwt beam="1">  1       21 0.28302652E-03 0.60826502E+01</pdfrwt>
<pdfrwt beam="2">  1       21 0.32070857E-02 0.60826502E+01</pdfrwt>
<totfact> 0.34830274E+09</totfact>
</mgrwt>
</event>
<event>
 4    1  0.3858687E+006  0.5715179E+01  0.7546771E-02  0.2454036E+00
         21   -1    0    0  501  502  0.00000000000E+00  0.00000000000E+00  0.10074294037E+01  0.10074294037E+01  0.00000000000E+00 0.  1.
         21   -1    0    0  502  503 -0.00000000000E+00 -0.00000000000E+00 -0.22503976890E+03  0.22503976890E+03  0.00000000000E+00 0. -1.
          5    1    1    2  501    0 -0.10269671943E+01 -0.30852238917E+01 -0.74509554557E+01  0.93904209321E+01  0.47000000000E+01 0.  1.
         -5    1    1    2    0  503  0.10269671943E+01  0.30852238917E+01 -0.21658138404E+03  0.21665677737E+03  0.47000000000E+01 0. -1.
<mgrwt>
<rscale>  2 0.57151787E+01</rscale>
<asrwt>0</asrwt>
<pdfrwt beam="1">  1       21 0.15498920E-03 0.57151787E+01</pdfrwt>
<pdfrwt beam="2">  1       21 0.34621488E-01 0.57151787E+01</pdfrwt>
<totfact> 0.18743421E+08</totfact>
</mgrwt>
</event>
<event>
 4    1  0.3858687E+006  0.6728410E+01  0.7546771E-02  0.2329277E+00
         21   -1    0    0  503  502  0.00000000000E+00  0.00000000000E+00  0.89809039085E+00  0.89809039085E+00  0.00000000000E+00 0.  1.
         21   -1    0    0  501  503 -0.00000000000E+00 -0.00000000000E+00 -0.64202741307E+02  0.64202741307E+02  0.00000000000E+00 0.  1.
          5    1    1    2  501    0 -0.44389500544E+01 -0.18647320806E+01 -0.46740151539E+02  0.47221957490E+02  0.47000000000E+01 0.  1.
         -5    1    1    2    0  502  0.44389500544E+01  0.18647320806E+01 -0.16564499377E+02  0.17878874208E+02  0.47000000000E+01 0.  1.
<mgrwt>
<rscale>  2 0.67284102E+01</rscale>
<asrwt>0</asrwt>
<pdfrwt beam="1">  1       21 0.13816780E-03 0.67284102E+01</pdfrwt>
<pdfrwt beam="2">  1       21 0.98773414E-02 0.67284102E+01</pdfrwt>
<totfact> 0.18679396E+09</totfact>
</mgrwt>
</event>
<event>
 4    1  0.3858687E+006  0.6512320E+01  0.7546771E-02  0.2353160E+00
         21   -1    0    0  503  502  0.00000000000E+00  0.00000000000E+00  0.97461727524E+00  0.97461727524E+00  0.00000000000E+00 0. -1.
         21   -1    0    0  501  503 -0.00000000000E+00 -0.00000000000E+00 -0.18482969828E+03  0.18482969828E+03  0.00000000000E+00 0.  1.
          5    1    1    2  501    0  0.72597909101E+00  0.44489616913E+01 -0.17316079478E+03  0.17328321083E+03  0.47000000000E+01 0.  1.
         -5    1    1    2    0  502 -0.72597909101E+00 -0.44489616913E+01 -0.10694286230E+02  0.12521104734E+02  0.47000000000E+01 0. -1.
<mgrwt>
<rscale>  2 0.65123195E+01</rscale>
<asrwt>0</asrwt>
<pdfrwt beam="1">  1       21 0.14994142E-03 0.65123195E+01</pdfrwt>
<pdfrwt beam="2">  1       21 0.28435282E-01 0.65123195E+01</pdfrwt>
<totfact> 0.29859098E+08</totfact>
</mgrwt>
</event>
<event>
 4    1  0.3858687E+006  0.5270740E+01  0.7546771E-02  0.2521255E+00
         21   -1    0    0  503  502  0.00000000000E+00  0.00000000000E+00  0.41473596559E+03  0.41473596559E+03  0.00000000000E+00 0. -1.
         21   -1    0    0  501  503 -0.00000000000E+00 -0.00000000000E+00 -0.84567352767E-01  0.84567352767E-01  0.00000000000E+00 0. -1.
          5    1    1    2  501    0 -0.27939185516E+00 -0.23691006271E+01  0.11275011740E+03  0.11287324604E+03  0.47000000000E+01 0. -1.
         -5    1    1    2    0  502  0.27939185516E+00  0.23691006271E+01  0.30190128084E+03  0.30194728691E+03  0.47000000000E+01 0. -1.
<mgrwt>
<rscale>  2 0.52707398E+01</rscale>
<asrwt>0</asrwt>
<pdfrwt beam="1">  1       21 0.63803904E-01 0.52707398E+01</pdfrwt>
<pdfrwt beam="2">  1       21 0.13010694E-04 0.52707398E+01</pdfrwt>
<totfact> 0.16180286E+09</totfact>
</mgrwt>
</event>
<event>
 4    1  0.3858687E+006  0.4839750E+01  0.7546771E-02  0.2596392E+00
         21   -1    0    0  501  502  0.00000000000E+00  0.00000000000E+00  0.23707714715E+02  0.23707714715E+02  0.00000000000E+00 0.  1.
         21   -1    0    0  502  503 -0.00000000000E+00 -0.00000000000E+00 -0.99480266664E+00  0.99480266664E+00  0.00000000000E+00 0.  1.
          5    1    1    2  501    0  0.10682892127E+01  0.43810573692E+00  0.12377962487E+02  0.13290490352E+02  0.47000000000E+01 0.  1.
         -5    1    1    2    0  503 -0.10682892127E+01 -0.43810573692E+00  0.10334949561E+02  0.11412027029E+02  0.47000000000E+01 0.  1.
<mgrwt>
<rscale>  2 0.48397498E+01</rscale>
<asrwt>0</asrwt>
<pdfrwt beam="1">  1       21 0.36473403E-02 0.48397498E+01</pdfrwt>
<pdfrwt beam="2">  1       21 0.15304658E-03 0.48397498E+01</pdfrwt>
<totfact> 0.53144534E+09</totfact>
</mgrwt>
</event>
<event>
 4    1  0.3858687E+006  0.7790106E+01  0.7546771E-02  0.2228016E+00
         21   -1    0    0  503  502  0.00000000000E+00  0.00000000000E+00  0.19391701848E+03  0.19391701848E+03  0.00000000000E+00 0. -1.
         21   -1    0    0  501  503 -0.00000000000E+00 -0.00000000000E+00 -0.69639966806E+00  0.69639966806E+00  0.00000000000E+00 0.  1.
          5    1    1    2  501    0 -0.32114723192E+01 -0.53181002692E+01  0.24404955400E+02  0.25618110644E+02  0.47000000000E+01 0.  1.
         -5    1    1    2    0  502  0.32114723192E+01  0.53181002692E+01  0.16881566341E+03  0.16899530750E+03  0.47000000000E+01 0. -1.
<mgrwt>
<rscale>  2 0.77901056E+01</rscale>
<asrwt>0</asrwt>
<pdfrwt beam="1">  1       21 0.29833344E-01 0.77901056E+01</pdfrwt>
<pdfrwt beam="2">  1       21 0.10713856E-03 0.77901056E+01</pdfrwt>
<totfact> 0.48637396E+08</totfact>
</mgrwt>
</event>
<event>
 4    1  0.3858687E+006  0.1570456E+02  0.7546771E-02  0.1847300E+00
         21   -1    0    0  501  502  0.00000000000E+00  0.00000000000E+00  0.35445850767E+02  0.35445850767E+02  0.00000000000E+00 0.  1.
         21   -1    0    0  502  503 -0.00000000000E+00 -0.00000000000E+00 -0.13983562292E+02  0.13983562292E+02  0.00000000000E+00 0. -1.
          5    1    1    2  501    0  0.13102817608E+02 -0.72704463783E+01  0.28249213058E+02  0.32321065240E+02  0.47000000000E+01 0.  1.
         -5    1    1    2    0  503 -0.13102817608E+02  0.72704463783E+01 -0.67869245829E+01  0.17108347819E+02  0.47000000000E+01 0. -1.
<mgrwt>
<rscale>  2 0.15704560E+02</rscale>
<asrwt>0</asrwt>
<pdfrwt beam="1">  1       21 0.54532078E-02 0.15704560E+02</pdfrwt>
<pdfrwt beam="2">  1       21 0.21513173E-02 0.15704560E+02</pdfrwt>
<totfact> 0.14689474E+08</totfact>
</mgrwt>
</event>
<event>
 4    1  0.3858687E+006  0.8862131E+01  0.7546771E-02  0.2146187E+00
         21   -1    0    0  503  502  0.00000000000E+00  0.00000000000E+00  0.37628437522E+02  0.37628437522E+02  0.00000000000E+00 0. -1.
         21   -1    0    0  501  503 -0.00000000000E+00 -0.00000000000E+00 -0.21233976695E+01  0.21233976695E+01  0.00000000000E+00 0.  1.
          5    1    1    2  501    0 -0.69788086082E+01 -0.27827323199E+01  0.20348278853E+02  0.22194364623E+02  0.47000000000E+01 0.  1.
         -5    1    1    2    0  502  0.69788086082E+01  0.27827323199E+01  0.15156760999E+02  0.17557470568E+02  0.47000000000E+01 0. -1.
<mgrwt>
<rscale>  2 0.88621312E+01</rscale>
<asrwt>0</asrwt>
<pdfrwt beam="1">  1       21 0.57889899E-02 0.88621312E+01</pdfrwt>
<pdfrwt beam="2">  1       21 0.32667659E-03 0.88621312E+01</pdfrwt>
<totfact> 0.15692998E+09</totfact>
</mgrwt>
</event>
<event>
 4    1  0.3858687E+006  0.4904774E+01  0.7546771E-02  0.2584329E+00
         21   -1    0    0  501  502  0.00000000000E+00  0.00000000000E+00  0.25335251703E+03  0.25335251703E+03  0.00000000000E+00 0.  1.
         21   -1    0    0  502  503 -0.00000000000E+00 -0.00000000000E+00 -0.96697591472E-01  0.96697591472E-01  0.00000000000E+00 0.  1.
          5    1    1    2  501    0 -0.74966119933E+00 -0.11852486221E+01  0.14364516827E+03  0.14372888079E+03  0.47000000000E+01 0.  1.
         -5    1    1    2    0  503  0.74966119933E+00  0.11852486221E+01  0.10961065116E+03  0.10972033383E+03  0.47000000000E+01 0.  1.
<mgrwt>
<rscale>  2 0.49047738E+01</rscale>
<asrwt>0</asrwt>
<pdfrwt beam="1">  1       21 0.38976779E-01 0.49047738E+01</pdfrwt>
<pdfrwt beam="2">  1       21 0.14876755E-04 0.49047738E+01</pdfrwt>
<totfact> 0.30596228E+09</totfact>
</mgrwt>
</event>
<event>
 4    1  0.3858687E+006  0.7023937E+01  0.7546771E-02  0.2298587E+00
         21   -1    0    0  501  502  0.00000000000E+00  0.00000000000E+00  0.22564985124E+02  0.22564985124E+02  0.00000000000E+00 0.  1.
         21   -1    0    0  502  503 -0.00000000000E+00 -0.00000000000E+00 -0.12760681812E+02  0.12760681812E+02  0.00000000000E+00 0. -1.
          5    1    1    2  501    0 -0.41981721119E+01  0.31017809338E+01  0.20980788605E+02  0.22125306428E+02  0.47000000000E+01 0.  1.
         -5    1    1    2    0  503  0.41981721119E+01 -0.31017809338E+01 -0.11176485293E+02  0.13200360508E+02  0.47000000000E+01 0. -1.
<mgrwt>
<rscale>  2 0.70239372E+01</rscale>
<asrwt>0</asrwt>
<pdfrwt beam="1">  1       21 0.34715362E-02 0.70239372E+01</pdfrwt>
<pdfrwt beam="2">  1       21 0.19631818E-02 0.70239372E+01</pdfrwt>
<totfact> 0.22563039E+08</totfact>
</mgrwt>
</event>
<event>
 4    1  0.3858687E+006  0.5935179E+01  0.7546771E-02  0.2423937E+00
         21   -1    0    0  503  502  0.00000000000E+00  0.00000000000E+00  0.10105706725E+02  0.10105706725E+02  0.00000000000E+00 0. -1.
         21   -1    0    0  501  503 -0.00000000000E+00 -0.00000000000E+00 -0.40106658423E+01  0.40106658423E+01  0.00000000000E+00 0. -1.
          5    1    1    2  501    0 -0.87156771149E+00 -0.35180558545E+01  0.49414804757E+00  0.59557140264E+01  0.47000000000E+01 0. -1.
         -5    1    1    2    0  502  0.87156771149E+00  0.35180558545E+01  0.56008928350E+01  0.81606585409E+01  0.47000000000E+01 0. -1.
<mgrwt>
<rscale>  2 0.59351788E+01</rscale>
<asrwt>0</asrwt>
<pdfrwt beam="1">  1       21 0.15547241E-02 0.59351788E+01</pdfrwt>
<pdfrwt beam="2">  1       21 0.61702552E-03 0.59351788E+01</pdfrwt>
<totfact> 0.32909043E+09</totfact>
</mgrwt>
</event>
<event>
 4    1  0.3858687E+006  0.5938461E+01  0.7546771E-02  0.2423502E+00
         21   -1    0    0  501  502  0.00000000000E+00  0.00000000000E+00  0.99441439811E+02  0.99441439811E+02  0.00000000000E+00 0.  1.
         21   -1    0    0  502  503 -0.00000000000E+00 -0.00000000000E+00 -0.33666110279E+01  0.33666110279E+01  0.00000000000E+00 0.  1.
          5    1    1    2  501    0  0.28034219467E+01 -0.23056773749E+01  0.96658704843E+02  0.96840954893E+02  0.47000000000E+01 0.  1.
         -5    1    1    2    0  503 -0.28034219467E+01  0.23056773749E+01 -0.58387605974E+00  0.59670959454E+01  0.47000000000E+01 0.  1.
<mgrwt>
<rscale>  2 0.59384613E+01</rscale>
<asrwt>0</asrwt>
<pdfrwt beam="1">  1       21 0.15298681E-01 0.59384613E+01</pdfrwt>
<pdfrwt beam="2">  1       21 0.51794023E-03 0.59384613E+01</pdfrwt>
<totfact> 0.14023304E+08</totfact>
</mgrwt>
</event>
<event>
 4    1  0.3858687E+006  0.1058199E+02  0.7546771E-02  0.2043304E+00
         21   -1    0    0  503  502  0.00000000000E+00  0.00000000000E+00  0.95340373890E-01  0.95340373890E-01  0.00000000000E+00 0. -1.
         21   -1    0    0  501  503 -0.00000000000E+00 -0.00000000000E+00 -0.16149267225E+04  0.16149267225E+04  0.00000000000E+00 0. -1.
          5    1    1    2  501    0 -0.51687435010E+01 -0.79481142867E+01 -0.38571639074E+03  0.38586151987E+03  0.47000000000E+01 0. -1.
         -5    1    1    2    0  502  0.51687435010E+01  0.79481142867E+01 -0.12291149914E+04  0.12291605430E+04  0.47000000000E+01 0. -1.
<mgrwt>
<rscale>  2 0.10581986E+02</rscale>
<asrwt>0</asrwt>
<pdfrwt beam="1">  1       21 0.14667163E-04 0.10581986E+02</pdfrwt>
<pdfrwt beam="2">  1       21 0.24846020E+00 0.10581986E+02</pdfrwt>
<totfact> 0.10882106E+08</totfact>
</mgrwt>
</event>
<event>
 4    1  0.3858687E+006  0.6044829E+01  0.7546771E-02  0.2409625E+00
         21   -1    0    0  501  502  0.00000000000E+00  0.00000000000E+00  0.33792957197E+00  0.33792957197E+00  0.00000000000E+00 0.  1.
         21   -1    0    0  502  503 -0.00000000000E+00 -0.00000000000E+00 -0.18034893163E+03  0.18034893163E+03  0.00000000000E+00 0. -1.
          5    1    1    2  501    0  0.35242277778E+01 -0.14247036816E+01 -0.32835454323E+02  0.33387228436E+02  0.47000000000E+01 0.  1.
         -5    1    1    2    0  503 -0.35242277778E+01  0.14247036816E+01 -0.14717554773E+03  0.14729963276E+03  0.47000000000E+01 0. -1.
<mgrwt>
<rscale>  2 0.60448294E+01</rscale>
<asrwt>0</asrwt>
<pdfrwt beam="1">  1       21 0.51989172E-04 0.60448294E+01</pdfrwt>
<pdfrwt beam="2">  1       21 0.27745986E-01 0.60448294E+01</pdfrwt>
<totfact> 0.12281051E+09</totfact>
</mgrwt>
</event>
<event>
 4    1  0.3858687E+006  0.7281206E+01  0.7546771E-02  0.2273544E+00
         21   -1    0    0  503  502  0.00000000000E+00  0.00000000000E+00  0.15119770242E+02  0.15119770242E+02  0.00000000000E+00 0.  1.
         21   -1    0    0  501  503 -0.00000000000E+00 -0.00000000000E+00 -0.42329066349E+01  0.42329066349E+01  0.00000000000E+00 0.  1.
          5    1    1    2  501    0  0.29949281115E+00 -0.55530412768E+01  0.14346586808E+01  0.74211999634E+01  0.47000000000E+01 0.  1.
         -5    1    1    2    0  502 -0.29949281115E+00  0.55530412768E+01  0.94522049259E+01  0.11931476913E+02  0.47000000000E+01 0.  1.
<mgrwt>
<rscale>  2 0.72812062E+01</rscale>
<asrwt>0</asrwt>
<pdfrwt beam="1">  1       21 0.23261185E-02 0.72812062E+01</pdfrwt>
<pdfrwt beam="2">  1       21 0.65121642E-03 0.72812062E+01</pdfrwt>
<totfact> 0.20195802E+09</totfact>
</mgrwt>
</event>
<event>
 4    1  0.3858687E+006  0.8488719E+01  0.7546771E-02  0.2172805E+00
         21   -1    0    0  503  502  0.00000000000E+00  0.00000000000E+00  0.10291736313E+01  0.10291736313E+01  0.00000000000E+00 0.  1.
         21   -1    0    0  501  503 -0.00000000000E+00 -0.00000000000E+00 -0.70515259277E+02  0.70515259277E+02  0.00000000000E+00 0. -1.
          5    1    1    2  501    0  0.42392609002E+01 -0.56565901822E+01 -0.31732229932E+02  0.32848025236E+02  0.47000000000E+01 0. -1.
         -5    1    1    2    0  502 -0.42392609002E+01  0.56565901822E+01 -0.37753855714E+02  0.38696407672E+02  0.47000000000E+01 0. -1.
<mgrwt>
<rscale>  2 0.84887187E+01</rscale>
<asrwt>0</asrwt>
<pdfrwt beam="1">  1       21 0.15833442E-03 0.84887187E+01</pdfrwt>
<pdfrwt beam="2">  1       21 0.10848500E-01 0.84887187E+01</pdfrwt>
<totfact> 0.15766889E+09</totfact>
</mgrwt>
</event>
<event>
 4    1  0.3858687E+006  0.5605794E+01  0.7546771E-02  0.2469740E+00
         21   -1    0    0  503  502  0.00000000000E+00  0.00000000000E+00  0.17978250291E+03  0.17978250291E+03  0.00000000000E+00 0.  1.
         21   -1    0    0  501  503 -0.00000000000E+00 -0.00000000000E+00 -0.47130213166E+00  0.47130213166E+00  0.00000000000E+00 0. -1.
          5    1    1    2  501    0 -0.25073577855E+01 -0.17458750375E+01  0.18169276159E+02  0.19014402931E+02  0.47000000000E+01 0. -1.
         -5    1    1    2    0  502  0.25073577855E+01  0.17458750375E+01  0.16114192462E+03  0.16123940211E+03  0.47000000000E+01 0.  1.
<mgrwt>
<rscale>  2 0.56057937E+01</rscale>
<asrwt>0</asrwt>
<pdfrwt beam="1">  1       21 0.27658792E-01 0.56057937E+01</pdfrwt>
<pdfrwt beam="2">  1       21 0.72508164E-04 0.56057937E+01</pdfrwt>
<totfact> 0.74673025E+08</totfact>
</mgrwt>
</event>
<event>
 4    1  0.3858687E+006  0.7028185E+01  0.7546771E-02  0.2298162E+00
         21   -1    0    0  503  502  0.00000000000E+00  0.00000000000E+00  0.23625054957E+02  0.23625054957E+02  0.00000000000E+00 0.  1.
         21   -1    0    0  501  503 -0.00000000000E+00 -0.00000000000E+00 -0.25946610961E+01  0.25946610961E+01  0.00000000000E+00 0.  1.
          5    1    1    2  501    0  0.31093790271E+01 -0.41996606066E+01  0.47380840677E+01  0.84761328315E+01  0.47000000000E+01 0.  1.
         -5    1    1    2    0  502 -0.31093790271E+01  0.41996606066E+01  0.16292309794E+02  0.17743583222E+02  0.47000000000E+01 0.  1.
<mgrwt>
<rscale>  2 0.70281852E+01</rscale>
<asrwt>0</asrwt>
<pdfrwt beam="1">  1       21 0.36346237E-02 0.70281852E+01</pdfrwt>
<pdfrwt beam="2">  1       21 0.39917865E-03 0.70281852E+01</pdfrwt>
<totfact> 0.20281345E+09</totfact>
</mgrwt>
</event>
<event>
 4    1  0.3858687E+006  0.5361267E+01  0.7546771E-02  0.2506797E+00
         21   -1    0    0  501  502  0.00000000000E+00  0.00000000000E+00  0.73095446198E+00  0.73095446198E+00  0.00000000000E+00 0.  1.
         21   -1    0    0  502  503 -0.00000000000E+00 -0.00000000000E+00 -0.56738278411E+03  0.56738278411E+03  0.00000000000E+00 0.  1.
          5    1    1    2  501    0  0.34649659318E+00 -0.25559969596E+01 -0.92891410425E+01  0.10725265575E+02  0.47000000000E+01 0.  1.
         -5    1    1    2    0  503 -0.34649659318E+00  0.25559969596E+01 -0.55736268861E+03  0.55738847300E+03  0.47000000000E+01 0.  1.
<mgrwt>
<rscale>  2 0.53612667E+01</rscale>
<asrwt>0</asrwt>
<pdfrwt beam="1">  1       21 0.11245480E-03 0.53612667E+01</pdfrwt>
<pdfrwt beam="2">  1       21 0.87289451E-01 0.53612667E+01</pdfrwt>
<totfact> 0.51337411E+07</totfact>
</mgrwt>
</event>
<event>
 4    1  0.3858687E+006  0.1453968E+02  0.7546771E-02  0.1882449E+00
         21   -1    0    0  501  502  0.00000000000E+00  0.00000000000E+00  0.16851623010E+01  0.16851623010E+01  0.00000000000E+00 0. -1.
         21   -1    0    0  502  503 -0.00000000000E+00 -0.00000000000E+00 -0.16909267988E+03  0.16909267988E+03  0.00000000000E+00 0.  1.
          5    1    1    2  501    0 -0.99892020733E+01 -0.94619351806E+01 -0.40322867065E+02  0.42864157332E+02  0.47000000000E+01 0. -1.
         -5    1    1    2    0  503  0.99892020733E+01  0.94619351806E+01 -0.12708465051E+03  0.12791368485E+03  0.47000000000E+01 0.  1.
<mgrwt>
<rscale>  2 0.14539683E+02</rscale>
<asrwt>0</asrwt>
<pdfrwt beam="1">  1       21 0.25925574E-03 0.14539683E+02</pdfrwt>
<pdfrwt beam="2">  1       21 0.26014258E-01 0.14539683E+02</pdfrwt>
<totfact> 0.24264331E+08</totfact>
</mgrwt>
</event>
<event>
 4    1  0.3858687E+006  0.5124551E+01  0.7546771E-02  0.2545522E+00
         21   -1    0    0  501  502  0.00000000000E+00  0.00000000000E+00  0.14231209355E+01  0.14231209355E+01  0.00000000000E+00 0.  1.
         21   -1    0    0  502  503 -0.00000000000E+00 -0.00000000000E+00 -0.18674953739E+02  0.18674953739E+02  0.00000000000E+00 0. -1.
          5    1    1    2  501    0  0.11770025197E-01  0.20422734292E+01 -0.97211580225E+01  0.10989173426E+02  0.47000000000E+01 0.  1.
         -5    1    1    2    0  503 -0.11770025197E-01 -0.20422734292E+01 -0.75306747808E+01  0.91089012481E+01  0.47000000000E+01 0. -1.
<mgrwt>
<rscale>  2 0.51245506E+01</rscale>
<asrwt>0</asrwt>
<pdfrwt beam="1">  1       21 0.21894169E-03 0.51245506E+01</pdfrwt>
<pdfrwt beam="2">  1       21 0.28730697E-02 0.51245506E+01</pdfrwt>
<totfact> 0.49208172E+09</totfact>
</mgrwt>
</event>
<event>
 4    1  0.3858687E+006  0.1230144E+02  0.7546771E-02  0.1963665E+00
         21   -1    0    0  501  502  0.00000000000E+00  0.00000000000E+00  0.49614754009E+01  0.49614754009E+01  0.00000000000E+00 0.  1.
         21   -1    0    0  502  503 -0.00000000000E+00 -0.00000000000E+00 -0.33470414079E+02  0.33470414079E+02  0.00000000000E+00 0. -1.
          5    1    1    2  501    0 -0.46726775070E+01 -0.10363466904E+02 -0.19978927261E+02  0.23462371914E+02  0.47000000000E+01 0. -1.
         -5    1    1    2    0  503  0.46726775070E+01  0.10363466904E+02 -0.85300114171E+01  0.14969517565E+02  0.47000000000E+01 0.  1.
<mgrwt>
<rscale>  2 0.12301437E+02</rscale>
<asrwt>0</asrwt>
<pdfrwt beam="1">  1       21 0.76330389E-03 0.12301437E+02</pdfrwt>
<pdfrwt beam="2">  1       21 0.51492946E-02 0.12301437E+02</pdfrwt>
<totfact> 0.67261631E+08</totfact>
</mgrwt>
</event>
<event>
 4    1  0.3858687E+006  0.4761548E+01  0.7546771E-02  0.2611277E+00
         21   -1    0    0  501  502  0.00000000000E+00  0.00000000000E+00  0.26434375512E+02  0.26434375512E+02  0.00000000000E+00 0. -1.
         21   -1    0    0  502  503 -0.00000000000E+00 -0.00000000000E+00 -0.22626468940E+01  0.22626468940E+01  0.00000000000E+00 0. -1.
          5    1    1    2  501    0  0.41980477256E+00 -0.63726151620E+00  0.23392434727E+02  0.23872124764E+02  0.47000000000E+01 0. -1.
         -5    1    1    2    0  503 -0.41980477256E+00  0.63726151620E+00  0.77929389086E+00  0.48248976420E+01  0.47000000000E+01 0. -1.
<mgrwt>
<rscale>  2 0.47615479E+01</rscale>
<asrwt>0</asrwt>
<pdfrwt beam="1">  1       21 0.40668268E-02 0.47615479E+01</pdfrwt>
<pdfrwt beam="2">  1       21 0.34809954E-03 0.47615479E+01</pdfrwt>
<totfact> 0.14773388E+09</totfact>
</mgrwt>
</event>
<event>
 4    1  0.3858687E+006  0.5291768E+01  0.7546771E-02  0.2517859E+00
         21   -1    0    0  503  502  0.00000000000E+00  0.00000000000E+00  0.72169790776E+00  0.72169790776E+00  0.00000000000E+00 0. -1.
         21   -1    0    0  501  503 -0.00000000000E+00 -0.00000000000E+00 -0.15008729773E+03  0.15008729773E+03  0.00000000000E+00 0. -1.
          5    1    1    2  501    0 -0.18059652994E+01  0.16282817736E+01 -0.13961282307E+03  0.13971307447E+03  0.47000000000E+01 0. -1.
         -5    1    1    2    0  502  0.18059652994E+01 -0.16282817736E+01 -0.97527767551E+01  0.11095921171E+02  0.47000000000E+01 0. -1.
<mgrwt>
<rscale>  2 0.52917683E+01</rscale>
<asrwt>0</asrwt>
<pdfrwt beam="1">  1       21 0.11103028E-03 0.52917683E+01</pdfrwt>
<pdfrwt beam="2">  1       21 0.23090388E-01 0.52917683E+01</pdfrwt>
<totfact> 0.54288576E+08</totfact>
</mgrwt>
</event>
<event>
 4    1  0.3858687E+006  0.4997760E+01  0.7546771E-02  0.2567551E+00
         21   -1    0    0  503  502  0.00000000000E+00  0.00000000000E+00  0.55477552123E+02  0.55477552123E+02  0.00000000000E+00 0.  1.
         21   -1    0    0  501  503 -0.00000000000E+00 -0.00000000000E+00 -0.49145942161E+00  0.49145942161E+00  0.00000000000E+00 0.  1.
          5    1    1    2  501    0  0.13360127099E+01 -0.10500819919E+01  0.19387491301E+02  0.20021299186E+02  0.47000000000E+01 0.  1.
         -5    1    1    2    0  502 -0.13360127099E+01  0.10500819919E+01  0.35598601401E+02  0.35947712359E+02  0.47000000000E+01 0.  1.
<mgrwt>
<rscale>  2 0.49977597E+01</rscale>
<asrwt>0</asrwt>
<pdfrwt beam="1">  1       21 0.85350031E-02 0.49977597E+01</pdfrwt>
<pdfrwt beam="2">  1       21 0.75609186E-04 0.49977597E+01</pdfrwt>
<totfact> 0.40299841E+09</totfact>
</mgrwt>
</event>
<event>
 4    1  0.3858687E+006  0.7175540E+01  0.7546771E-02  0.2283652E+00
         21   -1    0    0  501  502  0.00000000000E+00  0.00000000000E+00  0.40990366168E+02  0.40990366168E+02  0.00000000000E+00 0. -1.
         21   -1    0    0  502  503 -0.00000000000E+00 -0.00000000000E+00 -0.72143064265E+01  0.72143064265E+01  0.00000000000E+00 0. -1.
          5    1    1    2  501    0  0.23770600225E+01  0.48731881721E+01  0.38791820812E+02  0.39449888963E+02  0.47000000000E+01 0. -1.
         -5    1    1    2    0  503 -0.23770600225E+01 -0.48731881721E+01 -0.50157610705E+01  0.87547836311E+01  0.47000000000E+01 0. -1.
<mgrwt>
<rscale>  2 0.71755402E+01</rscale>
<asrwt>0</asrwt>
<pdfrwt beam="1">  1       21 0.63062100E-02 0.71755402E+01</pdfrwt>
<pdfrwt beam="2">  1       21 0.11098933E-02 0.71755402E+01</pdfrwt>
<totfact> 0.21282305E+08</totfact>
</mgrwt>
</event>
<event>
 4    1  0.3858687E+006  0.8049144E+01  0.7546771E-02  0.2206646E+00
         21   -1    0    0  503  502  0.00000000000E+00  0.00000000000E+00  0.79287212639E+02  0.79287212639E+02  0.00000000000E+00 0.  1.
         21   -1    0    0  501  503 -0.00000000000E+00 -0.00000000000E+00 -0.10180692328E+01  0.10180692328E+01  0.00000000000E+00 0.  1.
          5    1    1    2  501    0 -0.63738401003E+01 -0.14397516549E+01  0.56972624181E+02  0.57538410027E+02  0.47000000000E+01 0.  1.
         -5    1    1    2    0  502  0.63738401003E+01  0.14397516549E+01  0.21296519226E+02  0.22766871844E+02  0.47000000000E+01 0.  1.
<mgrwt>
<rscale>  2 0.80491442E+01</rscale>
<asrwt>0</asrwt>
<pdfrwt beam="1">  1       21 0.12198028E-01 0.80491442E+01</pdfrwt>
<pdfrwt beam="2">  1       21 0.15662610E-03 0.80491442E+01</pdfrwt>
<totfact> 0.12842190E+09</totfact>
</mgrwt>
</event>
<event>
 4    1  0.3858687E+006  0.5032047E+01  0.7546771E-02  0.2561500E+00
         21   -1    0    0  503  502  0.00000000000E+00  0.00000000000E+00  0.71879971273E+03  0.71879971273E+03  0.00000000000E+00 0. -1.
         21   -1    0    0  501  503 -0.00000000000E+00 -0.00000000000E+00 -0.12052779982E+00  0.12052779982E+00  0.00000000000E+00 0. -1.
          5    1    1    2  501    0 -0.44944786589E+00  0.17405439300E+01  0.56939129521E+02  0.57161052887E+02  0.47000000000E+01 0. -1.
         -5    1    1    2    0  502  0.44944786589E+00 -0.17405439300E+01  0.66174005541E+03  0.66175918764E+03  0.47000000000E+01 0. -1.
<mgrwt>
<rscale>  2 0.50320470E+01</rscale>
<asrwt>0</asrwt>
<pdfrwt beam="1">  1       21 0.11058114E+00 0.50320470E+01</pdfrwt>
<pdfrwt beam="2">  1       21 0.18543314E-04 0.50320470E+01</pdfrwt>
<totfact> 0.33590220E+08</totfact>
</mgrwt>
</event>
<event>
 4    1  0.3858687E+006  0.5002748E+01  0.7546771E-02  0.2566666E+00
         21   -1    0    0  501  502  0.00000000000E+00  0.00000000000E+00  0.48835609581E+01  0.48835609581E+01  0.00000000000E+00 0. -1.
         21   -1    0    0  502  503 -0.00000000000E+00 -0.00000000000E+00 -0.12475055452E+02  0.12475055452E+02  0.00000000000E+00 0.  1.
          5    1    1    2  501    0 -0.16133950218E+01 -0.57831533891E+00  0.28663928361E+01  0.57657349938E+01  0.47000000000E+01 0. -1.
         -5    1    1    2    0  503  0.16133950218E+01  0.57831533891E+00 -0.10457887330E+02  0.11592881417E+02  0.47000000000E+01 0.  1.
<mgrwt>
<rscale>  2 0.50027485E+01</rscale>
<asrwt>0</asrwt>
<pdfrwt beam="1">  1       21 0.75131708E-03 0.50027485E+01</pdfrwt>
<pdfrwt beam="2">  1       21 0.19192393E-02 0.50027485E+01</pdfrwt>
<totfact> 0.15799339E+09</totfact>
</mgrwt>
</event>
<event>
 4    1  0.3858687E+006  0.7609559E+01  0.7546771E-02  0.2243602E+00
         21   -1    0    0  501  502  0.00000000000E+00  0.00000000000E+00  0.17916457446E+02  0.17916457446E+02  0.00000000000E+00 0. -1.
         21   -1    0    0  502  503 -0.00000000000E+00 -0.00000000000E+00 -0.34954996909E+01  0.34954996909E+01  0.00000000000E+00 0.  1.
          5    1    1    2  501    0  0.23598740311E-01 -0.59845493594E+01  0.10150087435E+02  0.12685805566E+02  0.47000000000E+01 0. -1.
         -5    1    1    2    0  503 -0.23598740311E-01  0.59845493594E+01  0.42708703202E+01  0.87261515703E+01  0.47000000000E+01 0.  1.
<mgrwt>
<rscale>  2 0.76095590E+01</rscale>
<asrwt>0</asrwt>
<pdfrwt beam="1">  1       21 0.27563780E-02 0.76095590E+01</pdfrwt>
<pdfrwt beam="2">  1       21 0.53776919E-03 0.76095590E+01</pdfrwt>
<totfact> 0.21325286E+09</totfact>
</mgrwt>
</event>
<event>
 4    1  0.3858687E+006  0.5216886E+01  0.7546771E-02  0.2530059E+00
         21   -1    0    0  501  502  0.00000000000E+00  0.00000000000E+00  0.24970074375E+01  0.24970074375E+01  0.00000000000E+00 0. -1.
         21   -1    0    0  502  503 -0.00000000000E+00 -0.00000000000E+00 -0.10916193474E+02  0.10916193474E+02  0.00000000000E+00 0.  1.
          5    1    1    2  501    0 -0.15721812379E+01 -0.16291562410E+01 -0.44725762853E+01  0.68716695592E+01  0.47000000000E+01 0.  1.
         -5    1    1    2    0  503  0.15721812379E+01  0.16291562410E+01 -0.39466097507E+01  0.65415313518E+01  0.47000000000E+01 0. -1.
<mgrwt>
<rscale>  2 0.52168864E+01</rscale>
<asrwt>0</asrwt>
<pdfrwt beam="1">  1       21 0.38415500E-03 0.52168864E+01</pdfrwt>
<pdfrwt beam="2">  1       21 0.16794143E-02 0.52168864E+01</pdfrwt>
<totfact> 0.50169329E+09</totfact>
</mgrwt>
</event>
<event>
 4    1  0.3858687E+006  0.1057226E+02  0.7546771E-02  0.2043811E+00
         21   -1    0    0  501  502  0.00000000000E+00  0.00000000000E+00  0.11466090091E+00  0.11466090091E+00  0.00000000000E+00 0.  1.
         21   -1    0    0  502  503 -0.00000000000E+00 -0.00000000000E+00 -0.11016407629E+04  0.11016407629E+04  0.00000000000E+00 0. -1.
          5    1    1    2  501    0  0.84331927450E+01  0.43085919697E+01 -0.36384732774E+03  0.36400089369E+03  0.47000000000E+01 0.  1.
         -5    1    1    2    0  503 -0.84331927450E+01 -0.43085919697E+01 -0.73767877426E+03  0.73775453011E+03  0.47000000000E+01 0. -1.
<mgrwt>
<rscale>  2 0.10572261E+02</rscale>
<asrwt>0</asrwt>
<pdfrwt beam="1">  1       21 0.17640600E-04 0.10572261E+02</pdfrwt>
<pdfrwt beam="2">  1       21 0.16947876E+00 0.10572261E+02</pdfrwt>
<totfact> 0.21344157E+08</totfact>
</mgrwt>
</event>
<event>
 4    1  0.3858687E+006  0.5316793E+01  0.7546771E-02  0.2513847E+00
         21   -1    0    0  503  502  0.00000000000E+00  0.00000000000E+00  0.20441358747E+03  0.20441358747E+03  0.00000000000E+00 0.  1.
         21   -1    0    0  501  503 -0.00000000000E+00 -0.00000000000E+00 -0.56285085884E+00  0.56285085884E+00  0.00000000000E+00 0.  1.
          5    1    1    2  501    0 -0.10697164153E+01  0.22436572173E+01  0.12913602361E+02  0.13965293296E+02  0.47000000000E+01 0.  1.
         -5    1    1    2    0  502  0.10697164153E+01 -0.22436572173E+01  0.19093713425E+03  0.19101114503E+03  0.47000000000E+01 0.  1.
<mgrwt>
<rscale>  2 0.53167933E+01</rscale>
<asrwt>0</asrwt>
<pdfrwt beam="1">  1       21 0.31448185E-01 0.53167933E+01</pdfrwt>
<pdfrwt beam="2">  1       21 0.86592603E-04 0.53167933E+01</pdfrwt>
<totfact> 0.45635960E+08</totfact>
</mgrwt>
</event>
<event>
 4    1  0.3858687E+006  0.5291373E+01  0.7546771E-02  0.2517923E+00
         21   -1    0    0  501  502  0.00000000000E+00  0.00000000000E+00  0.20085467914E+00  0.20085467914E+00  0.00000000000E+00 0.  1.
         21   -1    0    0  502  503 -0.00000000000E+00 -0.00000000000E+00 -0.14071633165E+03  0.14071633165E+03  0.00000000000E+00 0.  1.
          5    1    1    2  501    0  0.17124854803E+01  0.17251142325E+01 -0.63436420709E+02  0.63656720761E+02  0.47000000000E+01 0.  1.
         -5    1    1    2    0  503 -0.17124854803E+01 -0.17251142325E+01 -0.77079056265E+02  0.77260465571E+02  0.47000000000E+01 0.  1.
<mgrwt>
<rscale>  2 0.52913728E+01</rscale>
<asrwt>0</asrwt>
<pdfrwt beam="1">  1       21 0.30900934E-04 0.52913728E+01</pdfrwt>
<pdfrwt beam="2">  1       21 0.21648517E-01 0.52913728E+01</pdfrwt>
<totfact> 0.33004786E+09</totfact>
</mgrwt>
</event>
<event>
 4    1  0.3858687E+006  0.5077989E+01  0.7546771E-02  0.2553502E+00
         21   -1    0    0  501  502  0.00000000000E+00  0.00000000000E+00  0.66237808294E+00  0.66237808294E+00  0.00000000000E+00 0.  1.
         21   -1    0    0  502  503 -0.00000000000E+00 -0.00000000000E+00 -0.13147366727E+03  0.13147366727E+03  0.00000000000E+00 0.  1.
          5    1    1    2  501    0 -0.18169585695E+01  0.62819796578E+00 -0.99754099024E+01  0.11193514812E+02  0.47000000000E+01 0.  1.
         -5    1    1    2    0  503  0.18169585695E+01 -0.62819796578E+00 -0.12083587929E+03  0.12094253055E+03  0.47000000000E+01 0.  1.
<mgrwt>
<rscale>  2 0.50779889E+01</rscale>
<asrwt>0</asrwt>
<pdfrwt beam="1">  1       21 0.10190428E-03 0.50779889E+01</pdfrwt>
<pdfrwt beam="2">  1       21 0.20226726E-01 0.50779889E+01</pdfrwt>
<totfact> 0.72719987E+08</totfact>
</mgrwt>
</event>
<event>
 4    1  0.3858687E+006  0.4947491E+01  0.7546771E-02  0.2576554E+00
         21   -1    0    0  501  502  0.00000000000E+00  0.00000000000E+00  0.65340318917E+00  0.65340318917E+00  0.00000000000E+00 0. -1.
         21   -1    0    0  502  503 -0.00000000000E+00 -0.00000000000E+00 -0.38027490192E+02  0.38027490192E+02  0.00000000000E+00 0. -1.
          5    1    1    2  501    0 -0.14161628762E+01  0.61818541641E+00 -0.21045894911E+02  0.21619605988E+02  0.47000000000E+01 0. -1.
         -5    1    1    2    0  503  0.14161628762E+01 -0.61818541641E+00 -0.16328192092E+02  0.17061287393E+02  0.47000000000E+01 0. -1.
<mgrwt>
<rscale>  2 0.49474913E+01</rscale>
<asrwt>0</asrwt>
<pdfrwt beam="1">  1       21 0.10052354E-03 0.49474913E+01</pdfrwt>
<pdfrwt beam="2">  1       21 0.58503849E-02 0.49474913E+01</pdfrwt>
<totfact> 0.47875040E+09</totfact>
</mgrwt>
</event>
<event>
 4    1  0.3858687E+006  0.4735412E+01  0.7546771E-02  0.2616346E+00
         21   -1    0    0  501  502  0.00000000000E+00  0.00000000000E+00  0.29787622284E+01  0.29787622284E+01  0.00000000000E+00 0.  1.
         21   -1    0    0  502  503 -0.00000000000E+00 -0.00000000000E+00 -0.10430010274E+02  0.10430010274E+02  0.00000000000E+00 0.  1.
          5    1    1    2  501    0  0.52831224304E+00  0.23454582499E+00 -0.18918606608E+00  0.47391894811E+01  0.47000000000E+01 0.  1.
         -5    1    1    2    0  503 -0.52831224304E+00 -0.23454582499E+00 -0.72620619794E+01  0.86695830213E+01  0.47000000000E+01 0.  1.
<mgrwt>
<rscale>  2 0.47354119E+01</rscale>
<asrwt>0</asrwt>
<pdfrwt beam="1">  1       21 0.45827111E-03 0.47354119E+01</pdfrwt>
<pdfrwt beam="2">  1       21 0.16046170E-02 0.47354119E+01</pdfrwt>
<totfact> 0.37938489E+09</totfact>
</mgrwt>
</event>
<event>
 4    1  0.3858687E+006  0.8943749E+01  0.7546771E-02  0.2140606E+00
         21   -1    0    0  501  502  0.00000000000E+00  0.00000000000E+00  0.58838655297E+01  0.58838655297E+01  0.00000000000E+00 0. -1.
         21   -1    0    0  502  503 -0.00000000000E+00 -0.00000000000E+00 -0.20290679875E+02  0.20290679875E+02  0.00000000000E+00 0.  1.
          5    1    1    2  501    0 -0.76043204102E+01  0.27378256951E+00  0.31456965305E+00  0.89492792929E+01  0.47000000000E+01 0. -1.
         -5    1    1    2    0  503  0.76043204102E+01 -0.27378256951E+00 -0.14721383999E+02  0.17225266112E+02  0.47000000000E+01 0.  1.
<mgrwt>
<rscale>  2 0.89437490E+01</rscale>
<asrwt>0</asrwt>
<pdfrwt beam="1">  1       21 0.90521009E-03 0.89437490E+01</pdfrwt>
<pdfrwt beam="2">  1       21 0.31216430E-02 0.89437490E+01</pdfrwt>
<totfact> 0.94200929E+08</totfact>
</mgrwt>
</event>
<event>
 4    1  0.3858687E+006  0.6273485E+01  0.7546771E-02  0.2381133E+00
         21   -1    0    0  501  502  0.00000000000E+00  0.00000000000E+00  0.29525840097E+00  0.29525840097E+00  0.00000000000E+00 0. -1.
         21   -1    0    0  502  503 -0.00000000000E+00 -0.00000000000E+00 -0.21705284399E+03  0.21705284399E+03  0.00000000000E+00 0.  1.
          5    1    1    2  501    0 -0.37109358234E+01  0.18696438186E+01 -0.40870893160E+02  0.41349564936E+02  0.47000000000E+01 0. -1.
         -5    1    1    2    0  503  0.37109358234E+01 -0.18696438186E+01 -0.17588669243E+03  0.17599853746E+03  0.47000000000E+01 0.  1.
<mgrwt>
<rscale>  2 0.62734849E+01</rscale>
<asrwt>0</asrwt>
<pdfrwt beam="1">  1       21 0.45424403E-04 0.62734849E+01</pdfrwt>
<pdfrwt beam="2">  1       21 0.33392721E-01 0.62734849E+01</pdfrwt>
<totfact> 0.11062541E+09</totfact>
</mgrwt>
</event>
<event>
 4    1  0.3858687E+006  0.7352043E+01  0.7546771E-02  0.2266901E+00
         21   -1    0    0  503  502  0.00000000000E+00  0.00000000000E+00  0.34793015211E+03  0.34793015211E+03  0.00000000000E+00 0.  1.
         21   -1    0    0  501  503 -0.00000000000E+00 -0.00000000000E+00 -0.31289249677E+00  0.31289249677E+00  0.00000000000E+00 0. -1.
          5    1    1    2  501    0 -0.44218705812E+00 -0.56362223401E+01  0.50257285913E+02  0.50792197423E+02  0.47000000000E+01 0. -1.
         -5    1    1    2    0  502  0.44218705812E+00  0.56362223401E+01  0.29735997370E+03  0.29745084718E+03  0.47000000000E+01 0. -1.
<mgrwt>
<rscale>  2 0.73520427E+01</rscale>
<asrwt>0</asrwt>
<pdfrwt beam="1">  1       21 0.53527406E-01 0.73520427E+01</pdfrwt>
<pdfrwt beam="2">  1       21 0.48137585E-04 0.73520427E+01</pdfrwt>
<totfact> 0.49206544E+08</totfact>
</mgrwt>
</event>
<event>
 4    1  0.3858687E+006  0.1429281E+02  0.7546771E-02  0.1890448E+00
         21   -1    0    0  503  502  0.00000000000E+00  0.00000000000E+00  0.51715769572E+02  0.51715769572E+02  0.00000000000E+00 0. -1.
         21   -1    0    0  501  503 -0.00000000000E+00 -0.00000000000E+00 -0.13592274837E+02  0.13592274837E+02  0.00000000000E+00 0.  1.
          5    1    1    2  501    0  0.50154926339E+01  0.12531529309E+02 -0.84410753772E+01  0.16599281512E+02  0.47000000000E+01 0.  1.
         -5    1    1    2    0  502 -0.50154926339E+01 -0.12531529309E+02  0.46564570113E+02  0.48708762897E+02  0.47000000000E+01 0. -1.
<mgrwt>
<rscale>  2 0.14292809E+02</rscale>
<asrwt>0</asrwt>
<pdfrwt beam="1">  1       21 0.79562721E-02 0.14292809E+02</pdfrwt>
<pdfrwt beam="2">  1       21 0.20911192E-02 0.14292809E+02</pdfrwt>
<totfact> 0.81445408E+07</totfact>
</mgrwt>
</event>
<event>
 4    1  0.3858687E+006  0.1065523E+02  0.7546771E-02  0.2039510E+00
         21   -1    0    0  503  502  0.00000000000E+00  0.00000000000E+00  0.90703505241E+01  0.90703505241E+01  0.00000000000E+00 0. -1.
         21   -1    0    0  501  503 -0.00000000000E+00 -0.00000000000E+00 -0.15842194237E+02  0.15842194237E+02  0.00000000000E+00 0. -1.
          5    1    1    2  501    0  0.80930090744E+01  0.50938309796E+01 -0.90926416103E+01  0.14007499469E+02  0.47000000000E+01 0. -1.
         -5    1    1    2    0  502 -0.80930090744E+01 -0.50938309796E+01  0.23207978978E+01  0.10905045291E+02  0.47000000000E+01 0. -1.
<mgrwt>
<rscale>  2 0.10655229E+02</rscale>
<asrwt>0</asrwt>
<pdfrwt beam="1">  1       21 0.13954385E-02 0.10655229E+02</pdfrwt>
<pdfrwt beam="2">  1       21 0.24372607E-02 0.10655229E+02</pdfrwt>
<totfact> 0.80530094E+08</totfact>
</mgrwt>
</event>
<event>
 4    1  0.3858687E+006  0.4836898E+01  0.7546771E-02  0.2596927E+00
         21   -1    0    0  503  502  0.00000000000E+00  0.00000000000E+00  0.21438215243E+01  0.21438215243E+01  0.00000000000E+00 0. -1.
         21   -1    0    0  501  503 -0.00000000000E+00 -0.00000000000E+00 -0.10920374586E+02  0.10920374586E+02  0.00000000000E+00 0.  1.
          5    1    1    2  501    0  0.91322042676E+00 -0.68673753899E+00 -0.45577244961E+01  0.66459335370E+01  0.47000000000E+01 0. -1.
         -5    1    1    2    0  502 -0.91322042676E+00  0.68673753899E+00 -0.42188285659E+01  0.64182625736E+01  0.47000000000E+01 0.  1.
<mgrwt>
<rscale>  2 0.48368978E+01</rscale>
<asrwt>0</asrwt>
<pdfrwt beam="1">  1       21 0.32981870E-03 0.48368978E+01</pdfrwt>
<pdfrwt beam="2">  1       21 0.16800576E-02 0.48368978E+01</pdfrwt>
<totfact> 0.56958473E+09</totfact>
</mgrwt>
</event>
<event>
 4    1  0.3858687E+006  0.5483341E+01  0.7546771E-02  0.2487946E+00
         21   -1    0    0  501  502  0.00000000000E+00  0.00000000000E+00  0.93565718060E-01  0.93565718060E-01  0.00000000000E+00 0. -1.
         21   -1    0    0  502  503 -0.00000000000E+00 -0.00000000000E+00 -0.33767569105E+03  0.33767569105E+03  0.00000000000E+00 0.  1.
          5    1    1    2  501    0  0.27897926423E+01 -0.44054733614E+00 -0.13165282504E+03  0.13176696614E+03  0.47000000000E+01 0. -1.
         -5    1    1    2    0  503 -0.27897926423E+01  0.44054733614E+00 -0.20592930030E+03  0.20600229063E+03  0.47000000000E+01 0.  1.
<mgrwt>
<rscale>  2 0.54833407E+01</rscale>
<asrwt>0</asrwt>
<pdfrwt beam="1">  1       21 0.14394981E-04 0.54833407E+01</pdfrwt>
<pdfrwt beam="2">  1       21 0.51949186E-01 0.54833407E+01</pdfrwt>
<totfact> 0.21264122E+09</totfact>
</mgrwt>
</event>
<event>
 4    1  0.3858687E+006  0.5848630E+01  0.7546771E-02  0.2435551E+00
         21   -1    0    0  503  502  0.00000000000E+00  0.00000000000E+00  0.35321996376E+00  0.35321996376E+00  0.00000000000E+00 0. -1.
         21   -1    0    0  501  503 -0.00000000000E+00 -0.00000000000E+00 -0.10967980762E+03  0.10967980762E+03  0.00000000000E+00 0.  1.
          5    1    1    2  501    0  0.19586879876E+01 -0.28775020969E+01 -0.73485806164E+02  0.73718180828E+02  0.47000000000E+01 0.  1.
         -5    1    1    2    0  502 -0.19586879876E+01  0.28775020969E+01 -0.35840781490E+02  0.36314846754E+02  0.47000000000E+01 0. -1.
<mgrwt>
<rscale>  2 0.58486303E+01</rscale>
<asrwt>0</asrwt>
<pdfrwt beam="1">  1       21 0.54341464E-04 0.58486303E+01</pdfrwt>
<pdfrwt beam="2">  1       21 0.16873838E-01 0.58486303E+01</pdfrwt>
<totfact> 0.25316649E+09</totfact>
</mgrwt>
</event>
<event>
 4    1  0.3858687E+006  0.6921424E+01  0.7546771E-02  0.2308989E+00
         21   -1    0    0  503  502  0.00000000000E+00  0.00000000000E+00  0.47189325850E+01  0.47189325850E+01  0.00000000000E+00 0. -1.
         21   -1    0    0  501  503 -0.00000000000E+00 -0.00000000000E+00 -0.21971365619E+02  0.21971365619E+02  0.00000000000E+00 0. -1.
          5    1    1    2  501    0  0.37272262175E+01 -0.34530986010E+01 -0.18414215798E+02  0.19672047395E+02  0.47000000000E+01 0. -1.
         -5    1    1    2    0  502 -0.37272262175E+01  0.34530986010E+01  0.11617827649E+01  0.70182508090E+01  0.47000000000E+01 0. -1.
<mgrwt>
<rscale>  2 0.69214236E+01</rscale>
<asrwt>0</asrwt>
<pdfrwt beam="1">  1       21 0.72598963E-03 0.69214236E+01</pdfrwt>
<pdfrwt beam="2">  1       21 0.33802101E-02 0.69214236E+01</pdfrwt>
<totfact> 0.96403482E+08</totfact>
</mgrwt>
</event>
<event>
 4    1  0.3858687E+006  0.6158138E+01  0.7546771E-02  0.2395285E+00
         21   -1    0    0  503  502  0.00000000000E+00  0.00000000000E+00  0.14540823836E+01  0.14540823836E+01  0.00000000000E+00 0. -1.
         21   -1    0    0  501  503 -0.00000000000E+00 -0.00000000000E+00 -0.30879083787E+02  0.30879083787E+02  0.00000000000E+00 0.  1.
          5    1    1    2  501    0 -0.24297446010E+01 -0.31510322540E+01 -0.83392772075E+01  0.10366590926E+02  0.47000000000E+01 0. -1.
         -5    1    1    2    0  502  0.24297446010E+01  0.31510322540E+01 -0.21085724196E+02  0.21966575244E+02  0.47000000000E+01 0.  1.
<mgrwt>
<rscale>  2 0.61581380E+01</rscale>
<asrwt>0</asrwt>
<pdfrwt beam="1">  1       21 0.22370499E-03 0.61581380E+01</pdfrwt>
<pdfrwt beam="2">  1       21 0.47506280E-02 0.61581380E+01</pdfrwt>
<totfact> 0.27270882E+09</totfact>
</mgrwt>
</event>
<event>
 4    1  0.3858687E+006  0.5955373E+01  0.7546771E-02  0.2421268E+00
         21   -1    0    0  501  502  0.00000000000E+00  0.00000000000E+00  0.32455436340E+03  0.32455436340E+03  0.00000000000E+00 0. -1.
         21   -1    0    0  502  503 -0.00000000000E+00 -0.00000000000E+00 -0.12258228211E+00  0.12258228211E+00  0.00000000000E+00 0. -1.
          5    1    1    2  501    0  0.26603359388E+01 -0.25097974884E+01  0.21569848035E+03  0.21578067776E+03  0.47000000000E+01 0. -1.
         -5    1    1    2    0  503 -0.26603359388E+01  0.25097974884E+01  0.10873330077E+03  0.10889626792E+03  0.47000000000E+01 0. -1.
<mgrwt>
<rscale>  2 0.59553733E+01</rscale>
<asrwt>0</asrwt>
<pdfrwt beam="1">  1       21 0.49930753E-01 0.59553733E+01</pdfrwt>
<pdfrwt beam="2">  1       21 0.18859072E-04 0.59553733E+01</pdfrwt>
<totfact> 0.17011197E+09</totfact>
</mgrwt>
</event>
<event>
 4    1  0.3858687E+006  0.5886407E+01  0.7546771E-02  0.2430446E+00
         21   -1    0    0  503  502  0.00000000000E+00  0.00000000000E+00  0.32137352795E+02  0.32137352795E+02  0.00000000000E+00 0. -1.
         21   -1    0    0  501  503 -0.00000000000E+00 -0.00000000000E+00 -0.10921771381E+01  0.10921771381E+01  0.00000000000E+00 0.  1.
          5    1    1    2  501    0  0.31043381913E+01 -0.17096418260E+01  0.13641555015E+02  0.14857382475E+02  0.47000000000E+01 0.  1.
         -5    1    1    2    0  502 -0.31043381913E+01  0.17096418260E+01  0.17403620641E+02  0.18372147458E+02  0.47000000000E+01 0.  1.
<mgrwt>
<rscale>  2 0.58864073E+01</rscale>
<asrwt>0</asrwt>
<pdfrwt beam="1">  1       21 0.49442074E-02 0.58864073E+01</pdfrwt>
<pdfrwt beam="2">  1       21 0.16802728E-03 0.58864073E+01</pdfrwt>
<totfact> 0.36469991E+09</totfact>
</mgrwt>
</event>
<event>
 4    1  0.3858687E+006  0.4981809E+01  0.7546771E-02  0.2570391E+00
         21   -1    0    0  501  502  0.00000000000E+00  0.00000000000E+00  0.78520503472E+00  0.78520503472E+00  0.00000000000E+00 0.  1.
         21   -1    0    0  502  503 -0.00000000000E+00 -0.00000000000E+00 -0.33911447877E+02  0.33911447877E+02  0.00000000000E+00 0.  1.
          5    1    1    2  501    0 -0.13632283457E+01  0.93275279413E+00 -0.12041287544E+02  0.13031155936E+02  0.47000000000E+01 0.  1.
         -5    1    1    2    0  503  0.13632283457E+01 -0.93275279413E+00 -0.21084955298E+02  0.21665496976E+02  0.47000000000E+01 0.  1.
<mgrwt>
<rscale>  2 0.49818088E+01</rscale>
<asrwt>0</asrwt>
<pdfrwt beam="1">  1       21 0.12080077E-03 0.49818088E+01</pdfrwt>
<pdfrwt beam="2">  1       21 0.52171461E-02 0.49818088E+01</pdfrwt>
<totfact> 0.44675817E+09</totfact>
</mgrwt>
</event>
<event>
 4    1  0.3858687E+006  0.5442703E+01  0.7546771E-02  0.2494142E+00
         21   -1    0    0  501  502  0.00000000000E+00  0.00000000000E+00  0.71739506284E+00  0.71739506284E+00  0.00000000000E+00 0.  1.
         21   -1    0    0  502  503 -0.00000000000E+00 -0.00000000000E+00 -0.35130499048E+03  0.35130499048E+03  0.00000000000E+00 0.  1.
          5    1    1    2  501    0  0.14095893660E+01 -0.23550103498E+01 -0.99500635303E+01  0.11341374704E+02  0.47000000000E+01 0.  1.
         -5    1    1    2    0  503 -0.14095893660E+01  0.23550103498E+01 -0.34063753188E+03  0.34068101083E+03  0.47000000000E+01 0.  1.
<mgrwt>
<rscale>  2 0.54427030E+01</rscale>
<asrwt>0</asrwt>
<pdfrwt beam="1">  1       21 0.11036855E-03 0.54427030E+01</pdfrwt>
<pdfrwt beam="2">  1       21 0.54046883E-01 0.54427030E+01</pdfrwt>
<totfact> 0.13098312E+08</totfact>
</mgrwt>
</event>
<event>
 4    1  0.3858687E+006  0.4999527E+01  0.7546771E-02  0.2567238E+00
         21   -1    0    0  501  502  0.00000000000E+00  0.00000000000E+00  0.41924284108E-01  0.41924284108E-01  0.00000000000E+00 0.  1.
         21   -1    0    0  502  503 -0.00000000000E+00 -0.00000000000E+00 -0.95893204732E+03  0.95893204732E+03  0.00000000000E+00 0.  1.
          5    1    1    2  501    0 -0.16973358585E+01 -0.15596297299E+00 -0.18454446366E+03  0.18461217279E+03  0.47000000000E+01 0.  1.
         -5    1    1    2    0  503  0.16973358585E+01  0.15596297299E+00 -0.77434565937E+03  0.77436179881E+03  0.47000000000E+01 0.  1.
<mgrwt>
<rscale>  2 0.49995273E+01</rscale>
<asrwt>0</asrwt>
<pdfrwt beam="1">  1       21 0.64501077E-05 0.49995273E+01</pdfrwt>
<pdfrwt beam="2">  1       21 0.14752302E+00 0.49995273E+01</pdfrwt>
<totfact> 0.74623510E+08</totfact>
</mgrwt>
</event>
<event>
 4    1  0.3858687E+006  0.1042039E+02  0.7546771E-02  0.2051823E+00
         21   -1    0    0  503  502  0.00000000000E+00  0.00000000000E+00  0.12824222878E+02  0.12824222878E+02  0.00000000000E+00 0. -1.
         21   -1    0    0  501  503 -0.00000000000E+00 -0.00000000000E+00 -0.22171020931E+02  0.22171020931E+02  0.00000000000E+00 0.  1.
          5    1    1    2  501    0  0.90881750161E+01  0.19747565706E+01 -0.18429895745E+02  0.21171812530E+02  0.47000000000E+01 0.  1.
         -5    1    1    2    0  502 -0.90881750161E+01 -0.19747565706E+01  0.90830976925E+01  0.13823431279E+02  0.47000000000E+01 0. -1.
<mgrwt>
<rscale>  2 0.10420393E+02</rscale>
<asrwt>0</asrwt>
<pdfrwt beam="1">  1       21 0.19729574E-02 0.10420393E+02</pdfrwt>
<pdfrwt beam="2">  1       21 0.34109263E-02 0.10420393E+02</pdfrwt>
<totfact> 0.28820211E+08</totfact>
</mgrwt>
</event>
<event>
 4    1  0.3858687E+006  0.5599119E+01  0.7546771E-02  0.2470715E+00
         21   -1    0    0  501  502  0.00000000000E+00  0.00000000000E+00  0.84466715989E+01  0.84466715989E+01  0.00000000000E+00 0. -1.
         21   -1    0    0  502  503 -0.00000000000E+00 -0.00000000000E+00 -0.47908402010E+01  0.47908402010E+01  0.00000000000E+00 0. -1.
          5    1    1    2  501    0  0.18949566159E+01  0.23810242348E+01  0.49694527598E+01  0.74863607791E+01  0.47000000000E+01 0. -1.
         -5    1    1    2    0  503 -0.18949566159E+01 -0.23810242348E+01 -0.13136213619E+01  0.57511510209E+01  0.47000000000E+01 0. -1.
<mgrwt>
<rscale>  2 0.55991193E+01</rscale>
<asrwt>0</asrwt>
<pdfrwt beam="1">  1       21 0.12994879E-02 0.55991193E+01</pdfrwt>
<pdfrwt beam="2">  1       21 0.73705234E-03 0.55991193E+01</pdfrwt>
<totfact> 0.31411789E+09</totfact>
</mgrwt>
</event>
<event>
 4    1  0.3858687E+006  0.8684768E+01  0.7546771E-02  0.2158602E+00
         21   -1    0    0  503  502  0.00000000000E+00  0.00000000000E+00  0.96013619013E+00  0.96013619013E+00  0.00000000000E+00 0.  1.
         21   -1    0    0  501  503 -0.00000000000E+00 -0.00000000000E+00 -0.13429480032E+03  0.13429480032E+03  0.00000000000E+00 0. -1.
          5    1    1    2  501    0 -0.69121420744E+01  0.23574314907E+01 -0.11023550679E+03  0.11057708691E+03  0.47000000000E+01 0. -1.
         -5    1    1    2    0  502  0.69121420744E+01 -0.23574314907E+01 -0.23099157340E+02  0.24677849605E+02  0.47000000000E+01 0.  1.
<mgrwt>
<rscale>  2 0.86847678E+01</rscale>
<asrwt>0</asrwt>
<pdfrwt beam="1">  1       21 0.14771331E-03 0.86847678E+01</pdfrwt>
<pdfrwt beam="2">  1       21 0.20660732E-01 0.86847678E+01</pdfrwt>
<totfact> 0.62023236E+08</totfact>
</mgrwt>
</event>
<event>
 4    1  0.3858687E+006  0.5284610E+01  0.7546771E-02  0.2519013E+00
         21   -1    0    0  501  502  0.00000000000E+00  0.00000000000E+00  0.16566437619E+01  0.16566437619E+01  0.00000000000E+00 0.  1.
         21   -1    0    0  502  503 -0.00000000000E+00 -0.00000000000E+00 -0.16904635920E+02  0.16904635920E+02  0.00000000000E+00 0. -1.
          5    1    1    2  501    0  0.13018682909E+01  0.20352503670E+01 -0.81133267233E+01  0.96826223526E+01  0.47000000000E+01 0. -1.
         -5    1    1    2    0  503 -0.13018682909E+01 -0.20352503670E+01 -0.71346654344E+01  0.88786573289E+01  0.47000000000E+01 0.  1.
<mgrwt>
<rscale>  2 0.52846102E+01</rscale>
<asrwt>0</asrwt>
<pdfrwt beam="1">  1       21 0.25486827E-03 0.52846102E+01</pdfrwt>
<pdfrwt beam="2">  1       21 0.26007133E-02 0.52846102E+01</pdfrwt>
<totfact> 0.47698541E+09</totfact>
</mgrwt>
</event>
<event>
 4    1  0.3858687E+006  0.5533954E+01  0.7546771E-02  0.2480338E+00
         21   -1    0    0  503  502  0.00000000000E+00  0.00000000000E+00  0.14113533105E+04  0.14113533105E+04  0.00000000000E+00 0. -1.
         21   -1    0    0  501  503 -0.00000000000E+00 -0.00000000000E+00 -0.17371651097E+00  0.17371651097E+00  0.00000000000E+00 0. -1.
          5    1    1    2  501    0  0.76974256240E+00  0.28181803512E+01  0.45374204031E+02  0.45710425896E+02  0.47000000000E+01 0. -1.
         -5    1    1    2    0  502 -0.76974256240E+00 -0.28181803512E+01  0.13658053900E+04  0.13658166012E+04  0.47000000000E+01 0. -1.
<mgrwt>
<rscale>  2 0.55339537E+01</rscale>
<asrwt>0</asrwt>
<pdfrwt beam="1">  1       21 0.21712210E+00 0.55339537E+01</pdfrwt>
<pdfrwt beam="2">  1       21 0.26726747E-04 0.55339537E+01</pdfrwt>
<totfact> 0.52038864E+07</totfact>
</mgrwt>
</event>
<event>
 4    1  0.3858687E+006  0.1632843E+02  0.7546771E-02  0.1830044E+00
         21   -1    0    0  503  502  0.00000000000E+00  0.00000000000E+00  0.80807810397E+01  0.80807810397E+01  0.00000000000E+00 0.  1.
         21   -1    0    0  501  503 -0.00000000000E+00 -0.00000000000E+00 -0.47227951113E+02  0.47227951113E+02  0.00000000000E+00 0. -1.
          5    1    1    2  501    0 -0.45098143547E+01 -0.14972953172E+02 -0.34755481196E+02  0.38400015956E+02  0.47000000000E+01 0. -1.
         -5    1    1    2    0  502  0.45098143547E+01  0.14972953172E+02 -0.43916888764E+01  0.16908716196E+02  0.47000000000E+01 0.  1.
<mgrwt>
<rscale>  2 0.16328434E+02</rscale>
<asrwt>0</asrwt>
<pdfrwt beam="1">  1       21 0.12431971E-02 0.16328434E+02</pdfrwt>
<pdfrwt beam="2">  1       21 0.72658386E-02 0.16328434E+02</pdfrwt>
<totfact> 0.21565371E+08</totfact>
</mgrwt>
</event>
<event>
 4    1  0.3858687E+006  0.5031270E+01  0.7546771E-02  0.2561636E+00
         21   -1    0    0  503  502  0.00000000000E+00  0.00000000000E+00  0.97724449827E+00  0.97724449827E+00  0.00000000000E+00 0. -1.
         21   -1    0    0  501  503 -0.00000000000E+00 -0.00000000000E+00 -0.23084543710E+03  0.23084543710E+03  0.00000000000E+00 0. -1.
          5    1    1    2  501    0  0.33776833073E+00  0.17634026207E+01 -0.22414879927E+03  0.22420525839E+03  0.47000000000E+01 0. -1.
         -5    1    1    2    0  502 -0.33776833073E+00 -0.17634026207E+01 -0.57193933372E+01  0.76174232122E+01  0.47000000000E+01 0. -1.
<mgrwt>
<rscale>  2 0.50312698E+01</rscale>
<asrwt>0</asrwt>
<pdfrwt beam="1">  1       21 0.15034528E-03 0.50312698E+01</pdfrwt>
<pdfrwt beam="2">  1       21 0.35514689E-01 0.50312698E+01</pdfrwt>
<totfact> 0.17054488E+08</totfact>
</mgrwt>
</event>
<event>
 4    1  0.3858687E+006  0.4774874E+01  0.7546771E-02  0.2608710E+00
         21   -1    0    0  501  502  0.00000000000E+00  0.00000000000E+00  0.30359823740E+01  0.30359823740E+01  0.00000000000E+00 0.  1.
         21   -1    0    0  502  503 -0.00000000000E+00 -0.00000000000E+00 -0.75175952707E+01  0.75175952707E+01  0.00000000000E+00 0.  1.
          5    1    1    2  501    0 -0.29970267610E+00  0.78714798401E+00 -0.24114319721E+01  0.53492455355E+01  0.47000000000E+01 0.  1.
         -5    1    1    2    0  503  0.29970267610E+00 -0.78714798401E+00 -0.20701809245E+01  0.52043321092E+01  0.47000000000E+01 0.  1.
<mgrwt>
<rscale>  2 0.47748742E+01</rscale>
<asrwt>0</asrwt>
<pdfrwt beam="1">  1       21 0.46707422E-03 0.47748742E+01</pdfrwt>
<pdfrwt beam="2">  1       21 0.11565531E-02 0.47748742E+01</pdfrwt>
<totfact> 0.58985360E+09</totfact>
</mgrwt>
</event>
<event>
 4    1  0.3858687E+006  0.7606254E+01  0.7546771E-02  0.2243893E+00
         21   -1    0    0  501  502  0.00000000000E+00  0.00000000000E+00  0.40142148185E+00  0.40142148185E+00  0.00000000000E+00 0.  1.
         21   -1    0    0  502  503 -0.00000000000E+00 -0.00000000000E+00 -0.71923566621E+03  0.71923566621E+03  0.00000000000E+00 0.  1.
          5    1    1    2  501    0  0.59746120580E+01 -0.26287958407E+00 -0.37663507762E+02  0.38423884654E+02  0.47000000000E+01 0.  1.
         -5    1    1    2    0  503 -0.59746120580E+01  0.26287958407E+00 -0.68117073697E+03  0.68121320304E+03  0.47000000000E+01 0.  1.
<mgrwt>
<rscale>  2 0.76062537E+01</rscale>
<asrwt>0</asrwt>
<pdfrwt beam="1">  1       21 0.61757642E-04 0.76062537E+01</pdfrwt>
<pdfrwt beam="2">  1       21 0.11065076E+00 0.76062537E+01</pdfrwt>
<totfact> 0.85963926E+07</totfact>
</mgrwt>
</event>
<event>
 4    1  0.3858687E+006  0.4823027E+01  0.7546771E-02  0.2599540E+00
         21   -1    0    0  501  502  0.00000000000E+00  0.00000000000E+00  0.11447361620E+03  0.11447361620E+03  0.00000000000E+00 0.  1.
         21   -1    0    0  502  503 -0.00000000000E+00 -0.00000000000E+00 -0.16266677023E+01  0.16266677023E+01  0.00000000000E+00 0.  1.
          5    1    1    2  501    0  0.10378164171E+01  0.30744808684E+00  0.11072686425E+03  0.11083185487E+03  0.47000000000E+01 0.  1.
         -5    1    1    2    0  503 -0.10378164171E+01 -0.30744808684E+00  0.21200842460E+01  0.52684290307E+01  0.47000000000E+01 0.  1.
<mgrwt>
<rscale>  2 0.48230268E+01</rscale>
<asrwt>0</asrwt>
<pdfrwt beam="1">  1       21 0.17611319E-01 0.48230268E+01</pdfrwt>
<pdfrwt beam="2">  1       21 0.25025666E-03 0.48230268E+01</pdfrwt>
<totfact> 0.26019921E+08</totfact>
</mgrwt>
</event>
<event>
 4    1  0.3858687E+006  0.5507765E+01  0.7546771E-02  0.2484260E+00
         21   -1    0    0  501  502  0.00000000000E+00  0.00000000000E+00  0.91068611781E+01  0.91068611781E+01  0.00000000000E+00 0. -1.
         21   -1    0    0  502  503 -0.00000000000E+00 -0.00000000000E+00 -0.33337491538E+01  0.33337491538E+01  0.00000000000E+00 0. -1.
          5    1    1    2  501    0  0.20417088640E+01 -0.20191340563E+01  0.27098049754E+01  0.61382831824E+01  0.47000000000E+01 0. -1.
         -5    1    1    2    0  503 -0.20417088640E+01  0.20191340563E+01  0.30633070489E+01  0.63023271495E+01  0.47000000000E+01 0. -1.
<mgrwt>
<rscale>  2 0.55077652E+01</rscale>
<asrwt>0</asrwt>
<pdfrwt beam="1">  1       21 0.14010556E-02 0.55077652E+01</pdfrwt>
<pdfrwt beam="2">  1       21 0.51288449E-03 0.55077652E+01</pdfrwt>
<totfact> 0.46011511E+09</totfact>
</mgrwt>
</event>
<event>
 4    1  0.3858687E+006  0.6623494E+01  0.7546771E-02  0.2340712E+00
         21   -1    0    0  503  502  0.00000000000E+00  0.00000000000E+00  0.14225842981E+01  0.14225842981E+01  0.00000000000E+00 0. -1.
         21   -1    0    0  501  503 -0.00000000000E+00 -0.00000000000E+00 -0.59019138942E+03  0.59019138942E+03  0.00000000000E+00 0.  1.
          5    1    1    2  501    0  0.32890094162E+01  0.33110548980E+01 -0.58235944684E+03  0.58239711194E+03  0.47000000000E+01 0.  1.
         -5    1    1    2    0  502 -0.32890094162E+01 -0.33110548980E+01 -0.64093582730E+01  0.92168617733E+01  0.47000000000E+01 0. -1.
<mgrwt>
<rscale>  2 0.66234936E+01</rscale>
<asrwt>0</asrwt>
<pdfrwt beam="1">  1       21 0.21885927E-03 0.66234936E+01</pdfrwt>
<pdfrwt beam="2">  1       21 0.90798613E-01 0.66234936E+01</pdfrwt>
<totfact> 0.21583962E+07</totfact>
</mgrwt>
</event>
<event>
 4    1  0.3858687E+006  0.1659231E+02  0.7546771E-02  0.1823040E+00
         21   -1    0    0  503  502  0.00000000000E+00  0.00000000000E+00  0.35384551122E+02  0.35384551122E+02  0.00000000000E+00 0. -1.
         21   -1    0    0  501  503 -0.00000000000E+00 -0.00000000000E+00 -0.19051377694E+02  0.19051377694E+02  0.00000000000E+00 0.  1.
          5    1    1    2  501    0  0.40802104297E+01  0.15380720197E+02 -0.12768460573E+02  0.20936529233E+02  0.47000000000E+01 0.  1.
         -5    1    1    2    0  502 -0.40802104297E+01 -0.15380720197E+02  0.29101634000E+02  0.33499399583E+02  0.47000000000E+01 0. -1.
<mgrwt>
<rscale>  2 0.16592308E+02</rscale>
<asrwt>0</asrwt>
<pdfrwt beam="1">  1       21 0.54437771E-02 0.16592308E+02</pdfrwt>
<pdfrwt beam="2">  1       21 0.29309812E-02 0.16592308E+02</pdfrwt>
<totfact> 0.93759177E+07</totfact>
</mgrwt>
</event>
<event>
 4    1  0.3858687E+006  0.5874629E+01  0.7546771E-02  0.2432032E+00
         21   -1    0    0  501  502  0.00000000000E+00  0.00000000000E+00  0.18603154173E+03  0.18603154173E+03  0.00000000000E+00 0.  1.
         21   -1    0    0  502  503 -0.00000000000E+00 -0.00000000000E+00 -0.21414868152E+00  0.21414868152E+00  0.00000000000E+00 0.  1.
          5    1    1    2  501    0 -0.12476510661E+01  0.32961547844E+01  0.12696145438E+03  0.12709729410E+03  0.47000000000E+01 0.  1.
         -5    1    1    2    0  503  0.12476510661E+01 -0.32961547844E+01  0.58855938675E+02  0.59148396317E+02  0.47000000000E+01 0.  1.
<mgrwt>
<rscale>  2 0.58746293E+01</rscale>
<asrwt>0</asrwt>
<pdfrwt beam="1">  1       21 0.28620108E-01 0.58746293E+01</pdfrwt>
<pdfrwt beam="2">  1       21 0.32946100E-04 0.58746293E+01</pdfrwt>
<totfact> 0.20971782E+09</totfact>
</mgrwt>
</event>
<event>
 4    1  0.3858687E+006  0.5282903E+01  0.7546771E-02  0.2519288E+00
         21   -1    0    0  503  502  0.00000000000E+00  0.00000000000E+00  0.17628778106E+03  0.17628778106E+03  0.00000000000E+00 0. -1.
         21   -1    0    0  501  503 -0.00000000000E+00 -0.00000000000E+00 -0.17453562410E+00  0.17453562410E+00  0.00000000000E+00 0. -1.
          5    1    1    2  501    0 -0.15930462858E+01  0.18114274259E+01  0.11495392525E+03  0.11507525362E+03  0.47000000000E+01 0. -1.
         -5    1    1    2    0  502  0.15930462858E+01 -0.18114274259E+01  0.61159320188E+02  0.61387063065E+02  0.47000000000E+01 0. -1.
<mgrwt>
<rscale>  2 0.52829032E+01</rscale>
<asrwt>0</asrwt>
<pdfrwt beam="1">  1       21 0.27121055E-01 0.52829032E+01</pdfrwt>
<pdfrwt beam="2">  1       21 0.26851775E-04 0.52829032E+01</pdfrwt>
<totfact> 0.27511731E+09</totfact>
</mgrwt>
</event>
<event>
 4    1  0.3858687E+006  0.7085059E+01  0.7546771E-02  0.2292503E+00
         21   -1    0    0  503  502  0.00000000000E+00  0.00000000000E+00  0.65263027816E+00  0.65263027816E+00  0.00000000000E+00 0. -1.
         21   -1    0    0  501  503 -0.00000000000E+00 -0.00000000000E+00 -0.97131842813E+02  0.97131842813E+02  0.00000000000E+00 0. -1.
          5    1    1    2  501    0  0.18765342404E+01  0.49584959181E+01 -0.70544451891E+02  0.70899349469E+02  0.47000000000E+01 0. -1.
         -5    1    1    2    0  502 -0.18765342404E+01 -0.49584959181E+01 -0.25934760644E+02  0.26885123622E+02  0.47000000000E+01 0. -1.
<mgrwt>
<rscale>  2 0.70850591E+01</rscale>
<asrwt>0</asrwt>
<pdfrwt beam="1">  1       21 0.10040462E-03 0.70850591E+01</pdfrwt>
<pdfrwt beam="2">  1       21 0.14943367E-01 0.70850591E+01</pdfrwt>
<totfact> 0.15625603E+09</totfact>
</mgrwt>
</event>
<event>
 4    1  0.3858687E+006  0.8388171E+01  0.7546771E-02  0.2180294E+00
         21   -1    0    0  503  502  0.00000000000E+00  0.00000000000E+00  0.63559729848E+02  0.63559729848E+02  0.00000000000E+00 0.  1.
         21   -1    0    0  501  503 -0.00000000000E+00 -0.00000000000E+00 -0.40020143613E+01  0.40020143613E+01  0.00000000000E+00 0. -1.
          5    1    1    2  501    0 -0.69378302186E+01  0.37138207580E+00  0.10475123698E+01  0.84533244912E+01  0.47000000000E+01 0. -1.
         -5    1    1    2    0  502  0.69378302186E+01 -0.37138207580E+00  0.58510203117E+02  0.59108419718E+02  0.47000000000E+01 0.  1.
<mgrwt>
<rscale>  2 0.83881710E+01</rscale>
<asrwt>0</asrwt>
<pdfrwt beam="1">  1       21 0.97784192E-02 0.83881710E+01</pdfrwt>
<pdfrwt beam="2">  1       21 0.61569456E-03 0.83881710E+01</pdfrwt>
<totfact> 0.27519594E+08</totfact>
</mgrwt>
</event>
<event>
 4    1  0.3858687E+006  0.6583915E+01  0.7546771E-02  0.2345104E+00
         21   -1    0    0  501  502  0.00000000000E+00  0.00000000000E+00  0.17207732826E+01  0.17207732826E+01  0.00000000000E+00 0. -1.
         21   -1    0    0  502  503 -0.00000000000E+00 -0.00000000000E+00 -0.65608104719E+02  0.65608104719E+02  0.00000000000E+00 0.  1.
          5    1    1    2  501    0  0.39930333366E+01  0.23051306894E+01 -0.55210740405E+01  0.85924502491E+01  0.47000000000E+01 0. -1.
         -5    1    1    2    0  503 -0.39930333366E+01 -0.23051306894E+01 -0.58366257396E+02  0.58736427752E+02  0.47000000000E+01 0.  1.
<mgrwt>
<rscale>  2 0.65839155E+01</rscale>
<asrwt>0</asrwt>
<pdfrwt beam="1">  1       21 0.26473430E-03 0.65839155E+01</pdfrwt>
<pdfrwt beam="2">  1       21 0.10093556E-01 0.65839155E+01</pdfrwt>
<totfact> 0.73042213E+08</totfact>
</mgrwt>
</event>
<event>
 4    1  0.3858687E+006  0.5765204E+01  0.7546771E-02  0.2447022E+00
         21   -1    0    0  503  502  0.00000000000E+00  0.00000000000E+00  0.79043485236E+01  0.79043485236E+01  0.00000000000E+00 0. -1.
         21   -1    0    0  501  503 -0.00000000000E+00 -0.00000000000E+00 -0.78963184484E+01  0.78963184484E+01  0.00000000000E+00 0.  1.
          5    1    1    2  501    0  0.31615195537E+01  0.10734836965E+01 -0.53976224429E+01  0.78975883136E+01  0.47000000000E+01 0.  1.
         -5    1    1    2    0  502 -0.31615195537E+01 -0.10734836965E+01  0.54056525181E+01  0.79030786584E+01  0.47000000000E+01 0. -1.
<mgrwt>
<rscale>  2 0.57652037E+01</rscale>
<asrwt>0</asrwt>
<pdfrwt beam="1">  1       21 0.12160536E-02 0.57652037E+01</pdfrwt>
<pdfrwt beam="2">  1       21 0.12148182E-02 0.57652037E+01</pdfrwt>
<totfact> 0.17557013E+09</totfact>
</mgrwt>
</event>
<event>
 4    1  0.3858687E+006  0.5457901E+01  0.7546771E-02  0.2491816E+00
         21   -1    0    0  501  502  0.00000000000E+00  0.00000000000E+00  0.16295801406E+04  0.16295801406E+04  0.00000000000E+00 0. -1.
         21   -1    0    0  502  503 -0.00000000000E+00 -0.00000000000E+00 -0.11784333112E+00  0.11784333112E+00  0.00000000000E+00 0.  1.
          5    1    1    2  501    0  0.52404842743E+00 -0.27247122512E+01  0.15637183422E+04  0.15637278671E+04  0.47000000000E+01 0. -1.
         -5    1    1    2    0  503 -0.52404842743E+00  0.27247122512E+01  0.65743955064E+02  0.65970116804E+02  0.47000000000E+01 0.  1.
<mgrwt>
<rscale>  2 0.54579010E+01</rscale>
<asrwt>0</asrwt>
<pdfrwt beam="1">  1       21 0.25068659E+00 0.54579010E+01</pdfrwt>
<pdfrwt beam="2">  1       21 0.18131048E-04 0.54579010E+01</pdfrwt>
<totfact> 0.62466706E+07</totfact>
</mgrwt>
</event>
<event>
 4    1  0.3858687E+006  0.5116791E+01  0.7546771E-02  0.2546843E+00
         21   -1    0    0  503  502  0.00000000000E+00  0.00000000000E+00  0.20246361210E+00  0.20246361210E+00  0.00000000000E+00 0. -1.
         21   -1    0    0  501  503 -0.00000000000E+00 -0.00000000000E+00 -0.27167831668E+03  0.27167831668E+03  0.00000000000E+00 0. -1.
          5    1    1    2  501    0  0.19870806183E+01  0.37822903154E+00 -0.23414364549E+03  0.23419954797E+03  0.47000000000E+01 0. -1.
         -5    1    1    2    0  502 -0.19870806183E+01 -0.37822903154E+00 -0.37332207584E+02  0.37681232327E+02  0.47000000000E+01 0. -1.
<mgrwt>
<rscale>  2 0.51167907E+01</rscale>
<asrwt>0</asrwt>
<pdfrwt beam="1">  1       21 0.31148321E-04 0.51167907E+01</pdfrwt>
<pdfrwt beam="2">  1       21 0.41796566E-01 0.51167907E+01</pdfrwt>
<totfact> 0.10587609E+09</totfact>
</mgrwt>
</event>
<event>
 4    1  0.3858687E+006  0.5878102E+01  0.7546771E-02  0.2431564E+00
         21   -1    0    0  501  502  0.00000000000E+00  0.00000000000E+00  0.30460992957E+01  0.30460992957E+01  0.00000000000E+00 0. -1.
         21   -1    0    0  502  503 -0.00000000000E+00 -0.00000000000E+00 -0.17336369908E+02  0.17336369908E+02  0.00000000000E+00 0. -1.
          5    1    1    2  501    0 -0.32660347739E+01 -0.13398130611E+01 -0.11530064706E+01  0.59901173698E+01  0.47000000000E+01 0. -1.
         -5    1    1    2    0  503  0.32660347739E+01  0.13398130611E+01 -0.13137264142E+02  0.14392351834E+02  0.47000000000E+01 0. -1.
<mgrwt>
<rscale>  2 0.58781019E+01</rscale>
<asrwt>0</asrwt>
<pdfrwt beam="1">  1       21 0.46863067E-03 0.58781019E+01</pdfrwt>
<pdfrwt beam="2">  1       21 0.26671338E-02 0.58781019E+01</pdfrwt>
<totfact> 0.22037653E+09</totfact>
</mgrwt>
</event>
<event>
 4    1  0.3858687E+006  0.5402038E+01  0.7546771E-02  0.2500421E+00
         21   -1    0    0  501  502  0.00000000000E+00  0.00000000000E+00  0.91664211302E+00  0.91664211302E+00  0.00000000000E+00 0.  1.
         21   -1    0    0  502  503 -0.00000000000E+00 -0.00000000000E+00 -0.38361045847E+02  0.38361045847E+02  0.00000000000E+00 0. -1.
          5    1    1    2  501    0 -0.25101929496E+01 -0.88934911567E+00 -0.10622481439E+02  0.11917177619E+02  0.47000000000E+01 0.  1.
         -5    1    1    2    0  503  0.25101929496E+01  0.88934911567E+00 -0.26821922296E+02  0.27360510341E+02  0.47000000000E+01 0. -1.
<mgrwt>
<rscale>  2 0.54020376E+01</rscale>
<asrwt>0</asrwt>
<pdfrwt beam="1">  1       21 0.14102187E-03 0.54020376E+01</pdfrwt>
<pdfrwt beam="2">  1       21 0.59016991E-02 0.54020376E+01</pdfrwt>
<totfact> 0.32856484E+09</totfact>
</mgrwt>
</event>
<event>
 4    1  0.3858687E+006  0.5871756E+01  0.7546771E-02  0.2432420E+00
         21   -1    0    0  503  502  0.00000000000E+00  0.00000000000E+00  0.28374472877E+00  0.28374472877E+00  0.00000000000E+00 0. -1.
         21   -1    0    0  501  503 -0.00000000000E+00 -0.00000000000E+00 -0.15279624204E+03  0.15279624204E+03  0.00000000000E+00 0. -1.
          5    1    1    2  501    0  0.20921214593E+01 -0.28302913633E+01 -0.11089132401E+03  0.11104667155E+03  0.47000000000E+01 0. -1.
         -5    1    1    2    0  502 -0.20921214593E+01  0.28302913633E+01 -0.41621173303E+02  0.42033315221E+02  0.47000000000E+01 0. -1.
<mgrwt>
<rscale>  2 0.58717562E+01</rscale>
<asrwt>0</asrwt>
<pdfrwt beam="1">  1       21 0.43652990E-04 0.58717562E+01</pdfrwt>
<pdfrwt beam="2">  1       21 0.23507138E-01 0.58717562E+01</pdfrwt>
<totfact> 0.19939690E+09</totfact>
</mgrwt>
</event>
<event>
 4    1  0.3858687E+006  0.4890228E+01  0.7546771E-02  0.2587003E+00
         21   -1    0    0  501  502  0.00000000000E+00  0.00000000000E+00  0.60903445851E+01  0.60903445851E+01  0.00000000000E+00 0. -1.
         21   -1    0    0  502  503 -0.00000000000E+00 -0.00000000000E+00 -0.75624472390E+01  0.75624472390E+01  0.00000000000E+00 0.  1.
          5    1    1    2  501    0 -0.14037923122E+00 -0.13433634055E+01  0.39972402616E+01  0.63160320833E+01  0.47000000000E+01 0. -1.
         -5    1    1    2    0  503  0.14037923122E+00  0.13433634055E+01 -0.54693429154E+01  0.73367597408E+01  0.47000000000E+01 0.  1.
<mgrwt>
<rscale>  2 0.48902282E+01</rscale>
<asrwt>0</asrwt>
<pdfrwt beam="1">  1       21 0.93697609E-03 0.48902282E+01</pdfrwt>
<pdfrwt beam="2">  1       21 0.11634534E-02 0.48902282E+01</pdfrwt>
<totfact> 0.22980233E+09</totfact>
</mgrwt>
</event>
<event>
 4    1  0.3858687E+006  0.8387216E+01  0.7546771E-02  0.2180366E+00
         21   -1    0    0  501  502  0.00000000000E+00  0.00000000000E+00  0.32629778094E+01  0.32629778094E+01  0.00000000000E+00 0.  1.
         21   -1    0    0  502  503 -0.00000000000E+00 -0.00000000000E+00 -0.21888228540E+02  0.21888228540E+02  0.00000000000E+00 0. -1.
          5    1    1    2  501    0  0.68681856161E+01  0.10408772021E+01 -0.10855755256E+02  0.13718338864E+02  0.47000000000E+01 0. -1.
         -5    1    1    2    0  503 -0.68681856161E+01 -0.10408772021E+01 -0.77694954743E+01  0.11432867485E+02  0.47000000000E+01 0.  1.
<mgrwt>
<rscale>  2 0.83872164E+01</rscale>
<asrwt>0</asrwt>
<pdfrwt beam="1">  1       21 0.50199659E-03 0.83872164E+01</pdfrwt>
<pdfrwt beam="2">  1       21 0.33674198E-02 0.83872164E+01</pdfrwt>
<totfact> 0.18713086E+09</totfact>
</mgrwt>
</event>
<event>
 4    1  0.3858687E+006  0.5071928E+01  0.7546771E-02  0.2554550E+00
         21   -1    0    0  501  502  0.00000000000E+00  0.00000000000E+00  0.15368801668E+02  0.15368801668E+02  0.00000000000E+00 0.  1.
         21   -1    0    0  502  503 -0.00000000000E+00 -0.00000000000E+00 -0.19977520508E+01  0.19977520508E+01  0.00000000000E+00 0.  1.
          5    1    1    2  501    0  0.65950775500E+00 -0.17887145869E+01  0.10182130620E+02  0.11375422379E+02  0.47000000000E+01 0.  1.
         -5    1    1    2    0  503 -0.65950775500E+00  0.17887145869E+01  0.31889189974E+01  0.59911313393E+01  0.47000000000E+01 0.  1.
<mgrwt>
<rscale>  2 0.50719277E+01</rscale>
<asrwt>0</asrwt>
<pdfrwt beam="1">  1       21 0.23644309E-02 0.50719277E+01</pdfrwt>
<pdfrwt beam="2">  1       21 0.30734648E-03 0.50719277E+01</pdfrwt>
<totfact> 0.40629422E+09</totfact>
</mgrwt>
</event>
<event>
 4    1  0.3858687E+006  0.5599819E+01  0.7546771E-02  0.2470612E+00
         21   -1    0    0  503  502  0.00000000000E+00  0.00000000000E+00  0.38747319943E+02  0.38747319943E+02  0.00000000000E+00 0. -1.
         21   -1    0    0  501  503 -0.00000000000E+00 -0.00000000000E+00 -0.17040100023E+01  0.17040100023E+01  0.00000000000E+00 0. -1.
          5    1    1    2  501    0  0.79886744685E+00 -0.29376498488E+01  0.38658617995E+01  0.68046207304E+01  0.47000000000E+01 0. -1.
         -5    1    1    2    0  502 -0.79886744685E+00  0.29376498488E+01  0.33177448141E+02  0.33646709215E+02  0.47000000000E+01 0. -1.
<mgrwt>
<rscale>  2 0.55998193E+01</rscale>
<asrwt>0</asrwt>
<pdfrwt beam="1">  1       21 0.59611255E-02 0.55998193E+01</pdfrwt>
<pdfrwt beam="2">  1       21 0.26215541E-03 0.55998193E+01</pdfrwt>
<totfact> 0.14454109E+09</totfact>
</mgrwt>
</event>
<event>
 4    1  0.3858687E+006  0.6812520E+01  0.7546771E-02  0.2320320E+00
         21   -1    0    0  501  502  0.00000000000E+00  0.00000000000E+00  0.11326160863E+01  0.11326160863E+01  0.00000000000E+00 0. -1.
         21   -1    0    0  502  503 -0.00000000000E+00 -0.00000000000E+00 -0.41197978462E+02  0.41197978462E+02  0.00000000000E+00 0. -1.
          5    1    1    2  501    0  0.49299068337E+01  0.12822667449E+00 -0.18480143419E+02  0.19695840278E+02  0.47000000000E+01 0. -1.
         -5    1    1    2    0  503 -0.49299068337E+01 -0.12822667449E+00 -0.21585218957E+02  0.22634754271E+02  0.47000000000E+01 0. -1.
<mgrwt>
<rscale>  2 0.68125196E+01</rscale>
<asrwt>0</asrwt>
<pdfrwt beam="1">  1       21 0.17424862E-03 0.68125196E+01</pdfrwt>
<pdfrwt beam="2">  1       21 0.63381507E-02 0.68125196E+01</pdfrwt>
<totfact> 0.27081105E+09</totfact>
</mgrwt>
</event>
<event>
 4    1  0.3858687E+006  0.5814369E+01  0.7546771E-02  0.2440228E+00
         21   -1    0    0  503  502  0.00000000000E+00  0.00000000000E+00  0.61754138587E+03  0.61754138587E+03  0.00000000000E+00 0.  1.
         21   -1    0    0  501  503 -0.00000000000E+00 -0.00000000000E+00 -0.69194892091E-01  0.69194892091E-01  0.00000000000E+00 0.  1.
          5    1    1    2  501    0 -0.26879824476E+01 -0.21193488591E+01  0.16761560130E+03  0.16771641747E+03  0.47000000000E+01 0.  1.
         -5    1    1    2    0  502  0.26879824476E+01  0.21193488591E+01  0.44985658967E+03  0.44989416329E+03  0.47000000000E+01 0.  1.
<mgrwt>
<rscale>  2 0.58143692E+01</rscale>
<asrwt>0</asrwt>
<pdfrwt beam="1">  1       21 0.95001954E-01 0.58143692E+01</pdfrwt>
<pdfrwt beam="2">  1       21 0.10645863E-04 0.58143692E+01</pdfrwt>
<totfact> 0.10576262E+09</totfact>
</mgrwt>
</event>
<event>
 4    1  0.3858687E+006  0.7059505E+01  0.7546771E-02  0.2295036E+00
         21   -1    0    0  501  502  0.00000000000E+00  0.00000000000E+00  0.11581853874E+02  0.11581853874E+02  0.00000000000E+00 0.  1.
         21   -1    0    0  502  503 -0.00000000000E+00 -0.00000000000E+00 -0.63616708734E+01  0.63616708734E+01  0.00000000000E+00 0.  1.
          5    1    1    2  501    0 -0.31996835221E+01  0.41843328401E+01  0.77138080463E+01  0.10456550604E+02  0.47000000000E+01 0.  1.
         -5    1    1    2    0  503  0.31996835221E+01 -0.41843328401E+01 -0.24936250456E+01  0.74869741436E+01  0.47000000000E+01 0.  1.
<mgrwt>
<rscale>  2 0.70595054E+01</rscale>
<asrwt>0</asrwt>
<pdfrwt beam="1">  1       21 0.17818237E-02 0.70595054E+01</pdfrwt>
<pdfrwt beam="2">  1       21 0.97871860E-03 0.70595054E+01</pdfrwt>
<totfact> 0.16306370E+09</totfact>
</mgrwt>
</event>
<event>
 4    1  0.3858687E+006  0.1570943E+02  0.7546771E-02  0.1847161E+00
         21   -1    0    0  501  502  0.00000000000E+00  0.00000000000E+00  0.39146341697E+01  0.39146341697E+01  0.00000000000E+00 0.  1.
         21   -1    0    0  502  503 -0.00000000000E+00 -0.00000000000E+00 -0.63531139950E+02  0.63531139950E+02  0.00000000000E+00 0. -1.
          5    1    1    2  501    0 -0.11323563891E+01 -0.14947041998E+02 -0.26849176750E+02  0.31107307624E+02  0.47000000000E+01 0.  1.
         -5    1    1    2    0  503  0.11323563891E+01  0.14947041998E+02 -0.32767329030E+02  0.36338466495E+02  0.47000000000E+01 0. -1.
<mgrwt>
<rscale>  2 0.15709433E+02</rscale>
<asrwt>0</asrwt>
<pdfrwt beam="1">  1       21 0.60225146E-03 0.15709433E+02</pdfrwt>
<pdfrwt beam="2">  1       21 0.97740207E-02 0.15709433E+02</pdfrwt>
<totfact> 0.38393876E+08</totfact>
</mgrwt>
</event>
<event>
 4    1  0.3858687E+006  0.1015116E+02  0.7546771E-02  0.2066486E+00
         21   -1    0    0  503  502  0.00000000000E+00  0.00000000000E+00  0.13899017319E+01  0.13899017319E+01  0.00000000000E+00 0.  1.
         21   -1    0    0  501  503 -0.00000000000E+00 -0.00000000000E+00 -0.86113639790E+02  0.86113639790E+02  0.00000000000E+00 0. -1.
          5    1    1    2  501    0 -0.89922431236E+01 -0.30912048498E+00 -0.26046758812E+02  0.27954957279E+02  0.47000000000E+01 0.  1.
         -5    1    1    2    0  502  0.89922431236E+01  0.30912048498E+00 -0.58676979246E+02  0.59548584243E+02  0.47000000000E+01 0. -1.
<mgrwt>
<rscale>  2 0.10151157E+02</rscale>
<asrwt>0</asrwt>
<pdfrwt beam="1">  1       21 0.21383104E-03 0.10151157E+02</pdfrwt>
<pdfrwt beam="2">  1       21 0.13248252E-01 0.10151157E+02</pdfrwt>
<totfact> 0.83930769E+08</totfact>
</mgrwt>
</event>
<event>
 4    1  0.3858687E+006  0.7874529E+01  0.7546771E-02  0.2220927E+00
         21   -1    0    0  501  502  0.00000000000E+00  0.00000000000E+00  0.49670769138E+03  0.49670769138E+03  0.00000000000E+00 0.  1.
         21   -1    0    0  502  503 -0.00000000000E+00 -0.00000000000E+00 -0.26963436943E+00  0.26963436943E+00  0.00000000000E+00 0.  1.
          5    1    1    2  501    0  0.49847993536E+01 -0.38820072598E+01  0.43031366586E+03  0.43038570983E+03  0.47000000000E+01 0.  1.
         -5    1    1    2    0  503 -0.49847993536E+01  0.38820072598E+01  0.66124391151E+02  0.66591615914E+02  0.47000000000E+01 0.  1.
<mgrwt>
<rscale>  2 0.78745289E+01</rscale>
<asrwt>0</asrwt>
<pdfrwt beam="1">  1       21 0.76415836E-01 0.78745289E+01</pdfrwt>
<pdfrwt beam="2">  1       21 0.41482608E-04 0.78745289E+01</pdfrwt>
<totfact> 0.31764640E+08</totfact>
</mgrwt>
</event>
<event>
 4    1  0.3858687E+006  0.5000194E+01  0.7546771E-02  0.2567119E+00
         21   -1    0    0  501  502  0.00000000000E+00  0.00000000000E+00  0.70565113199E+02  0.70565113199E+02  0.00000000000E+00 0.  1.
         21   -1    0    0  502  503 -0.00000000000E+00 -0.00000000000E+00 -0.86668603137E+00  0.86668603137E+00  0.00000000000E+00 0.  1.
          5    1    1    2  501    0 -0.14009372198E+01 -0.97432919079E+00  0.62310760314E+02  0.62511061368E+02  0.47000000000E+01 0.  1.
         -5    1    1    2    0  503  0.14009372198E+01  0.97432919079E+00  0.73876668536E+01  0.89207378622E+01  0.47000000000E+01 0.  1.
<mgrwt>
<rscale>  2 0.50001942E+01</rscale>
<asrwt>0</asrwt>
<pdfrwt beam="1">  1       21 0.10856167E-01 0.50001942E+01</pdfrwt>
<pdfrwt beam="2">  1       21 0.13333637E-03 0.50001942E+01</pdfrwt>
<totfact> 0.13189776E+09</totfact>
</mgrwt>
</event>
<event>
 4    1  0.3858687E+006  0.6396425E+01  0.7546771E-02  0.2366517E+00
         21   -1    0    0  503  502  0.00000000000E+00  0.00000000000E+00  0.49549004391E+02  0.49549004391E+02  0.00000000000E+00 0.  1.
         21   -1    0    0  501  503 -0.00000000000E+00 -0.00000000000E+00 -0.19415652632E+01  0.19415652632E+01  0.00000000000E+00 0.  1.
          5    1    1    2  501    0 -0.24179519893E+01 -0.36024662961E+01  0.42863568502E+01  0.76998123538E+01  0.47000000000E+01 0.  1.
         -5    1    1    2    0  502  0.24179519893E+01  0.36024662961E+01  0.43321082278E+02  0.43790757300E+02  0.47000000000E+01 0.  1.
<mgrwt>
<rscale>  2 0.63964252E+01</rscale>
<asrwt>0</asrwt>
<pdfrwt beam="1">  1       21 0.76229228E-02 0.63964252E+01</pdfrwt>
<pdfrwt beam="2">  1       21 0.29870239E-03 0.63964252E+01</pdfrwt>
<totfact> 0.93062382E+08</totfact>
</mgrwt>
</event>
<event>
 4    1  0.3858687E+006  0.5127645E+01  0.7546771E-02  0.2544996E+00
         21   -1    0    0  501  502  0.00000000000E+00  0.00000000000E+00  0.22905091800E-01  0.22905091800E-01  0.00000000000E+00 0. -1.
         21   -1    0    0  502  503 -0.00000000000E+00 -0.00000000000E+00 -0.17567210840E+04  0.17567210840E+04  0.00000000000E+00 0. -1.
          5    1    1    2  501    0 -0.19396565487E+00 -0.20408634312E+01 -0.36125205093E+03  0.36128844024E+03  0.47000000000E+01 0. -1.
         -5    1    1    2    0  503  0.19396565487E+00  0.20408634312E+01 -0.13954461280E+04  0.13954555488E+04  0.47000000000E+01 0. -1.
<mgrwt>
<rscale>  2 0.51276453E+01</rscale>
<asrwt>0</asrwt>
<pdfrwt beam="1">  1       21 0.35231724E-05 0.51276453E+01</pdfrwt>
<pdfrwt beam="2">  1       21 0.27031755E+00 0.51276453E+01</pdfrwt>
<totfact> 0.45492237E+08</totfact>
</mgrwt>
</event>
<event>
 4    1  0.3858687E+006  0.5595196E+01  0.7546771E-02  0.2471289E+00
         21   -1    0    0  503  502  0.00000000000E+00  0.00000000000E+00  0.16446454717E+02  0.16446454717E+02  0.00000000000E+00 0. -1.
         21   -1    0    0  501  503 -0.00000000000E+00 -0.00000000000E+00 -0.20521465505E+01  0.20521465505E+01  0.00000000000E+00 0.  1.
          5    1    1    2  501    0 -0.20960405375E+01  0.21960952755E+01  0.47080265862E+01  0.73124369898E+01  0.47000000000E+01 0.  1.
         -5    1    1    2    0  502  0.20960405375E+01 -0.21960952755E+01  0.96862815808E+01  0.11186164278E+02  0.47000000000E+01 0.  1.
<mgrwt>
<rscale>  2 0.55951962E+01</rscale>
<asrwt>0</asrwt>
<pdfrwt beam="1">  1       21 0.25302237E-02 0.55951962E+01</pdfrwt>
<pdfrwt beam="2">  1       21 0.31571487E-03 0.55951962E+01</pdfrwt>
<totfact> 0.39181375E+09</totfact>
</mgrwt>
</event>
<event>
 4    1  0.3858687E+006  0.5089035E+01  0.7546771E-02  0.2551597E+00
         21   -1    0    0  503  502  0.00000000000E+00  0.00000000000E+00  0.74747571558E+00  0.74747571558E+00  0.00000000000E+00 0.  1.
         21   -1    0    0  501  503 -0.00000000000E+00 -0.00000000000E+00 -0.35719524596E+02  0.35719524596E+02  0.00000000000E+00 0.  1.
          5    1    1    2  501    0 -0.17186691178E+01  0.92436706658E+00 -0.20644582897E+02  0.21262574656E+02  0.47000000000E+01 0.  1.
         -5    1    1    2    0  502  0.17186691178E+01 -0.92436706658E+00 -0.14327465984E+02  0.15204425656E+02  0.47000000000E+01 0.  1.
<mgrwt>
<rscale>  2 0.50890351E+01</rscale>
<asrwt>0</asrwt>
<pdfrwt beam="1">  1       21 0.11499631E-03 0.50890351E+01</pdfrwt>
<pdfrwt beam="2">  1       21 0.54953091E-02 0.50890351E+01</pdfrwt>
<totfact> 0.45189726E+09</totfact>
</mgrwt>
</event>
<event>
 4    1  0.3858687E+006  0.7962922E+01  0.7546771E-02  0.2213635E+00
         21   -1    0    0  503  502  0.00000000000E+00  0.00000000000E+00  0.84054006845E+02  0.84054006845E+02  0.00000000000E+00 0.  1.
         21   -1    0    0  501  503 -0.00000000000E+00 -0.00000000000E+00 -0.10051484736E+01  0.10051484736E+01  0.00000000000E+00 0. -1.
          5    1    1    2  501    0  0.62025900863E+01 -0.16870095426E+01  0.20281326003E+02  0.21788536192E+02  0.47000000000E+01 0. -1.
         -5    1    1    2    0  502 -0.62025900863E+01  0.16870095426E+01  0.62767532369E+02  0.63270619127E+02  0.47000000000E+01 0.  1.
<mgrwt>
<rscale>  2 0.79629219E+01</rscale>
<asrwt>0</asrwt>
<pdfrwt beam="1">  1       21 0.12931380E-01 0.79629219E+01</pdfrwt>
<pdfrwt beam="2">  1       21 0.15463829E-03 0.79629219E+01</pdfrwt>
<totfact> 0.11828530E+09</totfact>
</mgrwt>
</event>
<event>
 4    1  0.3858687E+006  0.7547740E+01  0.7546771E-02  0.2249077E+00
         21   -1    0    0  501  502  0.00000000000E+00  0.00000000000E+00  0.16811105622E+00  0.16811105622E+00  0.00000000000E+00 0. -1.
         21   -1    0    0  502  503 -0.00000000000E+00 -0.00000000000E+00 -0.34990526921E+03  0.34990526921E+03  0.00000000000E+00 0. -1.
          5    1    1    2  501    0  0.41937425303E+01 -0.41582334113E+01 -0.20594825582E+03  0.20608651692E+03  0.47000000000E+01 0. -1.
         -5    1    1    2    0  503 -0.41937425303E+01  0.41582334113E+01 -0.14378890233E+03  0.14398686334E+03  0.47000000000E+01 0. -1.
<mgrwt>
<rscale>  2 0.75477402E+01</rscale>
<asrwt>0</asrwt>
<pdfrwt beam="1">  1       21 0.25863500E-04 0.75477402E+01</pdfrwt>
<pdfrwt beam="2">  1       21 0.53831037E-01 0.75477402E+01</pdfrwt>
<totfact> 0.11434869E+09</totfact>
</mgrwt>
</event>
<event>
 4    1  0.3858687E+006  0.5240804E+01  0.7546771E-02  0.2526130E+00
         21   -1    0    0  501  502  0.00000000000E+00  0.00000000000E+00  0.75413315923E+02  0.75413315923E+02  0.00000000000E+00 0. -1.
         21   -1    0    0  502  503 -0.00000000000E+00 -0.00000000000E+00 -0.71069815717E+00  0.71069815717E+00  0.00000000000E+00 0. -1.
          5    1    1    2  501    0  0.21356804572E+01 -0.90271444617E+00  0.63927665570E+02  0.64142126950E+02  0.47000000000E+01 0. -1.
         -5    1    1    2    0  503 -0.21356804572E+01  0.90271444617E+00  0.10774952195E+02  0.11981887130E+02  0.47000000000E+01 0. -1.
<mgrwt>
<rscale>  2 0.52408038E+01</rscale>
<asrwt>0</asrwt>
<pdfrwt beam="1">  1       21 0.11602042E-01 0.52408038E+01</pdfrwt>
<pdfrwt beam="2">  1       21 0.10933824E-03 0.52408038E+01</pdfrwt>
<totfact> 0.16225529E+09</totfact>
</mgrwt>
</event>
<event>
 4    1  0.3858687E+006  0.5876904E+01  0.7546771E-02  0.2431725E+00
         21   -1    0    0  501  502  0.00000000000E+00  0.00000000000E+00  0.12880401516E+00  0.12880401516E+00  0.00000000000E+00 0. -1.
         21   -1    0    0  502  503 -0.00000000000E+00 -0.00000000000E+00 -0.27250713951E+03  0.27250713951E+03  0.00000000000E+00 0. -1.
          5    1    1    2  501    0  0.34515264735E+01 -0.73141172549E+00 -0.11893978076E+03  0.11908488336E+03  0.47000000000E+01 0. -1.
         -5    1    1    2    0  503 -0.34515264735E+01  0.73141172549E+00 -0.15343855473E+03  0.15355106016E+03  0.47000000000E+01 0. -1.
<mgrwt>
<rscale>  2 0.58769038E+01</rscale>
<asrwt>0</asrwt>
<pdfrwt beam="1">  1       21 0.19815963E-04 0.58769038E+01</pdfrwt>
<pdfrwt beam="2">  1       21 0.41924258E-01 0.58769038E+01</pdfrwt>
<totfact> 0.21502480E+09</totfact>
</mgrwt>
</event>
<event>
 4    1  0.3858687E+006  0.8674183E+01  0.7546771E-02  0.2159356E+00
         21   -1    0    0  501  502  0.00000000000E+00  0.00000000000E+00  0.22355766081E+02  0.22355766081E+02  0.00000000000E+00 0.  1.
         21   -1    0    0  502  503 -0.00000000000E+00 -0.00000000000E+00 -0.11462544580E+02  0.11462544580E+02  0.00000000000E+00 0.  1.
          5    1    1    2  501    0 -0.31902102372E+01  0.65554564969E+01  0.19658143382E+02  0.21486834399E+02  0.47000000000E+01 0.  1.
         -5    1    1    2    0  503  0.31902102372E+01 -0.65554564969E+01 -0.87649218806E+01  0.12331476263E+02  0.47000000000E+01 0.  1.
<mgrwt>
<rscale>  2 0.86741830E+01</rscale>
<asrwt>0</asrwt>
<pdfrwt beam="1">  1       21 0.34393486E-02 0.86741830E+01</pdfrwt>
<pdfrwt beam="2">  1       21 0.17634684E-02 0.86741830E+01</pdfrwt>
<totfact> 0.30406908E+08</totfact>
</mgrwt>
</event>
<event>
 4    1  0.3858687E+006  0.4810982E+01  0.7546771E-02  0.2601819E+00
         21   -1    0    0  503  502  0.00000000000E+00  0.00000000000E+00  0.23911069080E+01  0.23911069080E+01  0.00000000000E+00 0.  1.
         21   -1    0    0  501  503 -0.00000000000E+00 -0.00000000000E+00 -0.31770962726E+02  0.31770962726E+02  0.00000000000E+00 0.  1.
          5    1    1    2  501    0 -0.10247988017E+01 -0.73014581731E-01 -0.28933136601E+02  0.29330392723E+02  0.47000000000E+01 0.  1.
         -5    1    1    2    0  502  0.10247988017E+01  0.73014581731E-01 -0.44671921707E+00  0.48316769110E+01  0.47000000000E+01 0.  1.
<mgrwt>
<rscale>  2 0.48109816E+01</rscale>
<asrwt>0</asrwt>
<pdfrwt beam="1">  1       21 0.36786261E-03 0.48109816E+01</pdfrwt>
<pdfrwt beam="2">  1       21 0.48878403E-02 0.48109816E+01</pdfrwt>
<totfact> 0.10604217E+09</totfact>
</mgrwt>
</event>
<event>
 4    1  0.3858687E+006  0.5149374E+01  0.7546771E-02  0.2541318E+00
         21   -1    0    0  503  502  0.00000000000E+00  0.00000000000E+00  0.10111924332E+02  0.10111924332E+02  0.00000000000E+00 0.  1.
         21   -1    0    0  501  503 -0.00000000000E+00 -0.00000000000E+00 -0.29810478833E+01  0.29810478833E+01  0.00000000000E+00 0.  1.
          5    1    1    2  501    0 -0.21019572433E+01 -0.88479466394E-01  0.12942916563E+01  0.53095427073E+01  0.47000000000E+01 0.  1.
         -5    1    1    2    0  502  0.21019572433E+01  0.88479466394E-01  0.58365847926E+01  0.77834295083E+01  0.47000000000E+01 0.  1.
<mgrwt>
<rscale>  2 0.51493740E+01</rscale>
<asrwt>0</asrwt>
<pdfrwt beam="1">  1       21 0.15556806E-02 0.51493740E+01</pdfrwt>
<pdfrwt beam="2">  1       21 0.45862276E-03 0.51493740E+01</pdfrwt>
<totfact> 0.43256689E+09</totfact>
</mgrwt>
</event>
<event>
 4    1  0.3858687E+006  0.1365229E+02  0.7546771E-02  0.1912215E+00
         21   -1    0    0  503  502  0.00000000000E+00  0.00000000000E+00  0.23597969691E+01  0.23597969691E+01  0.00000000000E+00 0. -1.
         21   -1    0    0  501  503 -0.00000000000E+00 -0.00000000000E+00 -0.78998378672E+02  0.78998378672E+02  0.00000000000E+00 0.  1.
          5    1    1    2  501    0  0.12620275290E+01 -0.12755484282E+02 -0.37761568538E+02  0.40153719021E+02  0.47000000000E+01 0. -1.
         -5    1    1    2    0  502 -0.12620275290E+01  0.12755484282E+02 -0.38877013165E+02  0.41204456620E+02  0.47000000000E+01 0. -1.
<mgrwt>
<rscale>  2 0.13652293E+02</rscale>
<asrwt>0</asrwt>
<pdfrwt beam="1">  1       21 0.36304564E-03 0.13652293E+02</pdfrwt>
<pdfrwt beam="2">  1       21 0.12153598E-01 0.13652293E+02</pdfrwt>
<totfact> 0.52804247E+08</totfact>
</mgrwt>
</event>
<event>
 4    1  0.3858687E+006  0.7429950E+01  0.7546771E-02  0.2259714E+00
         21   -1    0    0  503  502  0.00000000000E+00  0.00000000000E+00  0.19584358797E+02  0.19584358797E+02  0.00000000000E+00 0. -1.
         21   -1    0    0  501  503 -0.00000000000E+00 -0.00000000000E+00 -0.30381436858E+01  0.30381436858E+01  0.00000000000E+00 0.  1.
          5    1    1    2  501    0 -0.45273355049E+01  0.35520970331E+01  0.52337575699E+01  0.90882549704E+01  0.47000000000E+01 0.  1.
         -5    1    1    2    0  502  0.45273355049E+01 -0.35520970331E+01  0.11312457541E+02  0.13534247513E+02  0.47000000000E+01 0. -1.
<mgrwt>
<rscale>  2 0.74299502E+01</rscale>
<asrwt>0</asrwt>
<pdfrwt beam="1">  1       21 0.30129782E-02 0.74299502E+01</pdfrwt>
<pdfrwt beam="2">  1       21 0.46740673E-03 0.74299502E+01</pdfrwt>
<totfact> 0.22379612E+09</totfact>
</mgrwt>
</event>
<event>
 4    1  0.3858687E+006  0.5087003E+01  0.7546771E-02  0.2551947E+00
         21   -1    0    0  501  502  0.00000000000E+00  0.00000000000E+00  0.24427074752E+03  0.24427074752E+03  0.00000000000E+00 0. -1.
         21   -1    0    0  502  503 -0.00000000000E+00 -0.00000000000E+00 -0.10620867664E+00  0.10620867664E+00  0.00000000000E+00 0. -1.
          5    1    1    2  501    0  0.11981226711E+01  0.15336553102E+01  0.11591578906E+03  0.11602735777E+03  0.47000000000E+01 0. -1.
         -5    1    1    2    0  503 -0.11981226711E+01 -0.15336553102E+01  0.12824874979E+03  0.12834959843E+03  0.47000000000E+01 0. -1.
<mgrwt>
<rscale>  2 0.50870027E+01</rscale>
<asrwt>0</asrwt>
<pdfrwt beam="1">  1       21 0.37579665E-01 0.50870027E+01</pdfrwt>
<pdfrwt beam="2">  1       21 0.16339992E-04 0.50870027E+01</pdfrwt>
<totfact> 0.29737391E+09</totfact>
</mgrwt>
</event>
<event>
 4    1  0.3858687E+006  0.8309176E+01  0.7546771E-02  0.2186280E+00
         21   -1    0    0  503  502  0.00000000000E+00  0.00000000000E+00  0.51565505784E+02  0.51565505784E+02  0.00000000000E+00 0.  1.
         21   -1    0    0  501  503 -0.00000000000E+00 -0.00000000000E+00 -0.80598422749E+01  0.80598422749E+01  0.00000000000E+00 0.  1.
          5    1    1    2  501    0  0.61227968815E+01 -0.30763238554E+01 -0.54711656106E+01  0.99486714316E+01  0.47000000000E+01 0.  1.
         -5    1    1    2    0  502 -0.61227968815E+01  0.30763238554E+01  0.48976829120E+02  0.49676676628E+02  0.47000000000E+01 0.  1.
<mgrwt>
<rscale>  2 0.83091763E+01</rscale>
<asrwt>0</asrwt>
<pdfrwt beam="1">  1       21 0.79331545E-02 0.83091763E+01</pdfrwt>
<pdfrwt beam="2">  1       21 0.12399758E-02 0.83091763E+01</pdfrwt>
<totfact> 0.13905050E+08</totfact>
</mgrwt>
</event>
<event>
 4    1  0.3858687E+006  0.6709683E+01  0.7546771E-02  0.2331297E+00
         21   -1    0    0  501  502  0.00000000000E+00  0.00000000000E+00  0.15255521387E+01  0.15255521387E+01  0.00000000000E+00 0.  1.
         21   -1    0    0  502  503 -0.00000000000E+00 -0.00000000000E+00 -0.70149823670E+02  0.70149823670E+02  0.00000000000E+00 0.  1.
          5    1    1    2  501    0 -0.47600616012E+01  0.52120891680E+00 -0.70349355676E+01  0.97216337939E+01  0.47000000000E+01 0.  1.
         -5    1    1    2    0  503  0.47600616012E+01 -0.52120891680E+00 -0.61589335963E+02  0.61953742014E+02  0.47000000000E+01 0.  1.
<mgrwt>
<rscale>  2 0.67096829E+01</rscale>
<asrwt>0</asrwt>
<pdfrwt beam="1">  1       21 0.23470028E-03 0.67096829E+01</pdfrwt>
<pdfrwt beam="2">  1       21 0.10792283E-01 0.67096829E+01</pdfrwt>
<totfact> 0.78755334E+08</totfact>
</mgrwt>
</event>
<event>
 4    1  0.3858687E+006  0.1089865E+02  0.7546771E-02  0.2027184E+00
         21   -1    0    0  501  502  0.00000000000E+00  0.00000000000E+00  0.17569552135E+03  0.17569552135E+03  0.00000000000E+00 0.  1.
         21   -1    0    0  502  503 -0.00000000000E+00 -0.00000000000E+00 -0.69896983842E+00  0.69896983842E+00  0.00000000000E+00 0. -1.
          5    1    1    2  501    0 -0.55419360903E+01  0.81226534625E+01  0.71530463810E+02  0.72355979765E+02  0.47000000000E+01 0. -1.
         -5    1    1    2    0  503  0.55419360903E+01 -0.81226534625E+01  0.10346608770E+03  0.10403851143E+03  0.47000000000E+01 0.  1.
<mgrwt>
<rscale>  2 0.10898649E+02</rscale>
<asrwt>0</asrwt>
<pdfrwt beam="1">  1       21 0.27030045E-01 0.10898649E+02</pdfrwt>
<pdfrwt beam="2">  1       21 0.10753396E-03 0.10898649E+02</pdfrwt>
<totfact> 0.68933563E+08</totfact>
</mgrwt>
</event>
<event>
 4    1  0.3858687E+006  0.6812428E+01  0.7546771E-02  0.2320330E+00
         21   -1    0    0  501  502  0.00000000000E+00  0.00000000000E+00  0.48924456612E+00  0.48924456612E+00  0.00000000000E+00 0. -1.
         21   -1    0    0  502  503 -0.00000000000E+00 -0.00000000000E+00 -0.11046319375E+03  0.11046319375E+03  0.00000000000E+00 0.  1.
          5    1    1    2  501    0 -0.43377220627E+01  0.23459206764E+01 -0.34136265784E+02  0.34809392672E+02  0.47000000000E+01 0. -1.
         -5    1    1    2    0  503  0.43377220627E+01 -0.23459206764E+01 -0.75837683402E+02  0.76143045646E+02  0.47000000000E+01 0.  1.
<mgrwt>
<rscale>  2 0.68124281E+01</rscale>
<asrwt>0</asrwt>
<pdfrwt beam="1">  1       21 0.75268442E-04 0.68124281E+01</pdfrwt>
<pdfrwt beam="2">  1       21 0.16994327E-01 0.68124281E+01</pdfrwt>
<totfact> 0.18246262E+09</totfact>
</mgrwt>
</event>
<event>
 4    1  0.3858687E+006  0.1178815E+02  0.7546771E-02  0.1985549E+00
         21   -1    0    0  501  502  0.00000000000E+00  0.00000000000E+00  0.16350821952E+01  0.16350821952E+01  0.00000000000E+00 0.  1.
         21   -1    0    0  502  503 -0.00000000000E+00 -0.00000000000E+00 -0.16625438258E+03  0.16625438258E+03  0.00000000000E+00 0. -1.
          5    1    1    2  501    0 -0.74908893598E+01 -0.77946829651E+01 -0.23619475667E+02  0.26397729764E+02  0.47000000000E+01 0.  1.
         -5    1    1    2    0  503  0.74908893598E+01  0.77946829651E+01 -0.14099982472E+03  0.14149173501E+03  0.47000000000E+01 0. -1.
<mgrwt>
<rscale>  2 0.11788151E+02</rscale>
<asrwt>0</asrwt>
<pdfrwt beam="1">  1       21 0.25155115E-03 0.11788151E+02</pdfrwt>
<pdfrwt beam="2">  1       21 0.25577592E-01 0.11788151E+02</pdfrwt>
<totfact> 0.23942665E+08</totfact>
</mgrwt>
</event>
<event>
 4    1  0.3858687E+006  0.5983272E+01  0.7546771E-02  0.2417606E+00
         21   -1    0    0  501  502  0.00000000000E+00  0.00000000000E+00  0.19072934636E+00  0.19072934636E+00  0.00000000000E+00 0.  1.
         21   -1    0    0  502  503 -0.00000000000E+00 -0.00000000000E+00 -0.11330458627E+04  0.11330458627E+04  0.00000000000E+00 0. -1.
          5    1    1    2  501    0 -0.33638637983E+00 -0.36873285331E+01 -0.48865265115E+02  0.49230211073E+02  0.47000000000E+01 0.  1.
         -5    1    1    2    0  503  0.33638637983E+00  0.36873285331E+01 -0.10839898682E+04  0.10840063810E+04  0.47000000000E+01 0. -1.
<mgrwt>
<rscale>  2 0.59832723E+01</rscale>
<asrwt>0</asrwt>
<pdfrwt beam="1">  1       21 0.29342737E-04 0.59832723E+01</pdfrwt>
<pdfrwt beam="2">  1       21 0.17431617E+00 0.59832723E+01</pdfrwt>
<totfact> 0.78011267E+07</totfact>
</mgrwt>
</event>
<event>
 4    1  0.3858687E+006  0.7202566E+01  0.7546771E-02  0.2281044E+00
         21   -1    0    0  503  502  0.00000000000E+00  0.00000000000E+00  0.64705886998E+01  0.64705886998E+01  0.00000000000E+00 0.  1.
         21   -1    0    0  501  503 -0.00000000000E+00 -0.00000000000E+00 -0.89264932994E+01  0.89264932994E+01  0.00000000000E+00 0.  1.
          5    1    1    2  501    0  0.47175229900E+01 -0.27444372610E+01 -0.36848366852E+01  0.80904252322E+01  0.47000000000E+01 0.  1.
         -5    1    1    2    0  502 -0.47175229900E+01  0.27444372610E+01  0.12289320855E+01  0.73066567671E+01  0.47000000000E+01 0.  1.
<mgrwt>
<rscale>  2 0.72025661E+01</rscale>
<asrwt>0</asrwt>
<pdfrwt beam="1">  1       21 0.99547518E-03 0.72025661E+01</pdfrwt>
<pdfrwt beam="2">  1       21 0.13733067E-02 0.72025661E+01</pdfrwt>
<totfact> 0.23529031E+09</totfact>
</mgrwt>
</event>
<event>
 4    1  0.3858687E+006  0.4700662E+01  0.7546771E-02  0.2623163E+00
         21   -1    0    0  501  502  0.00000000000E+00  0.00000000000E+00  0.21221274969E+00  0.21221274969E+00  0.00000000000E+00 0. -1.
         21   -1    0    0  502  503 -0.00000000000E+00 -0.00000000000E+00 -0.47342905478E+03  0.47342905478E+03  0.00000000000E+00 0. -1.
          5    1    1    2  501    0 -0.76577659763E-01  0.18907322956E-01 -0.27445201845E+02  0.27844843794E+02  0.47000000000E+01 0. -1.
         -5    1    1    2    0  503  0.76577659763E-01 -0.18907322956E-01 -0.44577164019E+03  0.44579642374E+03  0.47000000000E+01 0. -1.
<mgrwt>
<rscale>  2 0.47006618E+01</rscale>
<asrwt>0</asrwt>
<pdfrwt beam="1">  1       21 0.32648570E-04 0.47006618E+01</pdfrwt>
<pdfrwt beam="2">  1       21 0.72834226E-01 0.47006618E+01</pdfrwt>
<totfact> 0.34085573E+08</totfact>
</mgrwt>
</event>
<event>
 4    1  0.3858687E+006  0.5048667E+01  0.7546771E-02  0.2558592E+00
         21   -1    0    0  501  502  0.00000000000E+00  0.00000000000E+00  0.58561689231E+02  0.58561689231E+02  0.00000000000E+00 0. -1.
         21   -1    0    0  502  503 -0.00000000000E+00 -0.00000000000E+00 -0.55593043905E+00  0.55593043905E+00  0.00000000000E+00 0. -1.
          5    1    1    2  501    0  0.18713859734E+00  0.18341245995E+01  0.42774763361E+02  0.43071677638E+02  0.47000000000E+01 0. -1.
         -5    1    1    2    0  503 -0.18713859734E+00 -0.18341245995E+01  0.15230995431E+02  0.16045942033E+02  0.47000000000E+01 0. -1.
<mgrwt>
<rscale>  2 0.50486665E+01</rscale>
<asrwt>0</asrwt>
<pdfrwt beam="1">  1       21 0.90094858E-02 0.50486665E+01</pdfrwt>
<pdfrwt beam="2">  1       21 0.85527806E-04 0.50486665E+01</pdfrwt>
<totfact> 0.31872312E+09</totfact>
</mgrwt>
</event>
<event>
 4    1  0.3858687E+006  0.7037102E+01  0.7546771E-02  0.2297269E+00
         21   -1    0    0  503  502  0.00000000000E+00  0.00000000000E+00  0.11181765503E+04  0.11181765503E+04  0.00000000000E+00 0. -1.
         21   -1    0    0  501  503 -0.00000000000E+00 -0.00000000000E+00 -0.80355953307E-01  0.80355953307E-01  0.00000000000E+00 0.  1.
          5    1    1    2  501    0 -0.14192633782E+01 -0.50414782361E+01  0.18444733780E+03  0.18458153004E+03  0.47000000000E+01 0.  1.
         -5    1    1    2    0  502  0.14192633782E+01  0.50414782361E+01  0.93364885651E+03  0.93367537617E+03  0.47000000000E+01 0. -1.
<mgrwt>
<rscale>  2 0.70371025E+01</rscale>
<asrwt>0</asrwt>
<pdfrwt beam="1">  1       21 0.17201470E+00 0.70371025E+01</pdfrwt>
<pdfrwt beam="2">  1       21 0.12363350E-04 0.70371025E+01</pdfrwt>
<totfact> 0.27787234E+08</totfact>
</mgrwt>
</event>
<event>
 4    1  0.3858687E+006  0.4922327E+01  0.7546771E-02  0.2581120E+00
         21   -1    0    0  501  502  0.00000000000E+00  0.00000000000E+00  0.19214967445E+01  0.19214967445E+01  0.00000000000E+00 0.  1.
         21   -1    0    0  502  503 -0.00000000000E+00 -0.00000000000E+00 -0.16818222371E+02  0.16818222371E+02  0.00000000000E+00 0.  1.
          5    1    1    2  501    0  0.11257193509E+01 -0.93384093845E+00 -0.27611671825E+01  0.56438769623E+01  0.47000000000E+01 0.  1.
         -5    1    1    2    0  503 -0.11257193509E+01  0.93384093845E+00 -0.12135558444E+02  0.13095842153E+02  0.47000000000E+01 0.  1.
<mgrwt>
<rscale>  2 0.49223270E+01</rscale>
<asrwt>0</asrwt>
<pdfrwt beam="1">  1       21 0.29561490E-03 0.49223270E+01</pdfrwt>
<pdfrwt beam="2">  1       21 0.25874187E-02 0.49223270E+01</pdfrwt>
<totfact> 0.36510563E+09</totfact>
</mgrwt>
</event>
<event>
 4    1  0.3858687E+006  0.6062054E+01  0.7546771E-02  0.2407416E+00
         21   -1    0    0  503  502  0.00000000000E+00  0.00000000000E+00  0.22709046061E+01  0.22709046061E+01  0.00000000000E+00 0.  1.
         21   -1    0    0  501  503 -0.00000000000E+00 -0.00000000000E+00 -0.30874988225E+02  0.30874988225E+02  0.00000000000E+00 0. -1.
          5    1    1    2  501    0  0.11691179345E+01  0.36457735071E+01 -0.25734685978E+02  0.26439034846E+02  0.47000000000E+01 0. -1.
         -5    1    1    2    0  502 -0.11691179345E+01 -0.36457735071E+01 -0.28693976410E+01  0.67068579851E+01  0.47000000000E+01 0.  1.
<mgrwt>
<rscale>  2 0.60620542E+01</rscale>
<asrwt>0</asrwt>
<pdfrwt beam="1">  1       21 0.34936995E-03 0.60620542E+01</pdfrwt>
<pdfrwt beam="2">  1       21 0.47499980E-02 0.60620542E+01</pdfrwt>
<totfact> 0.14596409E+09</totfact>
</mgrwt>
</event>
<event>
 4    1  0.3858687E+006  0.6592693E+01  0.7546771E-02  0.2344126E+00
         21   -1    0    0  503  502  0.00000000000E+00  0.00000000000E+00  0.37955314443E+01  0.37955314443E+01  0.00000000000E+00 0. -1.
         21   -1    0    0  501  503 -0.00000000000E+00 -0.00000000000E+00 -0.23035889780E+02  0.23035889780E+02  0.00000000000E+00 0. -1.
          5    1    1    2  501    0  0.46050337091E+01 -0.40898724245E+00 -0.19133942017E+02  0.20237869036E+02  0.47000000000E+01 0. -1.
         -5    1    1    2    0  502 -0.46050337091E+01  0.40898724245E+00 -0.10641631925E+00  0.65935521883E+01  0.47000000000E+01 0. -1.
<mgrwt>
<rscale>  2 0.65926934E+01</rscale>
<asrwt>0</asrwt>
<pdfrwt beam="1">  1       21 0.58392792E-03 0.65926934E+01</pdfrwt>
<pdfrwt beam="2">  1       21 0.35439830E-02 0.65926934E+01</pdfrwt>
<totfact> 0.11781647E+09</totfact>
</mgrwt>
</event>
<event>
 4    1  0.3858687E+006  0.5246599E+01  0.7546771E-02  0.2525183E+00
         21   -1    0    0  501  502  0.00000000000E+00  0.00000000000E+00  0.27472468096E+02  0.27472468096E+02  0.00000000000E+00 0. -1.
         21   -1    0    0  502  503 -0.00000000000E+00 -0.00000000000E+00 -0.12488608775E+01  0.12488608775E+01  0.00000000000E+00 0. -1.
          5    1    1    2  501    0  0.17757256081E+01 -0.15111594898E+01  0.19496836298E+02  0.20190429170E+02  0.47000000000E+01 0. -1.
         -5    1    1    2    0  503 -0.17757256081E+01  0.15111594898E+01  0.67267709204E+01  0.85308998033E+01  0.47000000000E+01 0. -1.
<mgrwt>
<rscale>  2 0.52465993E+01</rscale>
<asrwt>0</asrwt>
<pdfrwt beam="1">  1       21 0.42265331E-02 0.52465993E+01</pdfrwt>
<pdfrwt beam="2">  1       21 0.19213246E-03 0.52465993E+01</pdfrwt>
<totfact> 0.34396137E+09</totfact>
</mgrwt>
</event>
<event>
 4    1  0.3858687E+006  0.4895290E+01  0.7546771E-02  0.2586071E+00
         21   -1    0    0  501  502  0.00000000000E+00  0.00000000000E+00  0.13250605350E+01  0.13250605350E+01  0.00000000000E+00 0.  1.
         21   -1    0    0  502  503 -0.00000000000E+00 -0.00000000000E+00 -0.23262776292E+02  0.23262776292E+02  0.00000000000E+00 0.  1.
          5    1    1    2  501    0  0.66862082247E-01  0.13672585831E+01 -0.51688771617E+01  0.71190700013E+01  0.47000000000E+01 0.  1.
         -5    1    1    2    0  503 -0.66862082247E-01 -0.13672585831E+01 -0.16768838595E+02  0.17468766826E+02  0.47000000000E+01 0.  1.
<mgrwt>
<rscale>  2 0.48952902E+01</rscale>
<asrwt>0</asrwt>
<pdfrwt beam="1">  1       21 0.20385547E-03 0.48952902E+01</pdfrwt>
<pdfrwt beam="2">  1       21 0.35788885E-02 0.48952902E+01</pdfrwt>
<totfact> 0.37656441E+09</totfact>
</mgrwt>
</event>
<event>
 4    1  0.3858687E+006  0.5313786E+01  0.7546771E-02  0.2514328E+00
         21   -1    0    0  501  502  0.00000000000E+00  0.00000000000E+00  0.59182507180E+01  0.59182507180E+01  0.00000000000E+00 0. -1.
         21   -1    0    0  502  503 -0.00000000000E+00 -0.00000000000E+00 -0.53593074438E+01  0.53593074438E+01  0.00000000000E+00 0. -1.
          5    1    1    2  501    0 -0.24791673018E+01  0.70492627490E-02  0.21476198726E+01  0.57313690615E+01  0.47000000000E+01 0. -1.
         -5    1    1    2    0  503  0.24791673018E+01 -0.70492627490E-02 -0.15886765984E+01  0.55461891003E+01  0.47000000000E+01 0. -1.
<mgrwt>
<rscale>  2 0.53137859E+01</rscale>
<asrwt>0</asrwt>
<pdfrwt beam="1">  1       21 0.91050010E-03 0.53137859E+01</pdfrwt>
<pdfrwt beam="2">  1       21 0.82450884E-03 0.53137859E+01</pdfrwt>
<totfact> 0.42103607E+09</totfact>
</mgrwt>
</event>
<event>
 4    1  0.3858687E+006  0.4856617E+01  0.7546771E-02  0.2593236E+00
         21   -1    0    0  503  502  0.00000000000E+00  0.00000000000E+00  0.12063012835E+01  0.12063012835E+01  0.00000000000E+00 0. -1.
         21   -1    0    0  501  503 -0.00000000000E+00 -0.00000000000E+00 -0.19558166634E+02  0.19558166634E+02  0.00000000000E+00 0. -1.
          5    1    1    2  501    0 -0.42285050402E+00 -0.11480101970E+01 -0.90061212438E+01  0.10232152746E+02  0.47000000000E+01 0. -1.
         -5    1    1    2    0  502  0.42285050402E+00  0.11480101970E+01 -0.93457441070E+01  0.10532315172E+02  0.47000000000E+01 0. -1.
<mgrwt>
<rscale>  2 0.48566171E+01</rscale>
<asrwt>0</asrwt>
<pdfrwt beam="1">  1       21 0.18558482E-03 0.48566171E+01</pdfrwt>
<pdfrwt beam="2">  1       21 0.30089486E-02 0.48566171E+01</pdfrwt>
<totfact> 0.54339465E+09</totfact>
</mgrwt>
</event>
<event>
 4    1  0.3858687E+006  0.7828317E+01  0.7546771E-02  0.2224792E+00
         21   -1    0    0  501  502  0.00000000000E+00  0.00000000000E+00  0.16670724501E+02  0.16670724501E+02  0.00000000000E+00 0. -1.
         21   -1    0    0  502  503 -0.00000000000E+00 -0.00000000000E+00 -0.22439618713E+02  0.22439618713E+02  0.00000000000E+00 0.  1.
          5    1    1    2  501    0  0.27676857231E+01  0.56153773440E+01  0.14997364929E+02  0.16917550112E+02  0.47000000000E+01 0. -1.
         -5    1    1    2    0  503 -0.27676857231E+01 -0.56153773440E+01 -0.20766259141E+02  0.22192793102E+02  0.47000000000E+01 0.  1.
<mgrwt>
<rscale>  2 0.78283170E+01</rscale>
<asrwt>0</asrwt>
<pdfrwt beam="1">  1       21 0.25647269E-02 0.78283170E+01</pdfrwt>
<pdfrwt beam="2">  1       21 0.34522490E-02 0.78283170E+01</pdfrwt>
<totfact> 0.16462014E+08</totfact>
</mgrwt>
</event>
<event>
 4    1  0.3858687E+006  0.5864877E+01  0.7546771E-02  0.2433349E+00
         21   -1    0    0  503  502  0.00000000000E+00  0.00000000000E+00  0.12608514747E+02  0.12608514747E+02  0.00000000000E+00 0.  1.
         21   -1    0    0  501  503 -0.00000000000E+00 -0.00000000000E+00 -0.42474296736E+01  0.42474296736E+01  0.00000000000E+00 0. -1.
          5    1    1    2  501    0 -0.31332933944E+01 -0.15777359914E+01  0.92212535034E+01  0.10928325330E+02  0.47000000000E+01 0.  1.
         -5    1    1    2    0  502  0.31332933944E+01  0.15777359914E+01 -0.86016842977E+00  0.59276190904E+01  0.47000000000E+01 0. -1.
<mgrwt>
<rscale>  2 0.58648767E+01</rscale>
<asrwt>0</asrwt>
<pdfrwt beam="1">  1       21 0.19397715E-02 0.58648767E+01</pdfrwt>
<pdfrwt beam="2">  1       21 0.65345073E-03 0.58648767E+01</pdfrwt>
<totfact> 0.21909206E+09</totfact>
</mgrwt>
</event>
<event>
 4    1  0.3858687E+006  0.5117437E+01  0.7546771E-02  0.2546733E+00
         21   -1    0    0  501  502  0.00000000000E+00  0.00000000000E+00  0.26143538468E+01  0.26143538468E+01  0.00000000000E+00 0. -1.
         21   -1    0    0  502  503 -0.00000000000E+00 -0.00000000000E+00 -0.10416343584E+02  0.10416343584E+02  0.00000000000E+00 0.  1.
          5    1    1    2  501    0  0.18930385959E+01 -0.71733478166E+00 -0.51765979218E+01  0.72791023045E+01  0.47000000000E+01 0.  1.
         -5    1    1    2    0  503 -0.18930385959E+01  0.71733478166E+00 -0.26253918154E+01  0.57515951265E+01  0.47000000000E+01 0. -1.
<mgrwt>
<rscale>  2 0.51174373E+01</rscale>
<asrwt>0</asrwt>
<pdfrwt beam="1">  1       21 0.40220830E-03 0.51174373E+01</pdfrwt>
<pdfrwt beam="2">  1       21 0.16025144E-02 0.51174373E+01</pdfrwt>
<totfact> 0.49341400E+09</totfact>
</mgrwt>
</event>
<event>
 4    1  0.3858687E+006  0.4774160E+01  0.7546771E-02  0.2608848E+00
         21   -1    0    0  501  502  0.00000000000E+00  0.00000000000E+00  0.39316563341E+03  0.39316563341E+03  0.00000000000E+00 0. -1.
         21   -1    0    0  502  503 -0.00000000000E+00 -0.00000000000E+00 -0.62685757098E-01  0.62685757098E-01  0.00000000000E+00 0. -1.
          5    1    1    2  501    0  0.83770068232E+00 -0.29379395264E-01  0.25046690424E+03  0.25051240034E+03  0.47000000000E+01 0. -1.
         -5    1    1    2    0  503 -0.83770068232E+00  0.29379395264E-01  0.14263604342E+03  0.14271591883E+03  0.47000000000E+01 0. -1.
<mgrwt>
<rscale>  2 0.47741602E+01</rscale>
<asrwt>0</asrwt>
<pdfrwt beam="1">  1       21 0.60485046E-01 0.47741602E+01</pdfrwt>
<pdfrwt beam="2">  1       21 0.96442775E-05 0.47741602E+01</pdfrwt>
<totfact> 0.24392862E+09</totfact>
</mgrwt>
</event>
<event>
 4    1  0.3858687E+006  0.4878769E+01  0.7546771E-02  0.2589120E+00
         21   -1    0    0  503  502  0.00000000000E+00  0.00000000000E+00  0.13683123658E+02  0.13683123658E+02  0.00000000000E+00 0. -1.
         21   -1    0    0  501  503 -0.00000000000E+00 -0.00000000000E+00 -0.17960793039E+01  0.17960793039E+01  0.00000000000E+00 0. -1.
          5    1    1    2  501    0 -0.12155486805E+00  0.13029245557E+01  0.45703725434E+01  0.66851098098E+01  0.47000000000E+01 0. -1.
         -5    1    1    2    0  502  0.12155486805E+00 -0.13029245557E+01  0.73166718108E+01  0.87940931522E+01  0.47000000000E+01 0. -1.
<mgrwt>
<rscale>  2 0.48787691E+01</rscale>
<asrwt>0</asrwt>
<pdfrwt beam="1">  1       21 0.21050959E-02 0.48787691E+01</pdfrwt>
<pdfrwt beam="2">  1       21 0.27631990E-03 0.48787691E+01</pdfrwt>
<totfact> 0.53141500E+09</totfact>
</mgrwt>
</event>
<event>
 4    1  0.3858687E+006  0.5136245E+01  0.7546771E-02  0.2543537E+00
         21   -1    0    0  503  502  0.00000000000E+00  0.00000000000E+00  0.24287856967E+02  0.24287856967E+02  0.00000000000E+00 0.  1.
         21   -1    0    0  501  503 -0.00000000000E+00 -0.00000000000E+00 -0.12208251667E+03  0.12208251667E+03  0.00000000000E+00 0.  1.
          5    1    1    2  501    0 -0.68767498688E+00  0.19539988418E+01 -0.12175622113E+03  0.12186450833E+03  0.47000000000E+01 0.  1.
         -5    1    1    2    0  502  0.68767498688E+00 -0.19539988418E+01  0.23961561424E+02  0.24505865303E+02  0.47000000000E+01 0.  1.
<mgrwt>
<rscale>  2 0.51362446E+01</rscale>
<asrwt>0</asrwt>
<pdfrwt beam="1">  1       21 0.37365934E-02 0.51362446E+01</pdfrwt>
<pdfrwt beam="2">  1       21 0.18781926E-01 0.51362446E+01</pdfrwt>
<totfact> 0.56558506E+06</totfact>
</mgrwt>
</event>
<event>
 4    1  0.3858687E+006  0.6448965E+01  0.7546771E-02  0.2360413E+00
         21   -1    0    0  503  502  0.00000000000E+00  0.00000000000E+00  0.37395795742E+02  0.37395795742E+02  0.00000000000E+00 0. -1.
         21   -1    0    0  501  503 -0.00000000000E+00 -0.00000000000E+00 -0.22235850278E+01  0.22235850278E+01  0.00000000000E+00 0.  1.
          5    1    1    2  501    0  0.26460389646E+01  0.35351975994E+01  0.35806917337E+01  0.73763471693E+01  0.47000000000E+01 0.  1.
         -5    1    1    2    0  502 -0.26460389646E+01 -0.35351975994E+01  0.31591518980E+02  0.32243033600E+02  0.47000000000E+01 0. -1.
<mgrwt>
<rscale>  2 0.64489646E+01</rscale>
<asrwt>0</asrwt>
<pdfrwt beam="1">  1       21 0.57531989E-02 0.64489646E+01</pdfrwt>
<pdfrwt beam="2">  1       21 0.34209003E-03 0.64489646E+01</pdfrwt>
<totfact> 0.11874267E+09</totfact>
</mgrwt>
</event>
<event>
 4    1  0.3858687E+006  0.5294845E+01  0.7546771E-02  0.2517364E+00
         21   -1    0    0  503  502  0.00000000000E+00  0.00000000000E+00  0.20975631177E+00  0.20975631177E+00  0.00000000000E+00 0. -1.
         21   -1    0    0  501  503 -0.00000000000E+00 -0.00000000000E+00 -0.20370369261E+03  0.20370369261E+03  0.00000000000E+00 0. -1.
          5    1    1    2  501    0 -0.14659825065E+01 -0.19484053643E+01 -0.16153446983E+03  0.16162122488E+03  0.47000000000E+01 0. -1.
         -5    1    1    2    0  502  0.14659825065E+01  0.19484053643E+01 -0.41959466467E+02  0.42292224042E+02  0.47000000000E+01 0. -1.
<mgrwt>
<rscale>  2 0.52948454E+01</rscale>
<asrwt>0</asrwt>
<pdfrwt beam="1">  1       21 0.32270097E-04 0.52948454E+01</pdfrwt>
<pdfrwt beam="2">  1       21 0.31339131E-01 0.52948454E+01</pdfrwt>
<totfact> 0.16986488E+09</totfact>
</mgrwt>
</event>
<event>
 4    1  0.3858687E+006  0.5023935E+01  0.7546771E-02  0.2562925E+00
         21   -1    0    0  503  502  0.00000000000E+00  0.00000000000E+00  0.42445627063E-01  0.42445627063E-01  0.00000000000E+00 0.  1.
         21   -1    0    0  501  503 -0.00000000000E+00 -0.00000000000E+00 -0.62191623465E+03  0.62191623465E+03  0.00000000000E+00 0. -1.
          5    1    1    2  501    0 -0.17334148109E+01  0.38104828140E+00 -0.37606179975E+03  0.37609535647E+03  0.47000000000E+01 0.  1.
         -5    1    1    2    0  502  0.17334148109E+01 -0.38104828140E+00 -0.24581198928E+03  0.24586332381E+03  0.47000000000E+01 0. -1.
<mgrwt>
<rscale>  2 0.50239352E+01</rscale>
<asrwt>0</asrwt>
<pdfrwt beam="1">  1       21 0.65299036E-05 0.50239352E+01</pdfrwt>
<pdfrwt beam="2">  1       21 0.95682246E-01 0.50239352E+01</pdfrwt>
<totfact> 0.17918478E+09</totfact>
</mgrwt>
</event>
<event>
 4    1  0.3858687E+006  0.5607084E+01  0.7546771E-02  0.2469551E+00
         21   -1    0    0  503  502  0.00000000000E+00  0.00000000000E+00  0.13989849866E+03  0.13989849866E+03  0.00000000000E+00 0. -1.
         21   -1    0    0  501  503 -0.00000000000E+00 -0.00000000000E+00 -0.46344665721E+00  0.46344665721E+00  0.00000000000E+00 0. -1.
          5    1    1    2  501    0 -0.20141028017E+01 -0.23006051451E+01  0.19348814788E+02  0.20144875970E+02  0.47000000000E+01 0. -1.
         -5    1    1    2    0  502  0.20141028017E+01  0.23006051451E+01  0.12008623722E+03  0.12021706935E+03  0.47000000000E+01 0. -1.
<mgrwt>
<rscale>  2 0.56070843E+01</rscale>
<asrwt>0</asrwt>
<pdfrwt beam="1">  1       21 0.21522812E-01 0.56070843E+01</pdfrwt>
<pdfrwt beam="2">  1       21 0.71299597E-04 0.56070843E+01</pdfrwt>
<totfact> 0.11518161E+09</totfact>
</mgrwt>
</event>
<event>
 4    1  0.3858687E+006  0.7042078E+01  0.7546771E-02  0.2296772E+00
         21   -1    0    0  501  502  0.00000000000E+00  0.00000000000E+00  0.39340839994E+02  0.39340839994E+02  0.00000000000E+00 0. -1.
         21   -1    0    0  502  503 -0.00000000000E+00 -0.00000000000E+00 -0.33003459215E+01  0.33003459215E+01  0.00000000000E+00 0.  1.
          5    1    1    2  501    0 -0.47734674643E+01  0.21713748699E+01  0.34781772620E+02  0.35487498743E+02  0.47000000000E+01 0. -1.
         -5    1    1    2    0  503  0.47734674643E+01 -0.21713748699E+01  0.12587214520E+01  0.71536871718E+01  0.47000000000E+01 0.  1.
<mgrwt>
<rscale>  2 0.70420779E+01</rscale>
<asrwt>0</asrwt>
<pdfrwt beam="1">  1       21 0.60524366E-02 0.70420779E+01</pdfrwt>
<pdfrwt beam="2">  1       21 0.50774555E-03 0.70420779E+01</pdfrwt>
<totfact> 0.67689768E+08</totfact>
</mgrwt>
</event>
<event>
 4    1  0.3858687E+006  0.5772957E+01  0.7546771E-02  0.2445945E+00
         21   -1    0    0  501  502  0.00000000000E+00  0.00000000000E+00  0.86085322541E+03  0.86085322541E+03  0.00000000000E+00 0.  1.
         21   -1    0    0  502  503 -0.00000000000E+00 -0.00000000000E+00 -0.20801692826E+00  0.20801692826E+00  0.00000000000E+00 0.  1.
          5    1    1    2  501    0  0.21324891955E+01 -0.25864113172E+01  0.81872955916E+03  0.81874991181E+03  0.47000000000E+01 0.  1.
         -5    1    1    2    0  503 -0.21324891955E+01  0.25864113172E+01  0.41915649318E+02  0.42311330532E+02  0.47000000000E+01 0.  1.
<mgrwt>
<rscale>  2 0.57729571E+01</rscale>
<asrwt>0</asrwt>
<pdfrwt beam="1">  1       21 0.13243611E+00 0.57729571E+01</pdfrwt>
<pdfrwt beam="2">  1       21 0.32003294E-04 0.57729571E+01</pdfrwt>
<totfact> 0.12275652E+08</totfact>
</mgrwt>
</event>
<event>
 4    1  0.3858687E+006  0.7059287E+01  0.7546771E-02  0.2295058E+00
         21   -1    0    0  503  502  0.00000000000E+00  0.00000000000E+00  0.58131194712E+01  0.58131194712E+01  0.00000000000E+00 0. -1.
         21   -1    0    0  501  503 -0.00000000000E+00 -0.00000000000E+00 -0.93829453685E+01  0.93829453685E+01  0.00000000000E+00 0. -1.
          5    1    1    2  501    0 -0.51872396797E+01 -0.91437092347E+00 -0.40178036704E+01  0.81225781630E+01  0.47000000000E+01 0. -1.
         -5    1    1    2    0  502  0.51872396797E+01  0.91437092347E+00  0.44797777317E+00  0.70734866767E+01  0.47000000000E+01 0. -1.
<mgrwt>
<rscale>  2 0.70592868E+01</rscale>
<asrwt>0</asrwt>
<pdfrwt beam="1">  1       21 0.89432608E-03 0.70592868E+01</pdfrwt>
<pdfrwt beam="2">  1       21 0.14435300E-02 0.70592868E+01</pdfrwt>
<totfact> 0.25114489E+09</totfact>
</mgrwt>
</event>
<event>
 4    1  0.3858687E+006  0.5475257E+01  0.7546771E-02  0.2489172E+00
         21   -1    0    0  503  502  0.00000000000E+00  0.00000000000E+00  0.82396168608E+01  0.82396168608E+01  0.00000000000E+00 0.  1.
         21   -1    0    0  501  503 -0.00000000000E+00 -0.00000000000E+00 -0.42342462672E+01  0.42342462672E+01  0.00000000000E+00 0. -1.
          5    1    1    2  501    0  0.23291942688E+01  0.15694899178E+01 -0.33709765385E+00  0.54856247932E+01  0.47000000000E+01 0. -1.
         -5    1    1    2    0  502 -0.23291942688E+01 -0.15694899178E+01  0.43424682474E+01  0.69882383348E+01  0.47000000000E+01 0. -1.
<mgrwt>
<rscale>  2 0.54752575E+01</rscale>
<asrwt>0</asrwt>
<pdfrwt beam="1">  1       21 0.12676334E-02 0.54752575E+01</pdfrwt>
<pdfrwt beam="2">  1       21 0.65142250E-03 0.54752575E+01</pdfrwt>
<totfact> 0.37834705E+09</totfact>
</mgrwt>
</event>
<event>
 4    1  0.3858687E+006  0.6302805E+01  0.7546771E-02  0.2377604E+00
         21   -1    0    0  501  502  0.00000000000E+00  0.00000000000E+00  0.47275100461E+01  0.47275100461E+01  0.00000000000E+00 0. -1.
         21   -1    0    0  502  503 -0.00000000000E+00 -0.00000000000E+00 -0.12395757689E+02  0.12395757689E+02  0.00000000000E+00 0.  1.
          5    1    1    2  501    0  0.92935707509E+00 -0.40953194392E+01  0.10249744394E+01  0.63856024370E+01  0.47000000000E+01 0. -1.
         -5    1    1    2    0  503 -0.92935707509E+00  0.40953194392E+01 -0.86932220823E+01  0.10737665298E+02  0.47000000000E+01 0.  1.
<mgrwt>
<rscale>  2 0.63028046E+01</rscale>
<asrwt>0</asrwt>
<pdfrwt beam="1">  1       21 0.72730925E-03 0.63028046E+01</pdfrwt>
<pdfrwt beam="2">  1       21 0.19070396E-02 0.63028046E+01</pdfrwt>
<totfact> 0.20561017E+09</totfact>
</mgrwt>
</event>
<event>
 4    1  0.3858687E+006  0.4711410E+01  0.7546771E-02  0.2621045E+00
         21   -1    0    0  501  502  0.00000000000E+00  0.00000000000E+00  0.41514024806E+02  0.41514024806E+02  0.00000000000E+00 0.  1.
         21   -1    0    0  502  503 -0.00000000000E+00 -0.00000000000E+00 -0.67666648646E+00  0.67666648646E+00  0.00000000000E+00 0.  1.
          5    1    1    2  501    0 -0.31871001010E+00  0.76222692639E-01  0.10755984903E+02  0.11742597549E+02  0.47000000000E+01 0.  1.
         -5    1    1    2    0  503  0.31871001010E+00 -0.76222692639E-01  0.30081373417E+02  0.30448093743E+02  0.47000000000E+01 0.  1.
<mgrwt>
<rscale>  2 0.47114102E+01</rscale>
<asrwt>0</asrwt>
<pdfrwt beam="1">  1       21 0.63867711E-02 0.47114102E+01</pdfrwt>
<pdfrwt beam="2">  1       21 0.10410257E-03 0.47114102E+01</pdfrwt>
<totfact> 0.38152251E+09</totfact>
</mgrwt>
</event>
<event>
 4    1  0.3858687E+006  0.6704431E+01  0.7546771E-02  0.2331865E+00
         21   -1    0    0  501  502  0.00000000000E+00  0.00000000000E+00  0.10012409619E+02  0.10012409619E+02  0.00000000000E+00 0. -1.
         21   -1    0    0  502  503 -0.00000000000E+00 -0.00000000000E+00 -0.45590970734E+01  0.45590970734E+01  0.00000000000E+00 0. -1.
          5    1    1    2  501    0 -0.20871154990E+01  0.43015514100E+01  0.36276891903E+01  0.76229603502E+01  0.47000000000E+01 0. -1.
         -5    1    1    2    0  503  0.20871154990E+01 -0.43015514100E+01  0.18256233556E+01  0.69485463426E+01  0.47000000000E+01 0. -1.
<mgrwt>
<rscale>  2 0.67044310E+01</rscale>
<asrwt>0</asrwt>
<pdfrwt beam="1">  1       21 0.15403707E-02 0.67044310E+01</pdfrwt>
<pdfrwt beam="2">  1       21 0.70139955E-03 0.67044310E+01</pdfrwt>
<totfact> 0.30962648E+09</totfact>
</mgrwt>
</event>
<event>
 4    1  0.3858687E+006  0.1223965E+02  0.7546771E-02  0.1966224E+00
         21   -1    0    0  503  502  0.00000000000E+00  0.00000000000E+00  0.26444235386E+01  0.26444235386E+01  0.00000000000E+00 0. -1.
         21   -1    0    0  501  503 -0.00000000000E+00 -0.00000000000E+00 -0.12562467635E+03  0.12562467635E+03  0.00000000000E+00 0.  1.
          5    1    1    2  501    0  0.10926527704E+02 -0.28861991393E+01 -0.10901230716E+03  0.10969727556E+03  0.47000000000E+01 0.  1.
         -5    1    1    2    0  502 -0.10926527704E+02  0.28861991393E+01 -0.13967945653E+02  0.18571824329E+02  0.47000000000E+01 0. -1.
<mgrwt>
<rscale>  2 0.12239655E+02</rscale>
<asrwt>0</asrwt>
<pdfrwt beam="1">  1       21 0.40683443E-03 0.12239655E+02</pdfrwt>
<pdfrwt beam="2">  1       21 0.19326872E-01 0.12239655E+02</pdfrwt>
<totfact> 0.19796189E+08</totfact>
</mgrwt>
</event>
<event>
 4    1  0.3858687E+006  0.6323135E+01  0.7546771E-02  0.2375173E+00
         21   -1    0    0  501  502  0.00000000000E+00  0.00000000000E+00  0.58463766172E+00  0.58463766172E+00  0.00000000000E+00 0. -1.
         21   -1    0    0  502  503 -0.00000000000E+00 -0.00000000000E+00 -0.87126528932E+02  0.87126528932E+02  0.00000000000E+00 0.  1.
          5    1    1    2  501    0  0.73281445114E+00  0.41659359255E+01 -0.22932365612E+02  0.23788136365E+02  0.47000000000E+01 0. -1.
         -5    1    1    2    0  503 -0.73281445114E+00 -0.41659359255E+01 -0.63609525658E+02  0.63923030229E+02  0.47000000000E+01 0.  1.
<mgrwt>
<rscale>  2 0.63231352E+01</rscale>
<asrwt>0</asrwt>
<pdfrwt beam="1">  1       21 0.89944317E-04 0.63231352E+01</pdfrwt>
<pdfrwt beam="2">  1       21 0.13404072E-01 0.63231352E+01</pdfrwt>
<totfact> 0.19761238E+09</totfact>
</mgrwt>
</event>
<event>
 4    1  0.3858687E+006  0.9226235E+01  0.7546771E-02  0.2121897E+00
         21   -1    0    0  503  502  0.00000000000E+00  0.00000000000E+00  0.10031773185E+02  0.10031773185E+02  0.00000000000E+00 0. -1.
         21   -1    0    0  501  503 -0.00000000000E+00 -0.00000000000E+00 -0.85806477016E+01  0.85806477016E+01  0.00000000000E+00 0.  1.
          5    1    1    2  501    0  0.26807260944E+00  0.79348319282E+01 -0.25501650851E+00  0.92297591557E+01  0.47000000000E+01 0.  1.
         -5    1    1    2    0  502 -0.26807260944E+00 -0.79348319282E+01  0.17061419915E+01  0.93826617304E+01  0.47000000000E+01 0. -1.
<mgrwt>
<rscale>  2 0.92262355E+01</rscale>
<asrwt>0</asrwt>
<pdfrwt beam="1">  1       21 0.15433497E-02 0.92262355E+01</pdfrwt>
<pdfrwt beam="2">  1       21 0.13200997E-02 0.92262355E+01</pdfrwt>
<totfact> 0.15748888E+09</totfact>
</mgrwt>
</event>
<event>
 4    1  0.3858687E+006  0.9457008E+01  0.7546771E-02  0.2107274E+00
         21   -1    0    0  501  502  0.00000000000E+00  0.00000000000E+00  0.29148073508E+00  0.29148073508E+00  0.00000000000E+00 0. -1.
         21   -1    0    0  502  503 -0.00000000000E+00 -0.00000000000E+00 -0.41084979567E+03  0.41084979567E+03  0.00000000000E+00 0.  1.
          5    1    1    2  501    0 -0.19195269295E+00  0.82041552558E+01 -0.10184172755E+03  0.10227987329E+03  0.47000000000E+01 0. -1.
         -5    1    1    2    0  503  0.19195269295E+00 -0.82041552558E+01 -0.30871658738E+03  0.30886140311E+03  0.47000000000E+01 0. -1.
<mgrwt>
<rscale>  2 0.94570085E+01</rscale>
<asrwt>0</asrwt>
<pdfrwt beam="1">  1       21 0.44842937E-04 0.94570085E+01</pdfrwt>
<pdfrwt beam="2">  1       21 0.63208017E-01 0.94570085E+01</pdfrwt>
<totfact> 0.45479826E+08</totfact>
</mgrwt>
</event>
<event>
 4    1  0.3858687E+006  0.5252529E+01  0.7546771E-02  0.2524215E+00
         21   -1    0    0  503  502  0.00000000000E+00  0.00000000000E+00  0.19071266206E+01  0.19071266206E+01  0.00000000000E+00 0. -1.
         21   -1    0    0  501  503 -0.00000000000E+00 -0.00000000000E+00 -0.15420790800E+02  0.15420790800E+02  0.00000000000E+00 0. -1.
          5    1    1    2  501    0  0.17334553532E+01  0.15793007542E+01 -0.89123409828E+01  0.10344992998E+02  0.47000000000E+01 0. -1.
         -5    1    1    2    0  502 -0.17334553532E+01 -0.15793007542E+01 -0.46013231968E+01  0.69829244229E+01  0.47000000000E+01 0. -1.
<mgrwt>
<rscale>  2 0.52525288E+01</rscale>
<asrwt>0</asrwt>
<pdfrwt beam="1">  1       21 0.29340408E-03 0.52525288E+01</pdfrwt>
<pdfrwt beam="2">  1       21 0.23724294E-02 0.52525288E+01</pdfrwt>
<totfact> 0.44648764E+09</totfact>
</mgrwt>
</event>
<event>
 4    1  0.3858687E+006  0.4938954E+01  0.7546771E-02  0.2578098E+00
         21   -1    0    0  501  502  0.00000000000E+00  0.00000000000E+00  0.24836868850E+02  0.24836868850E+02  0.00000000000E+00 0. -1.
         21   -1    0    0  502  503 -0.00000000000E+00 -0.00000000000E+00 -0.10184547905E+01  0.10184547905E+01  0.00000000000E+00 0. -1.
          5    1    1    2  501    0  0.13929166944E+01  0.60253929102E+00  0.14350352899E+02  0.15176491651E+02  0.47000000000E+01 0. -1.
         -5    1    1    2    0  503 -0.13929166944E+01 -0.60253929102E+00  0.94680611605E+01  0.10678831989E+02  0.47000000000E+01 0. -1.
<mgrwt>
<rscale>  2 0.49389544E+01</rscale>
<asrwt>0</asrwt>
<pdfrwt beam="1">  1       21 0.38210563E-02 0.49389544E+01</pdfrwt>
<pdfrwt beam="2">  1       21 0.15668537E-03 0.49389544E+01</pdfrwt>
<totfact> 0.49213286E+09</totfact>
</mgrwt>
</event>
<event>
 4    1  0.3858687E+006  0.6454633E+01  0.7546771E-02  0.2359759E+00
         21   -1    0    0  503  502  0.00000000000E+00  0.00000000000E+00  0.94720436139E+01  0.94720436139E+01  0.00000000000E+00 0. -1.
         21   -1    0    0  501  503 -0.00000000000E+00 -0.00000000000E+00 -0.23432618757E+02  0.23432618757E+02  0.00000000000E+00 0. -1.
          5    1    1    2  501    0 -0.50571146405E+00  0.43950593829E+01 -0.21808336511E+02  0.22743478899E+02  0.47000000000E+01 0. -1.
         -5    1    1    2    0  502  0.50571146405E+00 -0.43950593829E+01  0.78477613677E+01  0.10161183472E+02  0.47000000000E+01 0. -1.
<mgrwt>
<rscale>  2 0.64546333E+01</rscale>
<asrwt>0</asrwt>
<pdfrwt beam="1">  1       21 0.14572375E-02 0.64546333E+01</pdfrwt>
<pdfrwt beam="2">  1       21 0.36050183E-02 0.64546333E+01</pdfrwt>
<totfact> 0.30987748E+08</totfact>
</mgrwt>
</event>
<event>
 4    1  0.3858687E+006  0.9671345E+01  0.7546771E-02  0.2094189E+00
         21   -1    0    0  503  502  0.00000000000E+00  0.00000000000E+00  0.10448451280E+00  0.10448451280E+00  0.00000000000E+00 0.  1.
         21   -1    0    0  501  503 -0.00000000000E+00 -0.00000000000E+00 -0.16121898995E+04  0.16121898995E+04  0.00000000000E+00 0.  1.
          5    1    1    2  501    0 -0.41808558639E+01  0.73461113280E+01 -0.13436457148E+04  0.13436805208E+04  0.47000000000E+01 0.  1.
         -5    1    1    2    0  502  0.41808558639E+01 -0.73461113280E+01 -0.26843970017E+03  0.26861386326E+03  0.47000000000E+01 0.  1.
<mgrwt>
<rscale>  2 0.96713447E+01</rscale>
<asrwt>0</asrwt>
<pdfrwt beam="1">  1       21 0.16072748E-04 0.96713447E+01</pdfrwt>
<pdfrwt beam="2">  1       21 0.24805688E+00 0.96713447E+01</pdfrwt>
<totfact> 0.93945649E+07</totfact>
</mgrwt>
</event>
<event>
 4    1  0.3858687E+006  0.6301442E+01  0.7546771E-02  0.2377767E+00
         21   -1    0    0  501  502  0.00000000000E+00  0.00000000000E+00  0.29166927745E+01  0.29166927745E+01  0.00000000000E+00 0. -1.
         21   -1    0    0  502  503 -0.00000000000E+00 -0.00000000000E+00 -0.80414731538E+02  0.80414731538E+02  0.00000000000E+00 0. -1.
          5    1    1    2  501    0  0.30604781670E+01 -0.28725669574E+01 -0.77371509482E+00  0.63487638626E+01  0.47000000000E+01 0. -1.
         -5    1    1    2    0  503 -0.30604781670E+01  0.28725669574E+01 -0.76724323669E+02  0.76982660450E+02  0.47000000000E+01 0. -1.
<mgrwt>
<rscale>  2 0.63014417E+01</rscale>
<asrwt>0</asrwt>
<pdfrwt beam="1">  1       21 0.44872198E-03 0.63014417E+01</pdfrwt>
<pdfrwt beam="2">  1       21 0.12371497E-01 0.63014417E+01</pdfrwt>
<totfact> 0.24871713E+08</totfact>
</mgrwt>
</event>
<event>
 4    1  0.3858687E+006  0.4768875E+01  0.7546771E-02  0.2609864E+00
         21   -1    0    0  501  502  0.00000000000E+00  0.00000000000E+00  0.39189366402E+01  0.39189366402E+01  0.00000000000E+00 0.  1.
         21   -1    0    0  502  503 -0.00000000000E+00 -0.00000000000E+00 -0.10049640630E+02  0.10049640630E+02  0.00000000000E+00 0. -1.
          5    1    1    2  501    0  0.50824477375E+00 -0.62758257511E+00  0.14747128624E+01  0.49916881578E+01  0.47000000000E+01 0.  1.
         -5    1    1    2    0  503 -0.50824477375E+00  0.62758257511E+00 -0.76054168517E+01  0.89768891119E+01  0.47000000000E+01 0. -1.
<mgrwt>
<rscale>  2 0.47688754E+01</rscale>
<asrwt>0</asrwt>
<pdfrwt beam="1">  1       21 0.60291334E-03 0.47688754E+01</pdfrwt>
<pdfrwt beam="2">  1       21 0.15460985E-02 0.47688754E+01</pdfrwt>
<totfact> 0.27654391E+09</totfact>
</mgrwt>
</event>
<event>
 4    1  0.3858687E+006  0.6007299E+01  0.7546771E-02  0.2414475E+00
         21   -1    0    0  501  502  0.00000000000E+00  0.00000000000E+00  0.11869271214E+00  0.11869271214E+00  0.00000000000E+00 0.  1.
         21   -1    0    0  502  503 -0.00000000000E+00 -0.00000000000E+00 -0.30532991240E+03  0.30532991240E+03  0.00000000000E+00 0. -1.
          5    1    1    2  501    0 -0.22666737333E+01  0.29765467560E+01 -0.14268893637E+03  0.14281533602E+03  0.47000000000E+01 0. -1.
         -5    1    1    2    0  503  0.22666737333E+01 -0.29765467560E+01 -0.16252228331E+03  0.16263326909E+03  0.47000000000E+01 0.  1.
<mgrwt>
<rscale>  2 0.60072989E+01</rscale>
<asrwt>0</asrwt>
<pdfrwt beam="1">  1       21 0.18260428E-04 0.60072989E+01</pdfrwt>
<pdfrwt beam="2">  1       21 0.46973806E-01 0.60072989E+01</pdfrwt>
<totfact> 0.19942425E+09</totfact>
</mgrwt>
</event>
<event>
 4    1  0.3858687E+006  0.5193504E+01  0.7546771E-02  0.2533930E+00
         21   -1    0    0  501  502  0.00000000000E+00  0.00000000000E+00  0.11502971816E+01  0.11502971816E+01  0.00000000000E+00 0.  1.
         21   -1    0    0  502  503 -0.00000000000E+00 -0.00000000000E+00 -0.23716831528E+02  0.23716831528E+02  0.00000000000E+00 0.  1.
          5    1    1    2  501    0  0.53307340656E+00  0.21443676889E+01 -0.99601801659E+01  0.11232883378E+02  0.47000000000E+01 0.  1.
         -5    1    1    2    0  503 -0.53307340656E+00 -0.21443676889E+01 -0.12606354181E+02  0.13634245332E+02  0.47000000000E+01 0.  1.
<mgrwt>
<rscale>  2 0.51935036E+01</rscale>
<asrwt>0</asrwt>
<pdfrwt beam="1">  1       21 0.17696879E-03 0.51935036E+01</pdfrwt>
<pdfrwt beam="2">  1       21 0.36487434E-02 0.51935036E+01</pdfrwt>
<totfact> 0.47086367E+09</totfact>
</mgrwt>
</event>
<event>
 4    1  0.3858687E+006  0.1843942E+02  0.7546771E-02  0.1778270E+00
         21   -1    0    0  501  502  0.00000000000E+00  0.00000000000E+00  0.25377752251E+03  0.25377752251E+03  0.00000000000E+00 0.  1.
         21   -1    0    0  502  503 -0.00000000000E+00 -0.00000000000E+00 -0.46499267575E+01  0.46499267575E+01  0.00000000000E+00 0. -1.
          5    1    1    2  501    0 -0.15036066308E+02  0.95832641275E+01  0.23358415819E+03  0.23431084311E+03  0.47000000000E+01 0.  1.
         -5    1    1    2    0  503  0.15036066308E+02 -0.95832641275E+01  0.15543437565E+02  0.24116606161E+02  0.47000000000E+01 0. -1.
<mgrwt>
<rscale>  2 0.18439421E+02</rscale>
<asrwt>0</asrwt>
<pdfrwt beam="1">  1       21 0.39042685E-01 0.18439421E+02</pdfrwt>
<pdfrwt beam="2">  1       21 0.71537355E-03 0.18439421E+02</pdfrwt>
<totfact> 0.28805588E+07</totfact>
</mgrwt>
</event>
<event>
 4    1  0.3858687E+006  0.5333133E+01  0.7546771E-02  0.2511245E+00
         21   -1    0    0  503  502  0.00000000000E+00  0.00000000000E+00  0.10170529781E+03  0.10170529781E+03  0.00000000000E+00 0.  1.
         21   -1    0    0  501  503 -0.00000000000E+00 -0.00000000000E+00 -0.32200726284E+00  0.32200726284E+00  0.00000000000E+00 0.  1.
          5    1    1    2  501    0  0.23905143733E+01  0.79859237728E+00  0.32190600826E+02  0.32629389977E+02  0.47000000000E+01 0.  1.
         -5    1    1    2    0  502 -0.23905143733E+01 -0.79859237728E+00  0.69192689724E+02  0.69397915098E+02  0.47000000000E+01 0.  1.
<mgrwt>
<rscale>  2 0.53331331E+01</rscale>
<asrwt>0</asrwt>
<pdfrwt beam="1">  1       21 0.15646943E-01 0.53331331E+01</pdfrwt>
<pdfrwt beam="2">  1       21 0.49539660E-04 0.53331331E+01</pdfrwt>
<totfact> 0.29744522E+09</totfact>
</mgrwt>
</event>
<event>
 4    1  0.3858687E+006  0.1038402E+02  0.7546771E-02  0.2053769E+00
         21   -1    0    0  503  502  0.00000000000E+00  0.00000000000E+00  0.40325827728E+01  0.40325827728E+01  0.00000000000E+00 0.  1.
         21   -1    0    0  501  503 -0.00000000000E+00 -0.00000000000E+00 -0.29831680989E+03  0.29831680989E+03  0.00000000000E+00 0. -1.
          5    1    1    2  501    0 -0.84630273665E+01 -0.37570031574E+01 -0.29138262346E+03  0.29156759278E+03  0.47000000000E+01 0. -1.
         -5    1    1    2    0  502  0.84630273665E+01  0.37570031574E+01 -0.29016036568E+01  0.10781799883E+02  0.47000000000E+01 0.  1.
<mgrwt>
<rscale>  2 0.10384022E+02</rscale>
<asrwt>0</asrwt>
<pdfrwt beam="1">  1       21 0.62039711E-03 0.10384022E+02</pdfrwt>
<pdfrwt beam="2">  1       21 0.45894912E-01 0.10384022E+02</pdfrwt>
<totfact> 0.22167260E+07</totfact>
</mgrwt>
</event>
<event>
 4    1  0.3858687E+006  0.8614129E+01  0.7546771E-02  0.2163660E+00
         21   -1    0    0  501  502  0.00000000000E+00  0.00000000000E+00  0.98548334650E+02  0.98548334650E+02  0.00000000000E+00 0. -1.
         21   -1    0    0  502  503 -0.00000000000E+00 -0.00000000000E+00 -0.77503835617E+00  0.77503835617E+00  0.00000000000E+00 0. -1.
          5    1    1    2  501    0  0.48216025352E+01  0.53726500700E+01  0.40505245358E+02  0.41411086937E+02  0.47000000000E+01 0. -1.
         -5    1    1    2    0  503 -0.48216025352E+01 -0.53726500700E+01  0.57268050936E+02  0.57912286069E+02  0.47000000000E+01 0. -1.
<mgrwt>
<rscale>  2 0.86141291E+01</rscale>
<asrwt>0</asrwt>
<pdfrwt beam="1">  1       21 0.15161272E-01 0.86141291E+01</pdfrwt>
<pdfrwt beam="2">  1       21 0.11923675E-03 0.86141291E+01</pdfrwt>
<totfact> 0.13770257E+09</totfact>
</mgrwt>
</event>
<event>
 4    1  0.3858687E+006  0.5739848E+01  0.7546771E-02  0.2450565E+00
         21   -1    0    0  503  502  0.00000000000E+00  0.00000000000E+00  0.28910534398E+02  0.28910534398E+02  0.00000000000E+00 0. -1.
         21   -1    0    0  501  503 -0.00000000000E+00 -0.00000000000E+00 -0.14567736239E+01  0.14567736239E+01  0.00000000000E+00 0. -1.
          5    1    1    2  501    0 -0.28898910988E+01  0.15825244535E+01  0.66418325574E+01  0.87783708015E+01  0.47000000000E+01 0. -1.
         -5    1    1    2    0  502  0.28898910988E+01 -0.15825244535E+01  0.20811928217E+02  0.21588937220E+02  0.47000000000E+01 0. -1.
<mgrwt>
<rscale>  2 0.57398479E+01</rscale>
<asrwt>0</asrwt>
<pdfrwt beam="1">  1       21 0.44477741E-02 0.57398479E+01</pdfrwt>
<pdfrwt beam="2">  1       21 0.22411904E-03 0.57398479E+01</pdfrwt>
<totfact> 0.28191287E+09</totfact>
</mgrwt>
</event>
<event>
 4    1  0.3858687E+006  0.5291817E+01  0.7546771E-02  0.2517851E+00
         21   -1    0    0  501  502  0.00000000000E+00  0.00000000000E+00  0.33228704663E+01  0.33228704663E+01  0.00000000000E+00 0.  1.
         21   -1    0    0  502  503 -0.00000000000E+00 -0.00000000000E+00 -0.14439196984E+02  0.14439196984E+02  0.00000000000E+00 0.  1.
          5    1    1    2  501    0 -0.23741191345E+01 -0.52619724252E+00  0.17233441272E+00  0.52946222106E+01  0.47000000000E+01 0.  1.
         -5    1    1    2    0  503  0.23741191345E+01  0.52619724252E+00 -0.11288660930E+02  0.12467445240E+02  0.47000000000E+01 0.  1.
<mgrwt>
<rscale>  2 0.52918168E+01</rscale>
<asrwt>0</asrwt>
<pdfrwt beam="1">  1       21 0.51121083E-03 0.52918168E+01</pdfrwt>
<pdfrwt beam="2">  1       21 0.22214150E-02 0.52918168E+01</pdfrwt>
<totfact> 0.23090779E+09</totfact>
</mgrwt>
</event>
<event>
 4    1  0.3858687E+006  0.1276660E+02  0.7546771E-02  0.1945011E+00
         21   -1    0    0  503  502  0.00000000000E+00  0.00000000000E+00  0.14775097126E+01  0.14775097126E+01  0.00000000000E+00 0.  1.
         21   -1    0    0  501  503 -0.00000000000E+00 -0.00000000000E+00 -0.41991618170E+03  0.41991618170E+03  0.00000000000E+00 0.  1.
          5    1    1    2  501    0  0.17599192540E+01 -0.11738775418E+02 -0.39013682803E+03  0.39034565548E+03  0.47000000000E+01 0.  1.
         -5    1    1    2    0  502 -0.17599192540E+01  0.11738775418E+02 -0.28301843955E+02  0.31048035934E+02  0.47000000000E+01 0.  1.
<mgrwt>
<rscale>  2 0.12766603E+02</rscale>
<asrwt>0</asrwt>
<pdfrwt beam="1">  1       21 0.22730904E-03 0.12766603E+02</pdfrwt>
<pdfrwt beam="2">  1       21 0.64602531E-01 0.12766603E+02</pdfrwt>
<totfact> 0.51948573E+07</totfact>
</mgrwt>
</event>
