<event>
12    1  0.1029207E-001  0.1837907E+03  0.7546771E-02  0.1164510E+00
         21   -1    0    0  501  502  0.00000000000E+00  0.00000000000E+00  0.35358044936E+03  0.35358044936E+03  0.00000000000E+00 0. -1.
         21   -1    0    0  502  503 -0.00000000000E+00 -0.00000000000E+00 -0.28538104431E+03  0.28538104431E+03  0.00000000000E+00 0. -1.
         -6    2    1    2    0  503  0.20492994305E+02  0.54193845770E+02 -0.22692304950E+03  0.29201554018E+03  0.17441923510E+03 0.  0.
        -24    2    3    3    0    0  0.75557893834E+02  0.62193425486E+02 -0.15106004953E+03  0.19781670154E+03  0.82068820813E+02 0.  0.
          6    2    1    2  501    0 -0.20492994305E+02 -0.54193845770E+02  0.29512245456E+03  0.34694595348E+03  0.17296616930E+03 0.  0.
         24    2    5    5    0    0 -0.21365533472E+02 -0.95275166073E+02  0.15256735011E+03  0.19851252057E+03  0.81219340143E+02 0.  0.
          5    1    5    5  501    0  0.87253916698E+00  0.41081320303E+02  0.14255510445E+03  0.14843343292E+03  0.47000000000E+01 0. -1.
        -13    1    6    6    0    0 -0.38976265353E+02 -0.44175697239E+02  0.33545500723E+02  0.67793378041E+02  0.00000000000E+00 0.  1.
         14    1    6    6    0    0  0.17610731882E+02 -0.51099468833E+02  0.11902184938E+03  0.13071914253E+03  0.00000000000E+00 0. -1.
         -5    1    3    3    0  503 -0.55064899529E+02 -0.79995797154E+01 -0.75862999976E+02  0.94198838640E+02  0.47000000000E+01 0.  1.
         11    1    4    4    0    0  0.72510653865E+01  0.53411763822E+02 -0.39943295499E+02  0.67088458912E+02  0.00000000000E+00 0. -1.
        -12    1    4    4    0    0  0.68306828448E+02  0.87816616634E+01 -0.11111675403E+03  0.13072824263E+03  0.00000000000E+00 0.  1.
<mgrwt>
<rscale>  2 0.18344508E+03</rscale>
<asrwt>0</asrwt>
<pdfrwt beam="1">  1       21 0.54396992E-01 0.18379066E+03</pdfrwt>
<pdfrwt beam="2">  1       21 0.43904776E-01 0.18379066E+03</pdfrwt>
<totfact> 0.16001182E+04</totfact>
</mgrwt>
</event>
<event>
12    1  0.1029207E-001  0.1817893E+03  0.7546771E-02  0.1166563E+00
         21   -1    0    0  503  502  0.00000000000E+00  0.00000000000E+00  0.18501443128E+03  0.18501443128E+03  0.00000000000E+00 0. -1.
         21   -1    0    0  501  503 -0.00000000000E+00 -0.00000000000E+00 -0.19939277823E+03  0.19939277823E+03  0.00000000000E+00 0. -1.
          6    2    1    2  501    0 -0.49442664569E+02  0.13452233510E+02 -0.72050825578E+02  0.19368890756E+03  0.17233261961E+03 0.  0.
         24    2    3    3    0    0 -0.64311953988E+02  0.20634410234E+02 -0.10971762412E+03  0.15229377328E+03  0.81201170098E+02 0.  0.
         -6    2    1    2    0  502  0.49442664569E+02 -0.13452233510E+02  0.57672478628E+02  0.19071830196E+03  0.17441850889E+03 0.  0.
        -24    2    5    5    0    0  0.26575413119E+02 -0.34194129172E+02  0.10269266928E+03  0.13592738126E+03  0.77813736576E+02 0.  0.
          5    1    3    3  501    0  0.14869289419E+02 -0.71821767243E+01  0.37666798541E+02  0.41395134287E+02  0.47000000000E+01 0. -1.
        -13    1    4    4    0    0  0.54546585903E+01 -0.14028161131E+01  0.10296527281E+02  0.11736254404E+02  0.00000000000E+00 0.  1.
         14    1    4    4    0    0 -0.69766612578E+02  0.22037226347E+02 -0.12001415140E+03  0.14055751887E+03  0.00000000000E+00 0. -1.
         -5    1    5    5    0  502  0.22867251450E+02  0.20741895663E+02 -0.45020190651E+02  0.54790920697E+02  0.47000000000E+01 0.  1.
         11    1    6    6    0    0  0.30706307186E+02  0.18650153037E+02  0.44992446079E+02  0.57576259982E+02  0.00000000000E+00 0. -1.
        -12    1    6    6    0    0 -0.41308940668E+01 -0.52844282210E+02  0.57700223200E+02  0.78351121277E+02  0.00000000000E+00 0.  1.
<mgrwt>
<rscale>  2 0.18128715E+03</rscale>
<asrwt>0</asrwt>
<pdfrwt beam="1">  1       21 0.28463759E-01 0.18178932E+03</pdfrwt>
<pdfrwt beam="2">  1       21 0.30675812E-01 0.18178932E+03</pdfrwt>
<totfact> 0.12087340E+05</totfact>
</mgrwt>
</event>
<event>
12    1  0.1029207E-001  0.1749518E+03  0.7546771E-02  0.1173403E+00
         21   -1    0    0  501  502  0.00000000000E+00  0.00000000000E+00  0.71751938686E+03  0.71751938686E+03  0.00000000000E+00 0. -1.
         21   -1    0    0  502  503 -0.00000000000E+00 -0.00000000000E+00 -0.51179980087E+02  0.51179980087E+02  0.00000000000E+00 0.  1.
         -6    2    1    2    0  503 -0.16795603891E+02  0.33620994816E+01  0.49347283207E+03  0.52275022664E+03  0.17163614842E+03 0.  0.
        -24    2    3    3    0    0 -0.70068972179E+02  0.16264777658E+02  0.40081893660E+03  0.41499418172E+03  0.79938395444E+02 0.  0.
          6    2    1    2  501    0  0.16795603891E+02 -0.33620994816E+01  0.17286657471E+03  0.24594914031E+03  0.17411126024E+03 0.  0.
         24    2    5    5    0    0  0.54348042064E+02 -0.20560226869E+02  0.17890036308E+03  0.20394369065E+03  0.78811524803E+02 0.  0.
          5    1    5    5  501    0 -0.37552438173E+02  0.17198127388E+02 -0.60337883749E+01  0.42005449653E+02  0.47000000000E+01 0. -1.
        -11    1    6    6    0    0  0.10136817545E+02 -0.14355816898E+02 -0.19338561701E+01  0.17680055102E+02  0.00000000000E+00 0.  1.
         12    1    6    6    0    0  0.44211224519E+02 -0.62044099719E+01  0.18083421925E+03  0.18626363555E+03  0.00000000000E+00 0. -1.
         -5    1    3    3    0  503  0.53273368288E+02 -0.12902678176E+02  0.92653895464E+02  0.10775604492E+03  0.47000000000E+01 0.  1.
         11    1    4    4    0    0 -0.56145089383E+02  0.10650785339E+02  0.39464526232E+03  0.39876132381E+03  0.00000000000E+00 0. -1.
        -12    1    4    4    0    0 -0.13923882796E+02  0.56139923190E+01  0.61736742801E+01  0.16232857912E+02  0.00000000000E+00 0.  1.
<mgrwt>
<rscale>  2 0.17433274E+03</rscale>
<asrwt>0</asrwt>
<pdfrwt beam="1">  1       21 0.11038759E+00 0.17495178E+03</pdfrwt>
<pdfrwt beam="2">  1       21 0.78738436E-02 0.17495178E+03</pdfrwt>
<totfact> 0.80532849E+04</totfact>
</mgrwt>
</event>
<event>
12    1  0.1029207E-001  0.2026420E+03  0.7546771E-02  0.1147944E+00
         21   -1    0    0  501  502  0.00000000000E+00  0.00000000000E+00  0.60903757898E+02  0.60903757898E+02  0.00000000000E+00 0.  1.
         21   -1    0    0  502  503 -0.00000000000E+00 -0.00000000000E+00 -0.66773328532E+03  0.66773328532E+03  0.00000000000E+00 0. -1.
         -6    2    1    2    0  503  0.70754499699E+02 -0.71917194325E+02 -0.30634772230E+03  0.36621037584E+03  0.17344402656E+03 0.  0.
        -24    2    3    3    0    0 -0.73724920314E+01  0.10043700422E+02 -0.16773126784E+03  0.18716282196E+03  0.82103070317E+02 0.  0.
          6    2    1    2  501    0 -0.70754499699E+02  0.71917194325E+02 -0.30048180511E+03  0.36242666737E+03  0.17574268676E+03 0.  0.
         24    2    5    5    0    0 -0.19934376797E+02  0.30060488354E+02 -0.44322092309E+02  0.97899623022E+02  0.79491357913E+02 0.  0.
          5    1    5    5  501    0 -0.50820122902E+02  0.41856705971E+02 -0.25615971280E+03  0.26452704435E+03  0.47000000000E+01 0. -1.
        -13    1    6    6    0    0 -0.39496553287E+02  0.40368679934E+02 -0.10429125964E+02  0.57431478386E+02  0.00000000000E+00 0.  1.
         14    1    6    6    0    0  0.19562176491E+02 -0.10308191580E+02 -0.33892966345E+02  0.40468144637E+02  0.00000000000E+00 0. -1.
         -5    1    3    3    0  503  0.78126991730E+02 -0.81960894747E+02 -0.13861645446E+03  0.17904755389E+03  0.47000000000E+01 0.  1.
         13    1    4    4    0    0  0.36901714104E+02  0.10702062797E+02 -0.69516162289E+02  0.79427750007E+02  0.00000000000E+00 0. -1.
        -14    1    4    4    0    0 -0.44274206135E+02 -0.65836237486E+00 -0.98215105552E+02  0.10773507195E+03  0.00000000000E+00 0.  1.
<mgrwt>
<rscale>  2 0.20214258E+03</rscale>
<asrwt>0</asrwt>
<pdfrwt beam="1">  1       21 0.93698091E-02 0.20264198E+03</pdfrwt>
<pdfrwt beam="2">  1       21 0.10272820E+00 0.20264198E+03</pdfrwt>
<totfact> 0.69738822E+04</totfact>
</mgrwt>
</event>
<event>
12    1  0.1029207E-001  0.2082171E+03  0.7546771E-02  0.1143421E+00
         21   -1    0    0  501  502  0.00000000000E+00  0.00000000000E+00  0.68465314040E+02  0.68465314040E+02  0.00000000000E+00 0. -1.
         21   -1    0    0  502  503 -0.00000000000E+00 -0.00000000000E+00 -0.79628479436E+03  0.79628479436E+03  0.00000000000E+00 0. -1.
         -6    2    1    2    0  503 -0.43655702853E+02  0.10569875327E+03 -0.56495606968E+03  0.60210440455E+03  0.17400088067E+03 0.  0.
        -24    2    3    3    0    0  0.35220859694E+01  0.75139436947E+02 -0.15945800650E+03  0.19270193165E+03  0.77774279492E+02 0.  0.
          6    2    1    2  501    0  0.43655702853E+02 -0.10569875327E+03 -0.16286341064E+03  0.26264570385E+03  0.17140661712E+03 0.  0.
         24    2    5    5    0    0 -0.16479885811E+02 -0.91932020441E+02 -0.15863381455E+03  0.20063125844E+03  0.79781775636E+02 0.  0.
          5    1    5    5  501    0  0.60135588664E+02 -0.13766732827E+02 -0.42295960835E+01  0.62014445412E+02  0.47000000000E+01 0. -1.
        -11    1    6    6    0    0 -0.12255037187E+02  0.10024903110E+02 -0.45988637259E+02  0.48637838930E+02  0.00000000000E+00 0.  1.
         12    1    6    6    0    0 -0.42248486236E+01 -0.10195692355E+03 -0.11264517729E+03  0.15199341951E+03  0.00000000000E+00 0. -1.
         -5    1    3    3    0  503 -0.47177788823E+02  0.30559316321E+02 -0.40549806318E+03  0.40940247290E+03  0.47000000000E+01 0.  1.
         11    1    4    4    0    0 -0.32497612603E+02  0.21670497269E+02 -0.34596192065E+02  0.52178556728E+02  0.00000000000E+00 0. -1.
        -12    1    4    4    0    0  0.36019698573E+02  0.53468939678E+02 -0.12486181443E+03  0.14052337492E+03  0.00000000000E+00 0.  1.
<mgrwt>
<rscale>  2 0.20767421E+03</rscale>
<asrwt>0</asrwt>
<pdfrwt beam="1">  1       21 0.10533125E-01 0.20821708E+03</pdfrwt>
<pdfrwt beam="2">  1       21 0.12250536E+00 0.20821708E+03</pdfrwt>
<totfact> 0.36806731E+04</totfact>
</mgrwt>
</event>
<event>
12    1  0.1029207E-001  0.2763067E+03  0.7546771E-02  0.1097746E+00
         21   -1    0    0  501  502  0.00000000000E+00  0.00000000000E+00  0.12395055473E+03  0.12395055473E+03  0.00000000000E+00 0.  1.
         21   -1    0    0  502  503 -0.00000000000E+00 -0.00000000000E+00 -0.62702294597E+03  0.62702294597E+03  0.00000000000E+00 0.  1.
         -6    2    1    2    0  503  0.37025773690E+02  0.21115551632E+03 -0.30219937960E+03  0.40936650671E+03  0.17406582605E+03 0.  0.
        -24    2    3    3    0    0 -0.40159867822E+02  0.14394422313E+03 -0.15766883033E+03  0.23220513716E+03  0.82018359602E+02 0.  0.
          6    2    1    2  501    0 -0.37025773690E+02 -0.21115551632E+03 -0.20087301163E+03  0.34160699399E+03  0.17432100146E+03 0.  0.
         24    2    5    5    0    0 -0.53143195852E+02 -0.21341787010E+03 -0.12788492123E+03  0.26667875577E+03  0.79947602567E+02 0.  0.
          5    1    5    5  501    0  0.16117422162E+02  0.22623537803E+01 -0.72988090408E+02  0.74928238223E+02  0.47000000000E+01 0. -1.
        -13    1    6    6    0    0 -0.21288215993E+02 -0.19705580463E+03 -0.10862080638E+03  0.22601472929E+03  0.00000000000E+00 0.  1.
         14    1    6    6    0    0 -0.31854979859E+02 -0.16362065473E+02 -0.19264114850E+02  0.40664026477E+02  0.00000000000E+00 0. -1.
         -5    1    3    3    0  503  0.77185641512E+02  0.67211293192E+02 -0.14453054927E+03  0.17716136955E+03  0.47000000000E+01 0.  1.
         13    1    4    4    0    0 -0.58656454353E+02  0.84267899211E+02 -0.68876605281E+02  0.12363512943E+03  0.00000000000E+00 0. -1.
        -14    1    4    4    0    0  0.18496586531E+02  0.59676323919E+02 -0.88792225046E+02  0.10857000773E+03  0.00000000000E+00 0.  1.
<mgrwt>
<rscale>  2 0.27626642E+03</rscale>
<asrwt>0</asrwt>
<pdfrwt beam="1">  1       21 0.19069316E-01 0.27630666E+03</pdfrwt>
<pdfrwt beam="2">  1       21 0.96465068E-01 0.27630666E+03</pdfrwt>
<totfact> 0.21577320E+04</totfact>
</mgrwt>
</event>
<event>
12    1  0.1029207E-001  0.1826121E+03  0.7546771E-02  0.1165845E+00
         21   -1    0    0  501  502  0.00000000000E+00  0.00000000000E+00  0.51836372873E+03  0.51836372873E+03  0.00000000000E+00 0. -1.
         21   -1    0    0  502  503 -0.00000000000E+00 -0.00000000000E+00 -0.20422385097E+03  0.20422385097E+03  0.00000000000E+00 0.  1.
         -6    2    1    2    0  503 -0.49733724304E+02  0.27632116192E+02 -0.14311498960E+03  0.23021658130E+03  0.17111632558E+03 0.  0.
        -24    2    3    3    0    0 -0.97285107614E+02  0.20833006389E+02 -0.11643085386E+03  0.17506683018E+03  0.84816537188E+02 0.  0.
          6    2    1    2  501    0  0.49733724304E+02 -0.27632116192E+02  0.45725486736E+03  0.49237099839E+03  0.17352293554E+03 0.  0.
         24    2    5    5    0    0  0.46864423302E+01 -0.46704677384E+02  0.11979148360E+03  0.15134805843E+03  0.79705367552E+02 0.  0.
          5    1    5    5  501    0  0.45047281974E+02  0.19072561193E+02  0.33746338376E+03  0.34102293996E+03  0.47000000000E+01 0. -1.
        -11    1    6    6    0    0  0.10782017316E+02  0.20896511135E+02  0.21257914662E+02  0.31698817183E+02  0.00000000000E+00 0.  1.
         12    1    6    6    0    0 -0.60955749862E+01 -0.67601188519E+02  0.98533568940E+02  0.11964924125E+03  0.00000000000E+00 0. -1.
         -5    1    3    3    0  503  0.47551383310E+02  0.67991098024E+01 -0.26684135739E+02  0.55149751123E+02  0.47000000000E+01 0.  1.
         13    1    4    4    0    0 -0.84516026148E+02  0.24258285248E+02 -0.12946523977E+03  0.15650134628E+03  0.00000000000E+00 0. -1.
        -14    1    4    4    0    0 -0.12769081466E+02 -0.34252788586E+01  0.13034385904E+02  0.18565483905E+02  0.00000000000E+00 0.  1.
<mgrwt>
<rscale>  2 0.18203810E+03</rscale>
<asrwt>0</asrwt>
<pdfrwt beam="1">  1       21 0.79748265E-01 0.18261212E+03</pdfrwt>
<pdfrwt beam="2">  1       21 0.31419054E-01 0.18261212E+03</pdfrwt>
<totfact> 0.13574995E+04</totfact>
</mgrwt>
</event>
<event>
12    1  0.1029207E-001  0.1937797E+03  0.7546771E-02  0.1155626E+00
         21   -1    0    0  503  502  0.00000000000E+00  0.00000000000E+00  0.21685729990E+03  0.21685729990E+03  0.00000000000E+00 0. -1.
         21   -1    0    0  501  503 -0.00000000000E+00 -0.00000000000E+00 -0.17467120256E+03  0.17467120256E+03  0.00000000000E+00 0. -1.
          6    2    1    2  501    0 -0.46621264276E+02 -0.72280883633E+02 -0.70711186733E+01  0.19390868644E+03  0.17364477975E+03 0.  0.
         24    2    3    3    0    0  0.34649408751E+02 -0.67433720771E+02  0.99987158699E+00  0.11195962808E+03  0.82377608319E+02 0.  0.
         -6    2    1    2    0  502  0.46621264276E+02  0.72280883633E+02  0.49257216008E+02  0.19761981602E+03  0.17096563963E+03 0.  0.
        -24    2    5    5    0    0  0.24369863509E+02  0.90476130481E+02  0.85876544371E+02  0.15083031877E+03  0.81210736678E+02 0.  0.
          5    1    3    3  501    0 -0.81270673027E+02 -0.48471628615E+01 -0.80709902603E+01  0.81949058359E+02  0.47000000000E+01 0. -1.
        -13    1    4    4    0    0  0.43088175486E+02  0.14363114328E+00 -0.59769169995E+01  0.43500977385E+02  0.00000000000E+00 0.  1.
         14    1    4    4    0    0 -0.84387667349E+01 -0.67577351915E+02  0.69767885865E+01  0.68458650694E+02  0.00000000000E+00 0. -1.
         -5    1    5    5    0  502  0.22251400767E+02 -0.18195246848E+02 -0.36619328362E+02  0.46789497258E+02  0.47000000000E+01 0.  1.
         11    1    6    6    0    0  0.44399804413E+02  0.70258618161E+02  0.89502683214E+02  0.12214068266E+03  0.00000000000E+00 0. -1.
        -12    1    6    6    0    0 -0.20029940904E+02  0.20217512321E+02 -0.36261388438E+01  0.28689636107E+02  0.00000000000E+00 0.  1.
<mgrwt>
<rscale>  2 0.19317765E+03</rscale>
<asrwt>0</asrwt>
<pdfrwt beam="1">  1       21 0.33362662E-01 0.19377972E+03</pdfrwt>
<pdfrwt beam="2">  1       21 0.26872493E-01 0.19377972E+03</pdfrwt>
<totfact> 0.11406954E+05</totfact>
</mgrwt>
</event>
<event>
12    1  0.1029207E-001  0.1821063E+03  0.7546771E-02  0.1165851E+00
         21   -1    0    0  503  502  0.00000000000E+00  0.00000000000E+00  0.11703964567E+03  0.11703964567E+03  0.00000000000E+00 0.  1.
         21   -1    0    0  501  503 -0.00000000000E+00 -0.00000000000E+00 -0.95062914422E+03  0.95062914422E+03  0.00000000000E+00 0.  1.
          6    2    1    2  501    0 -0.53818824693E+02  0.19575333807E+02 -0.86430593497E+03  0.88328221117E+03  0.17286716218E+03 0.  0.
         24    2    3    3    0    0 -0.10194633587E+03  0.14607580225E+02 -0.51632467053E+03  0.53192201663E+03  0.75785417962E+02 0.  0.
         -6    2    1    2    0  502  0.53818824693E+02 -0.19575333807E+02  0.30716436431E+02  0.18438657872E+03  0.17255506762E+03 0.  0.
        -24    2    5    5    0    0 -0.10299924245E+02 -0.24947866766E+02 -0.35630670557E+02  0.91844119916E+02  0.80232868471E+02 0.  0.
          5    1    3    3  501    0  0.48127511182E+02  0.49677535820E+01 -0.34798126444E+03  0.35136019454E+03  0.47000000000E+01 0. -1.
        -13    1    4    4    0    0 -0.70778395948E+02 -0.22900413430E+02 -0.37804522975E+03  0.38529495974E+03  0.00000000000E+00 0.  1.
         14    1    4    4    0    0 -0.31167939927E+02  0.37507993655E+02 -0.13827944079E+03  0.14662705689E+03  0.00000000000E+00 0. -1.
         -5    1    5    5    0  502  0.64118748938E+02  0.53725329586E+01  0.66347106988E+02  0.92542458803E+02  0.47000000000E+01 0.  1.
         13    1    6    6    0    0 -0.17790830041E+02  0.24361090440E+02  0.64435737541E+00  0.30172695561E+02  0.00000000000E+00 0. -1.
        -14    1    6    6    0    0  0.74909057963E+01 -0.49308957206E+02 -0.36275027933E+02  0.61671424355E+02  0.00000000000E+00 0.  1.
<mgrwt>
<rscale>  2 0.18203223E+03</rscale>
<asrwt>0</asrwt>
<pdfrwt beam="1">  1       21 0.18006099E-01 0.18210633E+03</pdfrwt>
<pdfrwt beam="2">  1       21 0.14625064E+00 0.18210633E+03</pdfrwt>
<totfact> 0.90357210E+03</totfact>
</mgrwt>
</event>
<event>
12    1  0.1029207E-001  0.1983998E+03  0.7546771E-02  0.1151305E+00
         21   -1    0    0  501  502  0.00000000000E+00  0.00000000000E+00  0.88326432720E+02  0.88326432720E+02  0.00000000000E+00 0.  1.
         21   -1    0    0  502  503 -0.00000000000E+00 -0.00000000000E+00 -0.85334177380E+03  0.85334177380E+03  0.00000000000E+00 0. -1.
         -6    2    1    2    0  503 -0.20171971723E+01  0.94918334812E+02 -0.70931649827E+03  0.73654082861E+03  0.17420946621E+03 0.  0.
        -24    2    3    3    0    0  0.35947611956E+02  0.36223929089E+02 -0.59458905164E+03  0.60211301524E+03  0.79997118385E+02 0.  0.
          6    2    1    2  501    0  0.20171971723E+01 -0.94918334812E+02 -0.55698842803E+02  0.20512737791E+03  0.17309338725E+03 0.  0.
         24    2    5    5    0    0  0.11176816927E+02 -0.82764487594E+02  0.27970430275E+02  0.11995548176E+03  0.81437650944E+02 0.  0.
          5    1    5    5  501    0 -0.91596197545E+01 -0.12153847218E+02 -0.83669273078E+02  0.85171896149E+02  0.47000000000E+01 0. -1.
        -11    1    6    6    0    0  0.21966516743E+02 -0.67683723859E+02 -0.15383058744E+02  0.72802835313E+02  0.00000000000E+00 0.  1.
         12    1    6    6    0    0 -0.10789699816E+02 -0.15080763735E+02  0.43353489019E+02  0.47152646448E+02  0.00000000000E+00 0. -1.
         -5    1    3    3    0  503 -0.37964809128E+02  0.58694405723E+02 -0.11472744664E+03  0.13442781337E+03  0.47000000000E+01 0.  1.
         13    1    4    4    0    0  0.24211649088E+02 -0.22666994457E+02 -0.26854794747E+03  0.27058824195E+03  0.00000000000E+00 0. -1.
        -14    1    4    4    0    0  0.11735962869E+02  0.58890923546E+02 -0.32604110417E+03  0.33152477329E+03  0.00000000000E+00 0.  1.
<mgrwt>
<rscale>  2 0.19815457E+03</rscale>
<asrwt>0</asrwt>
<pdfrwt beam="1">  1       21 0.13588682E-01 0.19839984E+03</pdfrwt>
<pdfrwt beam="2">  1       21 0.13128335E+00 0.19839984E+03</pdfrwt>
<totfact> 0.19713616E+04</totfact>
</mgrwt>
</event>
<event>
12    1  0.1029207E-001  0.2676844E+03  0.7546771E-02  0.1104333E+00
         21   -1    0    0  503  502  0.00000000000E+00  0.00000000000E+00  0.99185733796E+02  0.99185733796E+02  0.00000000000E+00 0. -1.
         21   -1    0    0  501  503 -0.00000000000E+00 -0.00000000000E+00 -0.14789750291E+04  0.14789750291E+04  0.00000000000E+00 0.  1.
          6    2    1    2  501    0 -0.14266338341E+03  0.14648734832E+03 -0.12584873730E+04  0.12842745981E+04  0.15414081537E+03 0.  0.
         24    2    3    3    0    0 -0.88786716180E+02  0.77898840880E+02 -0.10259775724E+04  0.10358999294E+04  0.80668298408E+02 0.  0.
         -6    2    1    2    0  502  0.14266338341E+03 -0.14648734832E+03 -0.12130192222E+03  0.29388616478E+03  0.17275282149E+03 0.  0.
        -24    2    5    5    0    0  0.15971899905E+03 -0.76669884476E+02 -0.88009450435E+02  0.21453976626E+03  0.83025406337E+02 0.  0.
          5    1    3    3  501    0 -0.53876667231E+02  0.68588507436E+02 -0.23250980070E+03  0.24837466868E+03  0.47000000000E+01 0. -1.
        -11    1    4    4    0    0 -0.59764621280E+02  0.90404272982E+02 -0.69254157958E+03  0.70096974399E+03  0.00000000000E+00 0.  1.
         12    1    4    4    0    0 -0.29022094899E+02 -0.12505432102E+02 -0.33343599277E+03  0.33493018541E+03  0.00000000000E+00 0. -1.
         -5    1    5    5    0  502 -0.17055615634E+02 -0.69817463840E+02 -0.33292471788E+02  0.79346398529E+02  0.47000000000E+01 0.  1.
         13    1    6    6    0    0 -0.82516445639E+00 -0.15742070855E+02  0.81354335195E+01  0.17739193041E+02  0.00000000000E+00 0. -1.
        -14    1    6    6    0    0  0.16054416350E+03 -0.60927813621E+02 -0.96144883954E+02  0.19680057321E+03  0.00000000000E+00 0.  1.
<mgrwt>
<rscale>  2 0.26473176E+03</rscale>
<asrwt>0</asrwt>
<pdfrwt beam="1">  1       21 0.15259344E-01 0.26768437E+03</pdfrwt>
<pdfrwt beam="2">  1       21 0.22753462E+00 0.26768437E+03</pdfrwt>
<totfact> 0.32191967E+03</totfact>
</mgrwt>
</event>
<event>
12    1  0.1029207E-001  0.1781679E+03  0.7546771E-02  0.1170334E+00
         21   -1    0    0  503  502  0.00000000000E+00  0.00000000000E+00  0.43657730587E+02  0.43657730587E+02  0.00000000000E+00 0.  1.
         21   -1    0    0  501  503 -0.00000000000E+00 -0.00000000000E+00 -0.99156011038E+03  0.99156011038E+03  0.00000000000E+00 0.  1.
          6    2    1    2  501    0 -0.45487359351E+02 -0.50915078521E+01 -0.75028594049E+03  0.77115029478E+03  0.17218815675E+03 0.  0.
         24    2    3    3    0    0 -0.68846746190E+02 -0.17057468482E+01 -0.73567736474E+03  0.74299670146E+03  0.77975184266E+02 0.  0.
         -6    2    1    2    0  502  0.45487359351E+02  0.50915078521E+01 -0.19761643930E+03  0.26406754619E+03  0.16906918275E+03 0.  0.
        -24    2    5    5    0    0  0.73520930303E+02  0.49587567952E+02 -0.13417689821E+03  0.18153000420E+03  0.84175105115E+02 0.  0.
          5    1    3    3  501    0  0.23359386839E+02 -0.33857610039E+01 -0.14608575749E+02  0.28153593314E+02  0.47000000000E+01 0. -1.
        -13    1    4    4    0    0  0.17567524363E+02  0.75436452699E+00 -0.12375126770E+03  0.12499425280E+03  0.00000000000E+00 0.  1.
         14    1    4    4    0    0 -0.86414270554E+02 -0.24601113752E+01 -0.61192609704E+03  0.61800244866E+03  0.00000000000E+00 0. -1.
         -5    1    5    5    0  502 -0.28033570952E+02 -0.44496060100E+02 -0.63439541090E+02  0.82537541994E+02  0.47000000000E+01 0.  1.
         13    1    6    6    0    0 -0.94081671258E+01  0.35422558761E+02 -0.28343630505E+02  0.46331767375E+02  0.00000000000E+00 0. -1.
        -14    1    6    6    0    0  0.82929097429E+02  0.14165009191E+02 -0.10583326771E+03  0.13519823682E+03  0.00000000000E+00 0.  1.
<mgrwt>
<rscale>  2 0.17740992E+03</rscale>
<asrwt>0</asrwt>
<pdfrwt beam="1">  1       21 0.67165745E-02 0.17816786E+03</pdfrwt>
<pdfrwt beam="2">  1       21 0.15254770E+00 0.17816786E+03</pdfrwt>
<totfact> 0.46834461E+04</totfact>
</mgrwt>
</event>
<event>
12    1  0.1029207E-001  0.1977517E+03  0.7546771E-02  0.1151744E+00
         21   -1    0    0  501  502  0.00000000000E+00  0.00000000000E+00  0.85283163967E+02  0.85283163967E+02  0.00000000000E+00 0.  1.
         21   -1    0    0  502  503 -0.00000000000E+00 -0.00000000000E+00 -0.45778962509E+03  0.45778962509E+03  0.00000000000E+00 0. -1.
         -6    2    1    2    0  503 -0.16425896290E+02  0.93741028636E+02 -0.19259336855E+03  0.27572568952E+03  0.17284461153E+03 0.  0.
        -24    2    3    3    0    0 -0.21037271002E+02  0.95371488986E+02 -0.21657083490E+03  0.25080718094E+03  0.80392958623E+02 0.  0.
          6    2    1    2  501    0  0.16425896290E+02 -0.93741028636E+02 -0.17991309256E+03  0.26734709953E+03  0.17334520539E+03 0.  0.
         24    2    5    5    0    0  0.42246277984E+02 -0.90222922881E+02 -0.54839743024E+02  0.13950148191E+03  0.80798157303E+02 0.  0.
          5    1    5    5  501    0 -0.25820381693E+02 -0.35181057551E+01 -0.12507334954E+03  0.12784561762E+03  0.47000000000E+01 0. -1.
        -13    1    6    6    0    0 -0.13172271442E+02 -0.64702070622E+02 -0.18859089186E+02  0.68669730759E+02  0.00000000000E+00 0.  1.
         14    1    6    6    0    0  0.55418549425E+02 -0.25520852260E+02 -0.35980653838E+02  0.70831751151E+02  0.00000000000E+00 0. -1.
         -5    1    3    3    0  503  0.46113747119E+01 -0.16304603498E+01  0.23977466349E+02  0.24918508587E+02  0.47000000000E+01 0.  1.
         13    1    4    4    0    0 -0.16400170280E+02 -0.92238492292E+01 -0.16626181197E+02  0.25109258870E+02  0.00000000000E+00 0. -1.
        -14    1    4    4    0    0 -0.46371007223E+01  0.10459533822E+03 -0.19994465371E+03  0.22569792207E+03  0.00000000000E+00 0.  1.
<mgrwt>
<rscale>  2 0.19764198E+03</rscale>
<asrwt>0</asrwt>
<pdfrwt beam="1">  1       21 0.13120487E-01 0.19775174E+03</pdfrwt>
<pdfrwt beam="2">  1       21 0.70429173E-01 0.19775174E+03</pdfrwt>
<totfact> 0.91196216E+04</totfact>
</mgrwt>
</event>
<event>
12    1  0.1029207E-001  0.1742337E+03  0.7546771E-02  0.1173672E+00
         21   -1    0    0  501  502  0.00000000000E+00  0.00000000000E+00  0.19593578818E+03  0.19593578818E+03  0.00000000000E+00 0.  1.
         21   -1    0    0  502  503 -0.00000000000E+00 -0.00000000000E+00 -0.26725248595E+03  0.26725248595E+03  0.00000000000E+00 0.  1.
         -6    2    1    2    0  503 -0.25199609167E+01 -0.26870011181E+01 -0.18615240140E+03  0.25451475771E+03  0.17352658346E+03 0.  0.
        -24    2    3    3    0    0 -0.46484040069E+02 -0.46783898824E+02 -0.79527945063E+02  0.13095003244E+03  0.80459416966E+02 0.  0.
          6    2    1    2  501    0  0.25199609167E+01  0.26870011181E+01  0.11483570364E+03  0.20867351642E+03  0.17419479741E+03 0.  0.
         24    2    5    5    0    0  0.17595527377E+02 -0.14468171004E+02  0.14684656317E+03  0.16907101950E+03  0.80636009096E+02 0.  0.
          5    1    5    5  501    0 -0.15075566460E+02  0.17155172122E+02 -0.32010859530E+02  0.39602496922E+02  0.47000000000E+01 0. -1.
        -13    1    6    6    0    0 -0.31345995665E+02 -0.15041263158E+02  0.64632794154E+02  0.73390797256E+02  0.00000000000E+00 0.  1.
         14    1    6    6    0    0  0.48941523042E+02  0.57309215407E+00  0.82213769017E+02  0.95680222242E+02  0.00000000000E+00 0. -1.
         -5    1    3    3    0  503  0.43964079152E+02  0.44096897705E+02 -0.10662445634E+03  0.12356472528E+03  0.47000000000E+01 0.  1.
         13    1    4    4    0    0 -0.42887930184E+02 -0.69105819502E+02 -0.59911919601E+02  0.10101696370E+03  0.00000000000E+00 0. -1.
        -14    1    4    4    0    0 -0.35961098847E+01  0.22321920679E+02 -0.19616025462E+02  0.29933068737E+02  0.00000000000E+00 0.  1.
<mgrwt>
<rscale>  2 0.17406649E+03</rscale>
<asrwt>0</asrwt>
<pdfrwt beam="1">  1       21 0.30143967E-01 0.17423374E+03</pdfrwt>
<pdfrwt beam="2">  1       21 0.41115767E-01 0.17423374E+03</pdfrwt>
<totfact> 0.60646227E+04</totfact>
</mgrwt>
</event>
<event>
12    1  0.1029207E-001  0.1771114E+03  0.7546771E-02  0.1171440E+00
         21   -1    0    0  501  502  0.00000000000E+00  0.00000000000E+00  0.52468727740E+03  0.52468727740E+03  0.00000000000E+00 0.  1.
         21   -1    0    0  502  503 -0.00000000000E+00 -0.00000000000E+00 -0.61399204671E+02  0.61399204671E+02  0.00000000000E+00 0.  1.
         -6    2    1    2    0  503  0.26423667968E+02 -0.25620498926E+02  0.17216489631E+03  0.24700041911E+03  0.17324501529E+03 0.  0.
        -24    2    3    3    0    0  0.49784500270E+02 -0.74666828172E+02  0.97076225046E+02  0.15420133802E+03  0.79376491993E+02 0.  0.
          6    2    1    2  501    0 -0.26423667968E+02  0.25620498926E+02  0.29112317641E+03  0.33908606296E+03  0.16991772731E+03 0.  0.
         24    2    5    5    0    0 -0.46905638165E+02 -0.19136607037E+02  0.26820273254E+03  0.28458701357E+03  0.80564967137E+02 0.  0.
          5    1    5    5  501    0  0.20481970197E+02  0.44757105963E+02  0.22920443873E+02  0.54499049392E+02  0.47000000000E+01 0. -1.
        -11    1    6    6    0    0 -0.18382758511E+02 -0.47488446893E+02  0.18925530624E+03  0.19598634987E+03  0.00000000000E+00 0.  1.
         12    1    6    6    0    0 -0.28522879654E+02  0.28351839857E+02  0.78947426301E+02  0.88600663691E+02  0.00000000000E+00 0. -1.
         -5    1    3    3    0  503 -0.23360832302E+02  0.49046329245E+02  0.75088671269E+02  0.92799081090E+02  0.47000000000E+01 0.  1.
         13    1    4    4    0    0 -0.14494085848E+02 -0.17855144491E+01 -0.27787135287E+01  0.14865659598E+02  0.00000000000E+00 0. -1.
        -14    1    4    4    0    0  0.64278586117E+02 -0.72881313723E+02  0.99854938574E+02  0.13933567842E+03  0.00000000000E+00 0.  1.
<mgrwt>
<rscale>  2 0.17629244E+03</rscale>
<asrwt>0</asrwt>
<pdfrwt beam="1">  1       21 0.80721117E-01 0.17711142E+03</pdfrwt>
<pdfrwt beam="2">  1       21 0.94460319E-02 0.17711142E+03</pdfrwt>
<totfact> 0.12162167E+05</totfact>
</mgrwt>
</event>
<event>
12    1  0.1029207E-001  0.3048310E+03  0.7546771E-02  0.1082870E+00
         21   -1    0    0  503  502  0.00000000000E+00  0.00000000000E+00  0.66839209471E+03  0.66839209471E+03  0.00000000000E+00 0. -1.
         21   -1    0    0  501  503 -0.00000000000E+00 -0.00000000000E+00 -0.14020357240E+03  0.14020357240E+03  0.00000000000E+00 0.  1.
          6    2    1    2  501    0  0.24665380147E+03 -0.27734682382E+02  0.22578422655E+03  0.37921202308E+03  0.17668030762E+03 0.  0.
         24    2    3    3    0    0  0.70611849717E+02 -0.26995795506E+02  0.33082366082E+02  0.11816143074E+03  0.84574668037E+02 0.  0.
         -6    2    1    2    0  502 -0.24665380147E+03  0.27734682382E+02  0.30240429576E+03  0.42938364403E+03  0.17695944529E+03 0.  0.
        -24    2    5    5    0    0 -0.23769474886E+03  0.50080180023E+02  0.20127559589E+03  0.32532265313E+03  0.79474178673E+02 0.  0.
          5    1    3    3  501    0  0.17604195176E+03 -0.73888687577E+00  0.19270186047E+03  0.26105059234E+03  0.47000000000E+01 0. -1.
        -11    1    4    4    0    0  0.99694680927E+01  0.27988060313E+02 -0.41837143182E+00  0.29713580208E+02  0.00000000000E+00 0.  1.
         12    1    4    4    0    0  0.60642381624E+02 -0.54983855819E+02  0.33500737513E+02  0.88447850532E+02  0.00000000000E+00 0. -1.
         -5    1    5    5    0  502 -0.89590526163E+01 -0.22345497641E+02  0.10112869988E+03  0.10406099090E+03  0.47000000000E+01 0.  1.
         13    1    6    6    0    0 -0.16725745599E+03  0.59598142065E+01  0.16369050112E+03  0.23410501090E+03  0.00000000000E+00 0. -1.
        -14    1    6    6    0    0 -0.70437292864E+02  0.44120365816E+02  0.37585094761E+02  0.91217642230E+02  0.00000000000E+00 0.  1.
<mgrwt>
<rscale>  2 0.30479053E+03</rscale>
<asrwt>0</asrwt>
<pdfrwt beam="1">  1       21 0.10282955E+00 0.30483103E+03</pdfrwt>
<pdfrwt beam="2">  1       21 0.21569781E-01 0.30483103E+03</pdfrwt>
<totfact> 0.14488535E+04</totfact>
</mgrwt>
</event>
<event>
12    1  0.1029207E-001  0.2080949E+03  0.7546771E-02  0.1143977E+00
         21   -1    0    0  501  502  0.00000000000E+00  0.00000000000E+00  0.79337072164E+02  0.79337072164E+02  0.00000000000E+00 0. -1.
         21   -1    0    0  502  503 -0.00000000000E+00 -0.00000000000E+00 -0.72517578935E+03  0.72517578935E+03  0.00000000000E+00 0. -1.
         -6    2    1    2    0  503 -0.17437216773E+02 -0.10476571097E+03 -0.53182317978E+03  0.57108615440E+03  0.17895136341E+03 0.  0.
        -24    2    3    3    0    0  0.56217352570E+02 -0.35957905649E+02 -0.26074913413E+03  0.28184103710E+03  0.83611587306E+02 0.  0.
          6    2    1    2  501    0  0.17437216773E+02  0.10476571097E+03 -0.11401553740E+03  0.23342670711E+03  0.17380613942E+03 0.  0.
         24    2    5    5    0    0  0.52779518478E+02  0.12545307228E+03 -0.68843863680E+02  0.17227431293E+03  0.80092511600E+02 0.  0.
          5    1    5    5  501    0 -0.35342301705E+02 -0.20687361307E+02 -0.45171673722E+02  0.61152394185E+02  0.47000000000E+01 0. -1.
        -11    1    6    6    0    0  0.55750423632E+02  0.12562505473E+03 -0.81152908295E+02  0.15961064700E+03  0.00000000000E+00 0.  1.
         12    1    6    6    0    0 -0.29709051535E+01 -0.17198245365E+00  0.12309044616E+02  0.12663665928E+02  0.00000000000E+00 0. -1.
         -5    1    3    3    0  503 -0.73654569343E+02 -0.68807805322E+02 -0.27107404565E+03  0.28924511730E+03  0.47000000000E+01 0.  1.
         11    1    4    4    0    0 -0.98910971803E+00 -0.27132905608E+02 -0.18250601053E+03  0.18451454356E+03  0.00000000000E+00 0. -1.
        -12    1    4    4    0    0  0.57206462288E+02 -0.88250000406E+01 -0.78243123600E+02  0.97326493535E+02  0.00000000000E+00 0.  1.
<mgrwt>
<rscale>  2 0.20698414E+03</rscale>
<asrwt>0</asrwt>
<pdfrwt beam="1">  1       21 0.12205703E-01 0.20809493E+03</pdfrwt>
<pdfrwt beam="2">  1       21 0.11156551E+00 0.20809493E+03</pdfrwt>
<totfact> 0.35616912E+04</totfact>
</mgrwt>
</event>
<event>
12    1  0.1029207E-001  0.1869104E+03  0.7546771E-02  0.1161358E+00
         21   -1    0    0  503  502  0.00000000000E+00  0.00000000000E+00  0.13815810804E+03  0.13815810804E+03  0.00000000000E+00 0.  1.
         21   -1    0    0  501  503 -0.00000000000E+00 -0.00000000000E+00 -0.27149104048E+03  0.27149104048E+03  0.00000000000E+00 0.  1.
          6    2    1    2  501    0 -0.29261190393E+02  0.64400253714E+02 -0.12405821368E+02  0.18732169096E+03  0.17300838580E+03 0.  0.
         24    2    3    3    0    0  0.33148212145E+02  0.12557250956E+02 -0.44633015120E+02  0.99895650916E+02  0.82039908052E+02 0.  0.
         -6    2    1    2    0  502  0.29261190393E+02 -0.64400253714E+02 -0.12092711107E+03  0.22232745756E+03  0.17263407037E+03 0.  0.
        -24    2    5    5    0    0  0.29305159268E+02  0.11144797351E+02 -0.83123610683E+01  0.86639475072E+02  0.80338685741E+02 0.  0.
          5    1    3    3  501    0 -0.62409402538E+02  0.51843002758E+02  0.32227193752E+02  0.87426040041E+02  0.47000000000E+01 0. -1.
        -11    1    4    4    0    0 -0.19356698228E+02  0.27905533574E+02 -0.23274050253E+02  0.41171373374E+02  0.00000000000E+00 0.  1.
         12    1    4    4    0    0  0.52504910373E+02 -0.15348282618E+02 -0.21358964867E+02  0.58724277542E+02  0.00000000000E+00 0. -1.
         -5    1    5    5    0  502 -0.43968874967E-01 -0.75545051065E+02 -0.11261475000E+03  0.13568798249E+03  0.47000000000E+01 0.  1.
         13    1    6    6    0    0  0.15061308567E+02  0.27587393207E+02 -0.38329211368E+02  0.49568495275E+02  0.00000000000E+00 0. -1.
        -14    1    6    6    0    0  0.14243850701E+02 -0.16442595856E+02  0.30016850299E+02  0.37070979798E+02  0.00000000000E+00 0.  1.
<mgrwt>
<rscale>  2 0.18682377E+03</rscale>
<asrwt>0</asrwt>
<pdfrwt beam="1">  1       21 0.21255094E-01 0.18691044E+03</pdfrwt>
<pdfrwt beam="2">  1       21 0.41767852E-01 0.18691044E+03</pdfrwt>
<totfact> 0.11388328E+05</totfact>
</mgrwt>
</event>
<event>
12    1  0.1029207E-001  0.2197185E+03  0.7546771E-02  0.1134165E+00
         21   -1    0    0  503  502  0.00000000000E+00  0.00000000000E+00  0.17455798679E+03  0.17455798679E+03  0.00000000000E+00 0. -1.
         21   -1    0    0  501  503 -0.00000000000E+00 -0.00000000000E+00 -0.11783428641E+04  0.11783428641E+04  0.00000000000E+00 0.  1.
          6    2    1    2  501    0  0.92002895019E+02 -0.98884627014E+02 -0.10937147757E+04  0.11154906708E+04  0.17281413133E+03 0.  0.
         24    2    3    3    0    0  0.92190554853E+02 -0.11731755419E+03 -0.10769752627E+04  0.10901507948E+04  0.79312874630E+02 0.  0.
         -6    2    1    2    0  502 -0.92002895019E+02  0.98884627014E+02  0.89929898419E+02  0.23741018002E+03  0.17330177379E+03 0.  0.
        -24    2    5    5    0    0 -0.42492515795E+02 -0.78927551993E+01  0.12574225379E+02  0.96489361283E+02  0.85347385512E+02 0.  0.
          5    1    3    3  501    0 -0.18765983383E+00  0.18432927174E+02 -0.16739513000E+02  0.25339876004E+02  0.47000000000E+01 0. -1.
        -11    1    4    4    0    0  0.76273068423E+02 -0.83015661406E+02 -0.97306165380E+03  0.97957039721E+03  0.00000000000E+00 0.  1.
         12    1    4    4    0    0  0.15917486430E+02 -0.34301892782E+02 -0.10391360891E+03  0.11058039763E+03  0.00000000000E+00 0. -1.
         -5    1    5    5    0  502 -0.49510379224E+02  0.10677738221E+03  0.77355673041E+02  0.14092081874E+03  0.47000000000E+01 0.  1.
         13    1    6    6    0    0 -0.34456134328E+02 -0.34788180160E+02  0.35309132320E+02  0.60367023256E+02  0.00000000000E+00 0. -1.
        -14    1    6    6    0    0 -0.80363814676E+01  0.26895424961E+02 -0.22734906941E+02  0.36122338027E+02  0.00000000000E+00 0.  1.
<mgrwt>
<rscale>  2 0.21962230E+03</rscale>
<asrwt>0</asrwt>
<pdfrwt beam="1">  1       21 0.26855074E-01 0.21971847E+03</pdfrwt>
<pdfrwt beam="2">  1       21 0.18128352E+00 0.21971847E+03</pdfrwt>
<totfact> 0.22955825E+03</totfact>
</mgrwt>
</event>
<event>
12    1  0.1029207E-001  0.2496425E+03  0.7546771E-02  0.1114807E+00
         21   -1    0    0  501  502  0.00000000000E+00  0.00000000000E+00  0.71748756197E+03  0.71748756197E+03  0.00000000000E+00 0. -1.
         21   -1    0    0  502  503 -0.00000000000E+00 -0.00000000000E+00 -0.95131531577E+02  0.95131531577E+02  0.00000000000E+00 0. -1.
         -6    2    1    2    0  503  0.17338298631E+03  0.45537260615E+02  0.17742892302E+03  0.30627180515E+03  0.17374145693E+03 0.  0.
        -24    2    3    3    0    0  0.18725267105E+03  0.11712818270E+02  0.11703214360E+03  0.23551643772E+03  0.81059958517E+02 0.  0.
          6    2    1    2  501    0 -0.17338298631E+03 -0.45537260615E+02  0.44492710737E+03  0.50634728840E+03  0.16214852314E+03 0.  0.
         24    2    5    5    0    0 -0.14790606926E+03 -0.17748742146E+02  0.43525104185E+03  0.46714280773E+03  0.81164710346E+02 0.  0.
          5    1    5    5  501    0 -0.25476917048E+02 -0.27788518468E+02  0.96760655125E+01  0.39204480672E+02  0.47000000000E+01 0. -1.
        -11    1    6    6    0    0  0.28649986743E+01 -0.16144096483E+02  0.23514996264E+02  0.28666969110E+02  0.00000000000E+00 0.  1.
         12    1    6    6    0    0 -0.15077106793E+03 -0.16046456630E+01  0.41173604559E+03  0.43847583862E+03  0.00000000000E+00 0. -1.
         -5    1    3    3    0  503 -0.13869684739E+02  0.33824442344E+02  0.60396779429E+02  0.70755367429E+02  0.47000000000E+01 0.  1.
         11    1    4    4    0    0  0.90721428500E+02  0.41782776754E+02  0.36801383265E+02  0.10644491455E+03  0.00000000000E+00 0. -1.
        -12    1    4    4    0    0  0.96531242545E+02 -0.30069958484E+02  0.80230760331E+02  0.12907152317E+03  0.00000000000E+00 0.  1.
<mgrwt>
<rscale>  2 0.24763730E+03</rscale>
<asrwt>0</asrwt>
<pdfrwt beam="1">  1       21 0.11038270E+00 0.24964254E+03</pdfrwt>
<pdfrwt beam="2">  1       21 0.14635621E-01 0.24964254E+03</pdfrwt>
<totfact> 0.25755114E+04</totfact>
</mgrwt>
</event>
<event>
12    1  0.1029207E-001  0.1857840E+03  0.7546771E-02  0.1162373E+00
         21   -1    0    0  501  502  0.00000000000E+00  0.00000000000E+00  0.25066033786E+03  0.25066033786E+03  0.00000000000E+00 0. -1.
         21   -1    0    0  502  503 -0.00000000000E+00 -0.00000000000E+00 -0.16331903127E+03  0.16331903127E+03  0.00000000000E+00 0. -1.
         -6    2    1    2    0  503 -0.44195305828E+02 -0.52289018828E+02 -0.38561090124E+02  0.18974367898E+03  0.17270882865E+03 0.  0.
        -24    2    3    3    0    0 -0.17445989081E+02 -0.76884487359E+02 -0.75844587404E+02  0.13746928574E+03  0.83245517315E+02 0.  0.
          6    2    1    2  501    0  0.44195305828E+02  0.52289018828E+02  0.12590239672E+03  0.22423569015E+03  0.17246119764E+03 0.  0.
         24    2    5    5    0    0  0.86134793602E+01  0.38708614685E+02 -0.22124912669E+01  0.90497108307E+02  0.81315943189E+02 0.  0.
          5    1    5    5  501    0  0.35581826468E+02  0.13580404143E+02  0.12811488798E+03  0.13373858185E+03  0.47000000000E+01 0. -1.
        -11    1    6    6    0    0  0.40060317877E+02  0.10339015085E+01 -0.86669226377E+01  0.41000165472E+02  0.00000000000E+00 0.  1.
         12    1    6    6    0    0 -0.31446838517E+02  0.37674713177E+02  0.64544313708E+01  0.49496942835E+02  0.00000000000E+00 0. -1.
         -5    1    3    3    0  503 -0.26749316747E+02  0.24595468531E+02  0.37283497280E+02  0.52274393235E+02  0.47000000000E+01 0.  1.
         11    1    4    4    0    0 -0.43015383320E+02 -0.69156829557E+02 -0.34953928408E+02  0.88627125575E+02  0.00000000000E+00 0. -1.
        -12    1    4    4    0    0  0.25569394239E+02 -0.77276578022E+01 -0.40890658996E+02  0.48842160169E+02  0.00000000000E+00 0.  1.
<mgrwt>
<rscale>  2 0.18572646E+03</rscale>
<asrwt>0</asrwt>
<pdfrwt beam="1">  1       21 0.38563129E-01 0.18578403E+03</pdfrwt>
<pdfrwt beam="2">  1       21 0.25126005E-01 0.18578403E+03</pdfrwt>
<totfact> 0.97529806E+04</totfact>
</mgrwt>
</event>
<event>
12    1  0.1029207E-001  0.1945905E+03  0.7546771E-02  0.1155037E+00
         21   -1    0    0  503  502  0.00000000000E+00  0.00000000000E+00  0.39089637496E+03  0.39089637496E+03  0.00000000000E+00 0.  1.
         21   -1    0    0  501  503 -0.00000000000E+00 -0.00000000000E+00 -0.10419756356E+03  0.10419756356E+03  0.00000000000E+00 0.  1.
          6    2    1    2  501    0 -0.81667458675E+02 -0.13431752063E+02  0.70416982211E+02  0.20415870590E+03  0.17283587602E+03 0.  0.
         24    2    3    3    0    0 -0.87650177238E+02  0.21365691881E+02 -0.15567791802E+01  0.12385324310E+03  0.84841946612E+02 0.  0.
         -6    2    1    2    0  502  0.81667458675E+02  0.13431752063E+02  0.21628182918E+03  0.29093523262E+03  0.17611216363E+03 0.  0.
        -24    2    5    5    0    0  0.33282562334E+02 -0.60286484627E+02  0.10894164316E+03  0.15194069262E+03  0.80470511847E+02 0.  0.
          5    1    3    3  501    0  0.59827185628E+01 -0.34797443943E+02  0.71973761391E+02  0.80305462798E+02  0.47000000000E+01 0. -1.
        -11    1    4    4    0    0 -0.53820947657E+02 -0.25548599848E+02  0.18899933480E+02  0.62503062696E+02  0.00000000000E+00 0.  1.
         12    1    4    4    0    0 -0.33829229582E+02  0.46914291728E+02 -0.20456712661E+02  0.61350180402E+02  0.00000000000E+00 0. -1.
         -5    1    5    5    0  502  0.48384896341E+02  0.73718236689E+02  0.10734018602E+03  0.13899454000E+03  0.47000000000E+01 0.  1.
         13    1    6    6    0    0 -0.14942785021E+02 -0.52586692064E+02  0.73488287871E+02  0.91592442159E+02  0.00000000000E+00 0. -1.
        -14    1    6    6    0    0  0.48225347355E+02 -0.76997925623E+01  0.35453355285E+02  0.60348250463E+02  0.00000000000E+00 0.  1.
<mgrwt>
<rscale>  2 0.19384626E+03</rscale>
<asrwt>0</asrwt>
<pdfrwt beam="1">  1       21 0.60137903E-01 0.19459054E+03</pdfrwt>
<pdfrwt beam="2">  1       21 0.16030395E-01 0.19459054E+03</pdfrwt>
<totfact> 0.89525806E+04</totfact>
</mgrwt>
</event>
<event>
12    1  0.1029207E-001  0.2135057E+03  0.7546771E-02  0.1140418E+00
         21   -1    0    0  501  502  0.00000000000E+00  0.00000000000E+00  0.12881198534E+03  0.12881198534E+03  0.00000000000E+00 0. -1.
         21   -1    0    0  502  503 -0.00000000000E+00 -0.00000000000E+00 -0.37839986425E+03  0.37839986425E+03  0.00000000000E+00 0. -1.
         -6    2    1    2    0  503  0.98427216604E+02  0.87072804894E+01 -0.20708268932E+03  0.29743559804E+03  0.18926426251E+03 0.  0.
        -24    2    3    3    0    0  0.26332888071E+02 -0.59272894680E+02 -0.57819905772E+02  0.11821404528E+03  0.80154363319E+02 0.  0.
          6    2    1    2  501    0 -0.98427216604E+02 -0.87072804894E+01 -0.42505189582E+02  0.20977625154E+03  0.18009900296E+03 0.  0.
         24    2    5    5    0    0 -0.32640378548E+02  0.19511632021E+00 -0.91868629993E+02  0.12691492172E+03  0.81253429449E+02 0.  0.
          5    1    5    5  501    0 -0.65786838056E+02 -0.89023968096E+01  0.49363440412E+02  0.82861329821E+02  0.47000000000E+01 0. -1.
        -11    1    6    6    0    0 -0.59183513376E+02  0.92989396433E+00 -0.74643897781E+02  0.95264182326E+02  0.00000000000E+00 0.  1.
         12    1    6    6    0    0  0.26543134828E+02 -0.73477764412E+00 -0.17224732213E+02  0.31650739398E+02  0.00000000000E+00 0. -1.
         -5    1    3    3    0  503  0.72094328533E+02  0.67980175170E+02 -0.14926278355E+03  0.17922155277E+03  0.47000000000E+01 0.  1.
         11    1    4    4    0    0  0.33323204573E+00 -0.73161552093E+02 -0.35998053628E+02  0.81538847265E+02  0.00000000000E+00 0. -1.
        -12    1    4    4    0    0  0.25999656025E+02  0.13888657413E+02 -0.21821852144E+02  0.36675198011E+02  0.00000000000E+00 0.  1.
<mgrwt>
<rscale>  2 0.21145619E+03</rscale>
<asrwt>0</asrwt>
<pdfrwt beam="1">  1       21 0.19817229E-01 0.21350573E+03</pdfrwt>
<pdfrwt beam="2">  1       21 0.58215364E-01 0.21350573E+03</pdfrwt>
<totfact> 0.64301686E+04</totfact>
</mgrwt>
</event>
<event>
12    1  0.1029207E-001  0.2350048E+03  0.7546771E-02  0.1123544E+00
         21   -1    0    0  501  502  0.00000000000E+00  0.00000000000E+00  0.49848311810E+03  0.49848311810E+03  0.00000000000E+00 0.  1.
         21   -1    0    0  502  503 -0.00000000000E+00 -0.00000000000E+00 -0.16013863086E+03  0.16013863086E+03  0.00000000000E+00 0.  1.
         -6    2    1    2    0  503  0.12424494296E+03 -0.95703957646E+02 -0.14993495000E+02  0.23548262462E+03  0.17501773694E+03 0.  0.
        -24    2    3    3    0    0  0.15594365195E+03 -0.58219696931E+02  0.13959958020E+02  0.17829634659E+03  0.62343813519E+02 0.  0.
          6    2    1    2  501    0 -0.12424494296E+03  0.95703957646E+02  0.35333798224E+03  0.42313912434E+03  0.17205503622E+03 0.  0.
         24    2    5    5    0    0 -0.90015010248E+02  0.81988643312E+02  0.35795251959E+03  0.38568005206E+03  0.76120014288E+02 0.  0.
          5    1    5    5  501    0 -0.34229932715E+02  0.13715314334E+02 -0.46145373479E+01  0.37459072277E+02  0.47000000000E+01 0. -1.
        -11    1    6    6    0    0 -0.53293730294E+02  0.91206152224E+02  0.25711689553E+03  0.27797100903E+03  0.00000000000E+00 0.  1.
         12    1    6    6    0    0 -0.36721279955E+02 -0.92175089114E+01  0.10083562405E+03  0.10770904303E+03  0.00000000000E+00 0. -1.
         -5    1    3    3    0  503 -0.31698708991E+02 -0.37484260715E+02 -0.28953453020E+02  0.57186278030E+02  0.47000000000E+01 0.  1.
         11    1    4    4    0    0  0.69239383523E+01  0.53200676891E+01 -0.11361024057E+02  0.14328883772E+02  0.00000000000E+00 0. -1.
        -12    1    4    4    0    0  0.14901971360E+03 -0.63539764620E+02  0.25320982077E+02  0.16396746282E+03  0.00000000000E+00 0.  1.
<mgrwt>
<rscale>  2 0.23445336E+03</rscale>
<asrwt>0</asrwt>
<pdfrwt beam="1">  1       21 0.76689710E-01 0.23500481E+03</pdfrwt>
<pdfrwt beam="2">  1       21 0.24636713E-01 0.23500481E+03</pdfrwt>
<totfact> 0.23012909E+04</totfact>
</mgrwt>
</event>
<event>
12    1  0.1029207E-001  0.2508952E+03  0.7546771E-02  0.1113115E+00
         21   -1    0    0  503  502  0.00000000000E+00  0.00000000000E+00  0.13802476154E+04  0.13802476154E+04  0.00000000000E+00 0.  1.
         21   -1    0    0  501  503 -0.00000000000E+00 -0.00000000000E+00 -0.53297068633E+02  0.53297068633E+02  0.00000000000E+00 0. -1.
          6    2    1    2  501    0 -0.16449439127E+03 -0.77143774719E+02  0.38637063631E+03  0.46068500704E+03  0.17302843806E+03 0.  0.
         24    2    3    3    0    0 -0.84974598008E+02 -0.63664778313E+02  0.11155191890E+03  0.17423693443E+03  0.81491057211E+02 0.  0.
         -6    2    1    2    0  502  0.16449439127E+03  0.77143774719E+02  0.94057991048E+03  0.97285967701E+03  0.16957540041E+03 0.  0.
        -24    2    5    5    0    0  0.89669175316E+02  0.82043846008E+02  0.80210007614E+03  0.81531102370E+03  0.81214404880E+02 0.  0.
          5    1    3    3  501    0 -0.79519793258E+02 -0.13478996406E+02  0.27481871741E+03  0.28644807261E+03  0.47000000000E+01 0. -1.
        -11    1    4    4    0    0 -0.29504521101E+02 -0.19908945384E+02  0.95315893895E+02  0.10174479102E+03  0.00000000000E+00 0.  1.
         12    1    4    4    0    0 -0.55470076907E+02 -0.43755832928E+02  0.16236025001E+02  0.72492143403E+02  0.00000000000E+00 0. -1.
         -5    1    5    5    0  502  0.74825215949E+02 -0.49000712892E+01  0.13847983434E+03  0.15754865331E+03  0.47000000000E+01 0.  1.
         11    1    6    6    0    0  0.30241189765E+02  0.57547655542E+01  0.65305520924E+02  0.72197354163E+02  0.00000000000E+00 0. -1.
        -12    1    6    6    0    0  0.59427985551E+02  0.76289080454E+02  0.73679455521E+03  0.74311366954E+03  0.00000000000E+00 0.  1.
<mgrwt>
<rscale>  2 0.25030091E+03</rscale>
<asrwt>0</asrwt>
<pdfrwt beam="1">  1       21 0.21234576E+00 0.25089521E+03</pdfrwt>
<pdfrwt beam="2">  1       21 0.81995501E-02 0.25089521E+03</pdfrwt>
<totfact> 0.12342116E+04</totfact>
</mgrwt>
</event>
<event>
12    1  0.1029207E-001  0.1926733E+03  0.7546771E-02  0.1156267E+00
         21   -1    0    0  503  502  0.00000000000E+00  0.00000000000E+00  0.11754727836E+04  0.11754727836E+04  0.00000000000E+00 0. -1.
         21   -1    0    0  501  503 -0.00000000000E+00 -0.00000000000E+00 -0.38948011768E+02  0.38948011768E+02  0.00000000000E+00 0.  1.
          6    2    1    2  501    0 -0.62684194299E+02  0.57753004662E+02  0.83385343115E+03  0.85562705017E+03  0.17181788786E+03 0.  0.
         24    2    3    3    0    0 -0.39878353359E+02  0.70528859617E+02  0.81475289328E+03  0.82291238377E+03  0.82449446077E+02 0.  0.
         -6    2    1    2    0  502  0.62684194299E+02 -0.57753004662E+02  0.30267134069E+03  0.35879374520E+03  0.17279552470E+03 0.  0.
        -24    2    5    5    0    0  0.90498999413E+02 -0.79567348885E+02  0.18078187709E+03  0.23179508247E+03  0.80782679276E+02 0.  0.
          5    1    3    3  501    0 -0.22805840940E+02 -0.12775854954E+02  0.19100537872E+02  0.32714666402E+02  0.47000000000E+01 0. -1.
        -13    1    4    4    0    0  0.41469321374E+01  0.27990142516E+02  0.67971046537E+02  0.73625459534E+02  0.00000000000E+00 0.  1.
         14    1    4    4    0    0 -0.44025285496E+02  0.42538717100E+02  0.74678184674E+03  0.74928692424E+03  0.00000000000E+00 0. -1.
         -5    1    5    5    0  502 -0.27814805114E+02  0.21814344223E+02  0.12188946360E+03  0.12699866273E+03  0.47000000000E+01 0.  1.
         13    1    6    6    0    0  0.56690632020E+01 -0.76600596257E+01  0.83504251860E+02  0.84046266245E+02  0.00000000000E+00 0. -1.
        -14    1    6    6    0    0  0.84829936211E+02 -0.71907289260E+02  0.97277625228E+02  0.14774881623E+03  0.00000000000E+00 0.  1.
<mgrwt>
<rscale>  2 0.19245388E+03</rscale>
<asrwt>0</asrwt>
<pdfrwt beam="1">  1       21 0.18084194E+00 0.19267333E+03</pdfrwt>
<pdfrwt beam="2">  1       21 0.59920027E-02 0.19267333E+03</pdfrwt>
<totfact> 0.35490763E+04</totfact>
</mgrwt>
</event>
<event>
12    1  0.1029207E-001  0.3608711E+03  0.7546771E-02  0.1058315E+00
         21   -1    0    0  503  502  0.00000000000E+00  0.00000000000E+00  0.16885959215E+03  0.16885959215E+03  0.00000000000E+00 0.  1.
         21   -1    0    0  501  503 -0.00000000000E+00 -0.00000000000E+00 -0.12988216776E+04  0.12988216776E+04  0.00000000000E+00 0. -1.
          6    2    1    2  501    0 -0.75685473424E+02 -0.30732720038E+03 -0.10337681989E+04  0.10949450439E+04  0.17334838098E+03 0.  0.
         24    2    3    3    0    0  0.19447372617E+01 -0.87691242796E+02 -0.24336647799E+03  0.27091629814E+03  0.80466526711E+02 0.  0.
         -6    2    1    2    0  502  0.75685473424E+02  0.30732720038E+03 -0.96193886627E+02  0.37273622590E+03  0.17175776924E+03 0.  0.
        -24    2    5    5    0    0  0.11297618732E+03  0.25378349376E+03 -0.49869395581E+02  0.29257654569E+03  0.77099921312E+02 0.  0.
          5    1    3    3  501    0 -0.77630210685E+02 -0.21963595758E+03 -0.79040172086E+03  0.82402874575E+03  0.47000000000E+01 0. -1.
        -11    1    4    4    0    0  0.36708165252E+02 -0.61897416919E+02 -0.18293453301E+03  0.19658032196E+03  0.00000000000E+00 0.  1.
         12    1    4    4    0    0 -0.34763427991E+02 -0.25793825878E+02 -0.60431944984E+02  0.74335976173E+02  0.00000000000E+00 0. -1.
         -5    1    5    5    0  502 -0.37290713893E+02  0.53543706622E+02 -0.46324491046E+02  0.80159680215E+02  0.47000000000E+01 0.  1.
         13    1    6    6    0    0  0.33690926344E+02  0.46414726291E+02  0.18525582949E+02  0.60271075635E+02  0.00000000000E+00 0. -1.
        -14    1    6    6    0    0  0.79285260973E+02  0.20736876747E+03 -0.68394978530E+02  0.23230547005E+03  0.00000000000E+00 0.  1.
<mgrwt>
<rscale>  2 0.36068062E+03</rscale>
<asrwt>0</asrwt>
<pdfrwt beam="1">  1       21 0.25978399E-01 0.36087111E+03</pdfrwt>
<pdfrwt beam="2">  1       21 0.19981871E+00 0.36087111E+03</pdfrwt>
<totfact> 0.16668831E+03</totfact>
</mgrwt>
</event>
<event>
12    1  0.1029207E-001  0.1793579E+03  0.7546771E-02  0.1168687E+00
         21   -1    0    0  501  502  0.00000000000E+00  0.00000000000E+00  0.10572769697E+04  0.10572769697E+04  0.00000000000E+00 0. -1.
         21   -1    0    0  502  503 -0.00000000000E+00 -0.00000000000E+00 -0.33543728215E+02  0.33543728215E+02  0.00000000000E+00 0. -1.
         -6    2    1    2    0  503  0.24360742566E+02  0.32367021426E+02  0.33946023470E+03  0.38343197405E+03  0.17362533780E+03 0.  0.
        -24    2    3    3    0    0 -0.36236424379E+01  0.18366803978E+02  0.59878326532E+02  0.10206519337E+03  0.80507263257E+02 0.  0.
          6    2    1    2  501    0 -0.24360742566E+02 -0.32367021426E+02  0.68427300678E+03  0.70738872386E+03  0.17472317816E+03 0.  0.
         24    2    5    5    0    0 -0.50318830519E+02 -0.65578269767E+02  0.62582930669E+03  0.63517677591E+03  0.70389781756E+02 0.  0.
          5    1    5    5  501    0  0.25958087953E+02  0.33211248341E+02  0.58443700093E+02  0.72211947953E+02  0.47000000000E+01 0. -1.
        -11    1    6    6    0    0 -0.93448723020E+01  0.39107413036E+01  0.10529395569E+02  0.14611252750E+02  0.00000000000E+00 0.  1.
         12    1    6    6    0    0 -0.40973958217E+02 -0.69489011071E+02  0.61529991112E+03  0.62056552316E+03  0.00000000000E+00 0. -1.
         -5    1    3    3    0  503  0.27984385004E+02  0.14000217448E+02  0.27958190817E+03  0.28136678068E+03  0.47000000000E+01 0.  1.
         13    1    4    4    0    0  0.35950473376E+02 -0.54171190348E+01  0.29204737379E+02  0.46633661662E+02  0.00000000000E+00 0. -1.
        -14    1    4    4    0    0 -0.39574115814E+02  0.23783923013E+02  0.30673589153E+02  0.55431531711E+02  0.00000000000E+00 0.  1.
<mgrwt>
<rscale>  2 0.17908998E+03</rscale>
<asrwt>0</asrwt>
<pdfrwt beam="1">  1       21 0.16265797E+00 0.17935791E+03</pdfrwt>
<pdfrwt beam="2">  1       21 0.51605744E-02 0.17935791E+03</pdfrwt>
<totfact> 0.61828785E+04</totfact>
</mgrwt>
</event>
<event>
12    1  0.1029207E-001  0.2495820E+03  0.7546771E-02  0.1113789E+00
         21   -1    0    0  503  502  0.00000000000E+00  0.00000000000E+00  0.10061320902E+03  0.10061320902E+03  0.00000000000E+00 0. -1.
         21   -1    0    0  501  503 -0.00000000000E+00 -0.00000000000E+00 -0.61592419292E+03  0.61592419292E+03  0.00000000000E+00 0. -1.
          6    2    1    2  501    0 -0.15298296694E+03 -0.90906945102E+02 -0.25001382011E+03  0.35229328541E+03  0.17301961698E+03 0.  0.
         24    2    3    3    0    0 -0.14498851136E+03 -0.90663130983E+02 -0.12455930761E+03  0.22649624462E+03  0.80895339600E+02 0.  0.
         -6    2    1    2    0  502  0.15298296694E+03  0.90906945102E+02 -0.26529716379E+03  0.36424411653E+03  0.17499522985E+03 0.  0.
        -24    2    5    5    0    0  0.17255914797E+03  0.53543620870E+02 -0.17732146692E+03  0.26656577655E+03  0.83491506839E+02 0.  0.
          5    1    3    3  501    0 -0.79944555797E+01 -0.24381411918E+00 -0.12545451250E+03  0.12579704079E+03  0.47000000000E+01 0. -1.
        -13    1    4    4    0    0 -0.73655201398E+02 -0.87290488784E+02 -0.54853567696E+02  0.12670292820E+03  0.00000000000E+00 0.  1.
         14    1    4    4    0    0 -0.71333309967E+02 -0.33726421988E+01 -0.69705739911E+02  0.99793316423E+02  0.00000000000E+00 0. -1.
         -5    1    5    5    0  502 -0.19576181025E+02  0.37363324232E+02 -0.87975696869E+02  0.97678339978E+02  0.47000000000E+01 0.  1.
         11    1    6    6    0    0  0.17078079192E+03  0.51284086057E+02 -0.18585425433E+03  0.25756152706E+03  0.00000000000E+00 0. -1.
        -12    1    6    6    0    0  0.17783560479E+01  0.22595348128E+01  0.85327874106E+01  0.90042494855E+01  0.00000000000E+00 0.  1.
<mgrwt>
<rscale>  2 0.24923601E+03</rscale>
<asrwt>0</asrwt>
<pdfrwt beam="1">  1       21 0.15478956E-01 0.24958203E+03</pdfrwt>
<pdfrwt beam="2">  1       21 0.94757566E-01 0.24958203E+03</pdfrwt>
<totfact> 0.33540277E+04</totfact>
</mgrwt>
</event>
<event>
12    1  0.1029207E-001  0.3500010E+03  0.7546771E-02  0.1062830E+00
         21   -1    0    0  501  502  0.00000000000E+00  0.00000000000E+00  0.16159056115E+03  0.16159056115E+03  0.00000000000E+00 0.  1.
         21   -1    0    0  502  503 -0.00000000000E+00 -0.00000000000E+00 -0.89224515800E+03  0.89224515800E+03  0.00000000000E+00 0.  1.
         -6    2    1    2    0  503  0.13577582758E+03  0.27032215021E+03 -0.57213639052E+03  0.66961086364E+03  0.17184155232E+03 0.  0.
        -24    2    3    3    0    0  0.12358795797E+03  0.26003880521E+03 -0.57908590386E+03  0.65159206553E+03  0.79608870349E+02 0.  0.
          6    2    1    2  501    0 -0.13577582758E+03 -0.27032215021E+03 -0.15851820633E+03  0.38422485551E+03  0.17604424900E+03 0.  0.
         24    2    5    5    0    0 -0.69425148295E+02 -0.81435304632E+02 -0.90585825567E+01  0.13434303902E+03  0.80712044700E+02 0.  0.
          5    1    5    5  501    0 -0.66350679283E+02 -0.18888684558E+03 -0.14945962377E+03  0.24988181649E+03  0.47000000000E+01 0. -1.
        -11    1    6    6    0    0 -0.98025352782E+01 -0.20892279720E+02 -0.38100524809E+02  0.44544663434E+02  0.00000000000E+00 0.  1.
         12    1    6    6    0    0 -0.59622613017E+02 -0.60543024913E+02  0.29041942252E+02  0.89798375588E+02  0.00000000000E+00 0. -1.
         -5    1    3    3    0  503  0.12187869603E+02  0.10283344996E+02  0.69495133404E+01  0.18018798113E+02  0.47000000000E+01 0.  1.
         11    1    4    4    0    0  0.20510229046E+02  0.17302037950E+02 -0.11230844366E+03  0.11546954806E+03  0.00000000000E+00 0. -1.
        -12    1    4    4    0    0  0.10307772893E+03  0.24273676726E+03 -0.46677746020E+03  0.53612251746E+03  0.00000000000E+00 0.  1.
<mgrwt>
<rscale>  2 0.34947612E+03</rscale>
<asrwt>0</asrwt>
<pdfrwt beam="1">  1       21 0.24860087E-01 0.35000103E+03</pdfrwt>
<pdfrwt beam="2">  1       21 0.13726848E+00 0.35000103E+03</pdfrwt>
<totfact> 0.52376620E+03</totfact>
</mgrwt>
</event>
<event>
12    1  0.1029207E-001  0.2554652E+03  0.7546771E-02  0.1110011E+00
         21   -1    0    0  503  502  0.00000000000E+00  0.00000000000E+00  0.56765966019E+03  0.56765966019E+03  0.00000000000E+00 0.  1.
         21   -1    0    0  501  503 -0.00000000000E+00 -0.00000000000E+00 -0.11673444116E+03  0.11673444116E+03  0.00000000000E+00 0. -1.
          6    2    1    2  501    0 -0.15910058455E+03  0.98588512655E+02  0.17929976657E+03  0.31150957334E+03  0.17279212123E+03 0.  0.
         24    2    3    3    0    0 -0.17056968335E+03  0.10240416193E+03  0.11115494516E+03  0.24214166944E+03  0.81832371282E+02 0.  0.
         -6    2    1    2    0  502  0.15910058455E+03 -0.98588512655E+02  0.27162545247E+03  0.37288452802E+03  0.17386717336E+03 0.  0.
        -24    2    5    5    0    0  0.17787496063E+03 -0.10595478891E+03  0.20234745232E+03  0.30057774736E+03  0.80849068260E+02 0.  0.
          5    1    3    3  501    0  0.11469098793E+02 -0.38156492701E+01  0.68144821408E+02  0.69367903898E+02  0.47000000000E+01 0. -1.
        -11    1    4    4    0    0 -0.13009987924E+03  0.32110104217E+02  0.68364896247E+02  0.15043535625E+03  0.00000000000E+00 0.  1.
         12    1    4    4    0    0 -0.40469804110E+02  0.70294057708E+02  0.42790048911E+02  0.91706313194E+02  0.00000000000E+00 0. -1.
         -5    1    5    5    0  502 -0.18774376082E+02  0.73662762524E+01  0.69278000153E+02  0.72306780652E+02  0.47000000000E+01 0.  1.
         11    1    6    6    0    0  0.53098428061E+02 -0.77875022900E+02  0.90643785400E+02  0.13076795512E+03  0.00000000000E+00 0. -1.
        -12    1    6    6    0    0  0.12477653257E+03 -0.28079766008E+02  0.11170366692E+03  0.16980979225E+03  0.00000000000E+00 0.  1.
<mgrwt>
<rscale>  2 0.25528242E+03</rscale>
<asrwt>0</asrwt>
<pdfrwt beam="1">  1       21 0.87332254E-01 0.25546523E+03</pdfrwt>
<pdfrwt beam="2">  1       21 0.17959145E-01 0.25546523E+03</pdfrwt>
<totfact> 0.30759250E+04</totfact>
</mgrwt>
</event>
<event>
12    1  0.1029207E-001  0.1914550E+03  0.7546771E-02  0.1157375E+00
         21   -1    0    0  501  502  0.00000000000E+00  0.00000000000E+00  0.13636129636E+04  0.13636129636E+04  0.00000000000E+00 0. -1.
         21   -1    0    0  502  503 -0.00000000000E+00 -0.00000000000E+00 -0.27880241775E+02  0.27880241775E+02  0.00000000000E+00 0. -1.
         -6    2    1    2    0  503 -0.75976869677E+02 -0.26320031194E+02  0.80672748164E+03  0.82890849810E+03  0.17266974205E+03 0.  0.
        -24    2    3    3    0    0 -0.16298731451E+02 -0.21863126432E+02  0.17755888606E+03  0.19688274242E+03  0.80573018427E+02 0.  0.
          6    2    1    2  501    0  0.75976869677E+02  0.26320031194E+02  0.52900524017E+03  0.56258470726E+03  0.17375206458E+03 0.  0.
         24    2    5    5    0    0 -0.97391093959E+01 -0.21885160809E+02  0.16404654010E+03  0.18457953221E+03  0.81145091521E+02 0.  0.
          5    1    5    5  501    0  0.85715979073E+02  0.48205192003E+02  0.36495870007E+03  0.37800517504E+03  0.47000000000E+01 0. -1.
        -11    1    6    6    0    0  0.19698396342E+02 -0.35206500518E+02  0.41629882628E+02  0.57970437507E+02  0.00000000000E+00 0.  1.
         12    1    6    6    0    0 -0.29437505738E+02  0.13321339710E+02  0.12241665747E+03  0.12660909471E+03  0.00000000000E+00 0. -1.
         -5    1    3    3    0  503 -0.59678138226E+02 -0.44569047627E+01  0.62916859558E+03  0.63202575569E+03  0.47000000000E+01 0.  1.
         11    1    4    4    0    0 -0.43586111033E+02 -0.32139860396E+02  0.95344674101E+02  0.10965093060E+03  0.00000000000E+00 0. -1.
        -12    1    4    4    0    0  0.27287379582E+02  0.10276733965E+02  0.82214211960E+02  0.87231811822E+02  0.00000000000E+00 0.  1.
<mgrwt>
<rscale>  2 0.19120908E+03</rscale>
<asrwt>0</asrwt>
<pdfrwt beam="1">  1       21 0.20978656E+00 0.19145498E+03</pdfrwt>
<pdfrwt beam="2">  1       21 0.42892690E-02 0.19145498E+03</pdfrwt>
<totfact> 0.40599007E+04</totfact>
</mgrwt>
</event>
<event>
12    1  0.1029207E-001  0.2230143E+03  0.7546771E-02  0.1131666E+00
         21   -1    0    0  501  502  0.00000000000E+00  0.00000000000E+00  0.70264969384E+03  0.70264969384E+03  0.00000000000E+00 0.  1.
         21   -1    0    0  502  503 -0.00000000000E+00 -0.00000000000E+00 -0.73724167377E+02  0.73724167377E+02  0.00000000000E+00 0.  1.
         -6    2    1    2    0  503  0.11702879040E+03 -0.79002341527E+02  0.39228566121E+03  0.45124649351E+03  0.17262169668E+03 0.  0.
        -24    2    3    3    0    0  0.11436180017E+03 -0.10342236217E+03  0.23446560326E+03  0.29145691019E+03  0.78728679993E+02 0.  0.
          6    2    1    2  501    0 -0.11702879040E+03  0.79002341527E+02  0.23663986525E+03  0.32512736770E+03  0.17254643334E+03 0.  0.
         24    2    5    5    0    0 -0.16857003970E+02 -0.44853853199E+01  0.14245118056E+03  0.16419823531E+03  0.79777467816E+02 0.  0.
          5    1    5    5  501    0 -0.10017178643E+03  0.83487726846E+02  0.94188684685E+02  0.16092913239E+03  0.47000000000E+01 0. -1.
        -13    1    6    6    0    0 -0.21287014708E+02  0.34090301064E+02  0.51661715498E+02  0.65453941593E+02  0.00000000000E+00 0.  1.
         14    1    6    6    0    0  0.44300107385E+01 -0.38575686384E+02  0.90789465065E+02  0.98744293718E+02  0.00000000000E+00 0. -1.
         -5    1    3    3    0  503  0.26669902261E+01  0.24420020639E+02  0.15782005796E+03  0.15978958332E+03  0.47000000000E+01 0.  1.
         13    1    4    4    0    0  0.10271360457E+02  0.46213547598E+01  0.61360531313E+02  0.62385675988E+02  0.00000000000E+00 0. -1.
        -14    1    4    4    0    0  0.10409043971E+03 -0.10804371693E+03  0.17310507194E+03  0.22907123420E+03  0.00000000000E+00 0.  1.
<mgrwt>
<rscale>  2 0.22299969E+03</rscale>
<asrwt>0</asrwt>
<pdfrwt beam="1">  1       21 0.10809995E+00 0.22301425E+03</pdfrwt>
<pdfrwt beam="2">  1       21 0.11342180E-01 0.22301425E+03</pdfrwt>
<totfact> 0.43517486E+04</totfact>
</mgrwt>
</event>
<event>
12    1  0.1029207E-001  0.1856531E+03  0.7546771E-02  0.1162446E+00
         21   -1    0    0  503  502  0.00000000000E+00  0.00000000000E+00  0.12942194365E+03  0.12942194365E+03  0.00000000000E+00 0. -1.
         21   -1    0    0  501  503 -0.00000000000E+00 -0.00000000000E+00 -0.29588965939E+03  0.29588965939E+03  0.00000000000E+00 0.  1.
          6    2    1    2  501    0 -0.65671892308E+02  0.90786467170E+01 -0.15049190360E+03  0.23897243178E+03  0.17339201492E+03 0.  0.
         24    2    3    3    0    0 -0.35677183776E+02  0.54305117347E+02 -0.34058646390E+02  0.11042707181E+03  0.82536292518E+02 0.  0.
         -6    2    1    2    0  502  0.65671892308E+02 -0.90786467170E+01 -0.15975812141E+02  0.18633917125E+03  0.17341234357E+03 0.  0.
        -24    2    5    5    0    0  0.63945203282E+02  0.47251735858E+02 -0.46470831789E+02  0.12208864846E+03  0.80152257052E+02 0.  0.
          5    1    3    3  501    0 -0.29994708531E+02 -0.45226470630E+02 -0.11643325721E+03  0.12854535997E+03  0.47000000000E+01 0. -1.
        -11    1    4    4    0    0  0.57715937426E+01  0.28445316123E+01 -0.43239062783E+02  0.43715205647E+02  0.00000000000E+00 0.  1.
         12    1    4    4    0    0 -0.41448777519E+02  0.51460585735E+02  0.91804163927E+01  0.66711866164E+02  0.00000000000E+00 0. -1.
         -5    1    5    5    0  502  0.17266890257E+01 -0.56330382575E+02  0.30495019648E+02  0.64250522794E+02  0.47000000000E+01 0.  1.
         13    1    6    6    0    0 -0.17713191869E+02  0.20136948158E+02 -0.97157213463E+01  0.28524534854E+02  0.00000000000E+00 0. -1.
        -14    1    6    6    0    0  0.81658395151E+02  0.27114787700E+02 -0.36755110443E+02  0.93564113603E+02  0.00000000000E+00 0.  1.
<mgrwt>
<rscale>  2 0.18564832E+03</rscale>
<asrwt>0</asrwt>
<pdfrwt beam="1">  1       21 0.19911068E-01 0.18565306E+03</pdfrwt>
<pdfrwt beam="2">  1       21 0.45521486E-01 0.18565306E+03</pdfrwt>
<totfact> 0.10799173E+05</totfact>
</mgrwt>
</event>
<event>
12    1  0.1029207E-001  0.1739547E+03  0.7546771E-02  0.1174039E+00
         21   -1    0    0  503  502  0.00000000000E+00  0.00000000000E+00  0.30533709073E+02  0.30533709073E+02  0.00000000000E+00 0. -1.
         21   -1    0    0  501  503 -0.00000000000E+00 -0.00000000000E+00 -0.15654796779E+04  0.15654796779E+04  0.00000000000E+00 0. -1.
          6    2    1    2  501    0 -0.19870696507E+02  0.18179114627E+01 -0.12546486324E+04  0.12666504704E+04  0.17280646433E+03 0.  0.
         24    2    3    3    0    0 -0.63618606657E+01  0.41669527198E+02 -0.11529232746E+04  0.11564652702E+04  0.80018881557E+02 0.  0.
         -6    2    1    2    0  502  0.19870696507E+02 -0.18179114627E+01 -0.28029733645E+03  0.32936291655E+03  0.17179983876E+03 0.  0.
        -24    2    5    5    0    0  0.51571903095E+02  0.48102858390E+02 -0.22188490841E+03  0.24610937902E+03  0.79770719490E+02 0.  0.
          5    1    3    3  501    0 -0.13508835841E+02 -0.39851615735E+02 -0.10172535776E+03  0.11018520016E+03  0.47000000000E+01 0. -1.
        -13    1    4    4    0    0 -0.14548731805E+02  0.57211406114E+02 -0.10735321140E+04  0.10751539473E+04  0.00000000000E+00 0.  1.
         14    1    4    4    0    0  0.81868711394E+01 -0.15541878916E+02 -0.79391160560E+02  0.81311322916E+02  0.00000000000E+00 0. -1.
         -5    1    5    5    0  502 -0.31701206589E+02 -0.49920769853E+02 -0.58412428042E+02  0.83253537532E+02  0.47000000000E+01 0.  1.
         11    1    6    6    0    0  0.52442997692E+01  0.25472007155E+02 -0.97103032323E+01  0.27759967894E+02  0.00000000000E+00 0. -1.
        -12    1    6    6    0    0  0.46327603326E+02  0.22630851235E+02 -0.21217460518E+03  0.21834941113E+03  0.00000000000E+00 0.  1.
<mgrwt>
<rscale>  2 0.17370413E+03</rscale>
<asrwt>0</asrwt>
<pdfrwt beam="1">  1       21 0.46974923E-02 0.17395466E+03</pdfrwt>
<pdfrwt beam="2">  1       21 0.24084310E+00 0.17395466E+03</pdfrwt>
<totfact> 0.22883421E+04</totfact>
</mgrwt>
</event>
<event>
12    1  0.1029207E-001  0.1905705E+03  0.7546771E-02  0.1158358E+00
         21   -1    0    0  501  502  0.00000000000E+00  0.00000000000E+00  0.71876825278E+02  0.71876825278E+02  0.00000000000E+00 0.  1.
         21   -1    0    0  502  503 -0.00000000000E+00 -0.00000000000E+00 -0.85688761657E+03  0.85688761657E+03  0.00000000000E+00 0.  1.
         -6    2    1    2    0  503  0.78021612973E+02 -0.59217960727E+01 -0.69309877966E+03  0.71882059729E+03  0.17376620199E+03 0.  0.
        -24    2    3    3    0    0 -0.15596484193E+02 -0.38412301761E-01 -0.18754401729E+03  0.20461570614E+03  0.80321709288E+02 0.  0.
          6    2    1    2  501    0 -0.78021612973E+02  0.59217960727E+01 -0.91912011632E+02  0.20994384456E+03  0.17177357256E+03 0.  0.
         24    2    5    5    0    0 -0.37049200388E+02 -0.25285139297E+02  0.15053894942E+02  0.91131359626E+02  0.77886606267E+02 0.  0.
          5    1    5    5  501    0 -0.40972412585E+02  0.31206935370E+02 -0.10696590657E+03  0.11881248494E+03  0.47000000000E+01 0. -1.
        -11    1    6    6    0    0 -0.32183652042E+02  0.24088592165E+02  0.84808460145E+01  0.41084942258E+02  0.00000000000E+00 0.  1.
         12    1    6    6    0    0 -0.48655483461E+01 -0.49373731462E+02  0.65730489272E+01  0.50046417368E+02  0.00000000000E+00 0. -1.
         -5    1    3    3    0  503  0.93618097166E+02 -0.58833837709E+01 -0.50555476238E+03  0.51420489115E+03  0.47000000000E+01 0.  1.
         13    1    4    4    0    0 -0.12908343005E+02  0.38586070558E+02 -0.71292093462E+02  0.82085764603E+02  0.00000000000E+00 0. -1.
        -14    1    4    4    0    0 -0.26881411879E+01 -0.38624482860E+02 -0.11625192382E+03  0.12252994153E+03  0.00000000000E+00 0.  1.
<mgrwt>
<rscale>  2 0.19011513E+03</rscale>
<asrwt>0</asrwt>
<pdfrwt beam="1">  1       21 0.11057974E-01 0.19057055E+03</pdfrwt>
<pdfrwt beam="2">  1       21 0.13182886E+00 0.19057055E+03</pdfrwt>
<totfact> 0.28366203E+04</totfact>
</mgrwt>
</event>
<event>
12    1  0.1029207E-001  0.2512550E+03  0.7546771E-02  0.1112528E+00
         21   -1    0    0  503  502  0.00000000000E+00  0.00000000000E+00  0.69740775694E+03  0.69740775694E+03  0.00000000000E+00 0.  1.
         21   -1    0    0  501  503 -0.00000000000E+00 -0.00000000000E+00 -0.10380090229E+03  0.10380090229E+03  0.00000000000E+00 0.  1.
          6    2    1    2  501    0 -0.23452932225E+02 -0.18054480237E+03  0.15338470728E+03  0.29437383144E+03  0.17315489746E+03 0.  0.
         24    2    3    3    0    0  0.50727762866E+02 -0.75947498744E+02  0.87661749459E+02  0.15020390172E+03  0.80841210302E+02 0.  0.
         -6    2    1    2    0  502  0.23452932225E+02  0.18054480237E+03  0.44022214737E+03  0.50683482779E+03  0.17303045379E+03 0.  0.
        -24    2    5    5    0    0  0.34529764943E+02  0.19828771283E+03  0.33421875916E+03  0.39868532291E+03  0.82082190529E+02 0.  0.
          5    1    3    3  501    0 -0.74180695091E+02 -0.10459730363E+03  0.65722957825E+02  0.14416992972E+03  0.47000000000E+01 0. -1.
        -11    1    4    4    0    0 -0.12953755212E+02 -0.49079872248E+02  0.23655372912E+02  0.56001877661E+02  0.00000000000E+00 0.  1.
         12    1    4    4    0    0  0.63681518077E+02 -0.26867626495E+02  0.64006376547E+02  0.94202024059E+02  0.00000000000E+00 0. -1.
         -5    1    5    5    0  502 -0.11076832718E+02 -0.17742910465E+02  0.10600338820E+03  0.10814950488E+03  0.47000000000E+01 0.  1.
         13    1    6    6    0    0  0.53756428362E+02  0.13923743940E+03  0.18961386041E+03  0.24130941586E+03  0.00000000000E+00 0. -1.
        -14    1    6    6    0    0 -0.19226663419E+02  0.59050273433E+02  0.14460489875E+03  0.15737590705E+03  0.00000000000E+00 0.  1.
<mgrwt>
<rscale>  2 0.25123358E+03</rscale>
<asrwt>0</asrwt>
<pdfrwt beam="1">  1       21 0.10729350E+00 0.25125502E+03</pdfrwt>
<pdfrwt beam="2">  1       21 0.15969370E-01 0.25125502E+03</pdfrwt>
<totfact> 0.23499107E+04</totfact>
</mgrwt>
</event>
<event>
12    1  0.1029207E-001  0.1843025E+03  0.7546771E-02  0.1163712E+00
         21   -1    0    0  501  502  0.00000000000E+00  0.00000000000E+00  0.47353538848E+03  0.47353538848E+03  0.00000000000E+00 0. -1.
         21   -1    0    0  502  503 -0.00000000000E+00 -0.00000000000E+00 -0.73107129344E+02  0.73107129344E+02  0.00000000000E+00 0. -1.
         -6    2    1    2    0  503 -0.34969874350E+02  0.52355112296E+02  0.23788293298E+03  0.30090198049E+03  0.17317552414E+03 0.  0.
        -24    2    3    3    0    0 -0.81663914003E+02  0.27083752343E+02  0.10720004465E+03  0.15976700156E+03  0.81431693611E+02 0.  0.
          6    2    1    2  501    0  0.34969874350E+02 -0.52355112296E+02  0.16254532615E+03  0.24574053733E+03  0.17321512272E+03 0.  0.
         24    2    5    5    0    0 -0.22775404754E+02  0.13163826298E+02  0.35660520072E+02  0.91633131324E+02  0.80205689823E+02 0.  0.
          5    1    5    5  501    0  0.57745279104E+02 -0.65518938594E+02  0.12688480607E+03  0.15410740601E+03  0.47000000000E+01 0. -1.
        -11    1    6    6    0    0  0.10131396703E+02 -0.20243043946E+02 -0.11272886511E+02  0.25288416274E+02  0.00000000000E+00 0.  1.
         12    1    6    6    0    0 -0.32906801456E+02  0.33406870244E+02  0.46933406583E+02  0.66344715050E+02  0.00000000000E+00 0. -1.
         -5    1    3    3    0  503  0.46694039653E+02  0.25271359953E+02  0.13068288834E+03  0.14113497893E+03  0.47000000000E+01 0.  1.
         13    1    4    4    0    0 -0.30439398458E+02  0.51408454807E+02  0.69609126046E+02  0.91732309646E+02  0.00000000000E+00 0. -1.
        -14    1    4    4    0    0 -0.51224515545E+02 -0.24324702464E+02  0.37590918601E+02  0.68034691915E+02  0.00000000000E+00 0.  1.
<mgrwt>
<rscale>  2 0.18429324E+03</rscale>
<asrwt>0</asrwt>
<pdfrwt beam="1">  1       21 0.72851596E-01 0.18430255E+03</pdfrwt>
<pdfrwt beam="2">  1       21 0.11247251E-01 0.18430255E+03</pdfrwt>
<totfact> 0.11208799E+05</totfact>
</mgrwt>
</event>
<event>
12    1  0.1029207E-001  0.2448723E+03  0.7546771E-02  0.1116858E+00
         21   -1    0    0  503  502  0.00000000000E+00  0.00000000000E+00  0.27318538828E+03  0.27318538828E+03  0.00000000000E+00 0. -1.
         21   -1    0    0  501  503 -0.00000000000E+00 -0.00000000000E+00 -0.21817115964E+03  0.21817115964E+03  0.00000000000E+00 0.  1.
          6    2    1    2  501    0 -0.64542665115E+02 -0.16038791170E+03  0.20843946214E+02  0.24411163346E+03  0.17107303019E+03 0.  0.
         24    2    3    3    0    0 -0.60643505849E+02 -0.10970510816E+03  0.76593468138E+02  0.16852030319E+03  0.82581400251E+02 0.  0.
         -6    2    1    2    0  502  0.64542665115E+02  0.16038791170E+03  0.34170282423E+02  0.24724491447E+03  0.17341396048E+03 0.  0.
        -24    2    5    5    0    0  0.27941993200E+02  0.17653121644E+03  0.52501324254E+02  0.20299186296E+03  0.80655328518E+02 0.  0.
          5    1    3    3  501    0 -0.38991592664E+01 -0.50682803536E+02 -0.55749521923E+02  0.75591330270E+02  0.47000000000E+01 0. -1.
        -13    1    4    4    0    0 -0.55121088136E+02 -0.44935728216E+02  0.42225385798E+01  0.71241728359E+02  0.00000000000E+00 0.  1.
         14    1    4    4    0    0 -0.55224177129E+01 -0.64769379946E+02  0.72370929558E+02  0.97278574830E+02  0.00000000000E+00 0. -1.
         -5    1    5    5    0  502  0.36600671916E+02 -0.16143304745E+02 -0.18331041831E+02  0.44253051503E+02  0.47000000000E+01 0.  1.
         13    1    6    6    0    0  0.41143416554E+02  0.12224941720E+03  0.66896987225E+02  0.14530281357E+03  0.00000000000E+00 0. -1.
        -14    1    6    6    0    0 -0.13201423355E+02  0.54281799239E+02 -0.14395662972E+02  0.57689049391E+02  0.00000000000E+00 0.  1.
<mgrwt>
<rscale>  2 0.24445820E+03</rscale>
<asrwt>0</asrwt>
<pdfrwt beam="1">  1       21 0.42028521E-01 0.24487229E+03</pdfrwt>
<pdfrwt beam="2">  1       21 0.33564794E-01 0.24487229E+03</pdfrwt>
<totfact> 0.45480286E+04</totfact>
</mgrwt>
</event>
<event>
12    1  0.1029207E-001  0.1979334E+03  0.7546771E-02  0.1151519E+00
         21   -1    0    0  503  502  0.00000000000E+00  0.00000000000E+00  0.83661988246E+03  0.83661988246E+03  0.00000000000E+00 0. -1.
         21   -1    0    0  501  503 -0.00000000000E+00 -0.00000000000E+00 -0.97292301434E+02  0.97292301434E+02  0.00000000000E+00 0. -1.
          6    2    1    2  501    0 -0.63435837642E+02 -0.72668132274E+02  0.33325380871E+02  0.20071928533E+03  0.17283774920E+03 0.  0.
         24    2    3    3    0    0  0.64679557111E+01 -0.38133105232E+02  0.69995651046E+02  0.11442903598E+03  0.81845249980E+02 0.  0.
         -6    2    1    2    0  502  0.63435837642E+02  0.72668132274E+02  0.70600220016E+03  0.73319289857E+03  0.17270772113E+03 0.  0.
        -24    2    5    5    0    0 -0.87803665942E+01  0.85063035419E+02  0.52237827339E+03  0.53543382733E+03  0.80607121896E+02 0.  0.
          5    1    3    3  501    0 -0.69903793353E+02 -0.34535027042E+02 -0.36670270175E+02  0.86290249348E+02  0.47000000000E+01 0. -1.
        -13    1    4    4    0    0  0.38922243004E+02 -0.38799984417E+02  0.57787350608E+02  0.79748088889E+02  0.00000000000E+00 0.  1.
         14    1    4    4    0    0 -0.32454287293E+02  0.66687918472E+00  0.12208300438E+02  0.34680947091E+02  0.00000000000E+00 0. -1.
         -5    1    5    5    0  502  0.72216204236E+02 -0.12394903145E+02  0.18362392676E+03  0.19775907124E+03  0.47000000000E+01 0.  1.
         11    1    6    6    0    0  0.28024162640E+00 -0.98472855421E+01  0.17299863498E+03  0.17327889448E+03  0.00000000000E+00 0. -1.
        -12    1    6    6    0    0 -0.90606082206E+01  0.94910320961E+02  0.34937963842E+03  0.36215493285E+03  0.00000000000E+00 0.  1.
<mgrwt>
<rscale>  2 0.19790506E+03</rscale>
<asrwt>0</asrwt>
<pdfrwt beam="1">  1       21 0.12871075E+00 0.19793345E+03</pdfrwt>
<pdfrwt beam="2">  1       21 0.14968047E-01 0.19793345E+03</pdfrwt>
<totfact> 0.17394343E+04</totfact>
</mgrwt>
</event>
<event>
12    1  0.1029207E-001  0.2265621E+03  0.7546771E-02  0.1129486E+00
         21   -1    0    0  501  502  0.00000000000E+00  0.00000000000E+00  0.54703243280E+03  0.54703243280E+03  0.00000000000E+00 0.  1.
         21   -1    0    0  502  503 -0.00000000000E+00 -0.00000000000E+00 -0.14059552387E+03  0.14059552387E+03  0.00000000000E+00 0.  1.
         -6    2    1    2    0  503 -0.84872514209E+02  0.11476934915E+03  0.36577258193E+01  0.22659166556E+03  0.17594049213E+03 0.  0.
        -24    2    3    3    0    0 -0.51273566922E+02  0.11028080342E+03 -0.57325164252E+02  0.15666285045E+03  0.80412934205E+02 0.  0.
          6    2    1    2  501    0  0.84872514209E+02 -0.11476934915E+03  0.40277918311E+03  0.46103629111E+03  0.17305503230E+03 0.  0.
         24    2    5    5    0    0 -0.63922081359E+01 -0.55811380274E+02  0.15983574337E+03  0.19486173082E+03  0.96269718935E+02 0.  0.
          5    1    5    5  501    0  0.91264722345E+02 -0.58957968875E+02  0.24294343974E+03  0.26617456030E+03  0.47000000000E+01 0. -1.
        -13    1    6    6    0    0  0.41539221291E+01 -0.79343363965E+02  0.14438019076E+03  0.16479764549E+03  0.00000000000E+00 0.  1.
         14    1    6    6    0    0 -0.10546130265E+02  0.23531983691E+02  0.15455552611E+02  0.30064085326E+02  0.00000000000E+00 0. -1.
         -5    1    3    3    0  503 -0.33598947287E+02  0.44885457316E+01  0.60982890071E+02  0.69928815112E+02  0.47000000000E+01 0.  1.
         11    1    4    4    0    0  0.15727597175E+02  0.20950316679E+02  0.78769599147E+01  0.27355430527E+02  0.00000000000E+00 0. -1.
        -12    1    4    4    0    0 -0.67001164097E+02  0.89330486739E+02 -0.65202124167E+02  0.12930741992E+03  0.00000000000E+00 0.  1.
<mgrwt>
<rscale>  2 0.22600172E+03</rscale>
<asrwt>0</asrwt>
<pdfrwt beam="1">  1       21 0.84158834E-01 0.22656214E+03</pdfrwt>
<pdfrwt beam="2">  1       21 0.21630081E-01 0.22656214E+03</pdfrwt>
<totfact> 0.23967024E+04</totfact>
</mgrwt>
</event>
<event>
11    1  0.1029207E-001  0.2646666E+03  0.7546771E-02  0.1104660E+00
         21   -1    0    0  501  502  0.00000000000E+00  0.00000000000E+00  0.47685037569E+03  0.47685037569E+03  0.00000000000E+00 0.  1.
         21   -1    0    0  502  503 -0.00000000000E+00 -0.00000000000E+00 -0.16080175227E+03  0.16080175227E+03  0.00000000000E+00 0.  1.
         -6    2    1    2    0  503 -0.19878229055E+03 -0.13528191129E+02  0.61215013789E+02  0.27165365072E+03  0.17421543287E+03 0.  0.
        -24    2    3    3    0    0 -0.19376955618E+02 -0.19173060161E+02  0.14955308413E+02  0.86234695143E+02  0.80434375436E+02 0.  0.
          6    2    1    2  501    0  0.19878229055E+03  0.13528191129E+02  0.25483360963E+03  0.36599847724E+03  0.17122297087E+03 0.  0.
          5    1    5    5  501    0  0.46988504589E+02  0.75791164256E+02  0.13435980946E+03  0.16132844926E+03  0.47000000000E+01 0. -1.
        -13    1    5    5    0    0  0.77815134208E+02 -0.35448316578E+02  0.75291939035E+02  0.11393267461E+03  0.00000000000E+00 0.  1.
         14    1    5    5    0    0  0.73978651750E+02 -0.26814656549E+02  0.45181861136E+02  0.90737353368E+02  0.00000000000E+00 0. -1.
         -5    1    3    3    0  503 -0.17940533493E+03  0.56448690317E+01  0.46259705377E+02  0.18541895558E+03  0.47000000000E+01 0.  1.
         11    1    4    4    0    0  0.69928727257E+01 -0.18942752046E+02 -0.28784267255E+02  0.35160519983E+02  0.00000000000E+00 0. -1.
        -12    1    4    4    0    0 -0.26369828343E+02 -0.23030811422E+00  0.43739575668E+02  0.51074175160E+02  0.00000000000E+00 0.  1.
<mgrwt>
<rscale>  2 0.26417524E+03</rscale>
<asrwt>0</asrwt>
<pdfrwt beam="1">  1       21 0.73361596E-01 0.26466664E+03</pdfrwt>
<pdfrwt beam="2">  1       21 0.24738731E-01 0.26466664E+03</pdfrwt>
<totfact> 0.24877422E+04</totfact>
</mgrwt>
</event>
<event>
12    1  0.1029207E-001  0.3086000E+03  0.7546771E-02  0.1081290E+00
         21   -1    0    0  503  502  0.00000000000E+00  0.00000000000E+00  0.80075023522E+02  0.80075023522E+02  0.00000000000E+00 0. -1.
         21   -1    0    0  501  503 -0.00000000000E+00 -0.00000000000E+00 -0.17190460025E+04  0.17190460025E+04  0.00000000000E+00 0.  1.
          6    2    1    2  501    0 -0.25299734174E+03 -0.32932888179E+02 -0.13249421492E+04  0.13604064397E+04  0.17361380256E+03 0.  0.
         24    2    3    3    0    0 -0.90300141021E+02 -0.76392229224E+02 -0.59997039184E+03  0.61611803297E+03  0.75146998022E+02 0.  0.
         -6    2    1    2    0  502  0.25299734174E+03  0.32932888179E+02 -0.31402882971E+03  0.43871458624E+03  0.16959997712E+03 0.  0.
        -24    2    5    5    0    0  0.18726924155E+03  0.83175588128E+02 -0.25079312404E+03  0.33447756535E+03  0.83606838021E+02 0.  0.
          5    1    3    3  501    0 -0.16269720072E+03  0.43459341045E+02 -0.72497175739E+03  0.74428840678E+03  0.47000000000E+01 0. -1.
        -11    1    4    4    0    0 -0.40885198953E+02 -0.34270696025E+02 -0.44368727852E+03  0.44688307332E+03  0.00000000000E+00 0.  1.
         12    1    4    4    0    0 -0.49414942068E+02 -0.42121533199E+02 -0.15628311332E+03  0.16923495965E+03  0.00000000000E+00 0. -1.
         -5    1    5    5    0  502  0.65728100188E+02 -0.50242699949E+02 -0.63235705671E+02  0.10423702089E+03  0.47000000000E+01 0.  1.
         11    1    6    6    0    0  0.12294059654E+03  0.15375450781E+02 -0.11117703474E+03  0.16646659671E+03  0.00000000000E+00 0. -1.
        -12    1    6    6    0    0  0.64328645010E+02  0.67800137347E+02 -0.13961608930E+03  0.16801096865E+03  0.00000000000E+00 0.  1.
<mgrwt>
<rscale>  2 0.30803847E+03</rscale>
<asrwt>0</asrwt>
<pdfrwt beam="1">  1       21 0.12319234E-01 0.30860004E+03</pdfrwt>
<pdfrwt beam="2">  1       21 0.26446862E+00 0.30860004E+03</pdfrwt>
<totfact> 0.27622908E+03</totfact>
</mgrwt>
</event>
<event>
12    1  0.1029207E-001  0.2056437E+03  0.7546771E-02  0.1145216E+00
         21   -1    0    0  501  502  0.00000000000E+00  0.00000000000E+00  0.79349780163E+03  0.79349780163E+03  0.00000000000E+00 0.  1.
         21   -1    0    0  502  503 -0.00000000000E+00 -0.00000000000E+00 -0.64083509694E+02  0.64083509694E+02  0.00000000000E+00 0.  1.
         -6    2    1    2    0  503  0.10268778854E+03  0.42982421085E+02  0.18663873918E+03  0.27715505102E+03  0.17201346723E+03 0.  0.
        -24    2    3    3    0    0 -0.92454460636E+01  0.88070437639E+01  0.43396953317E+02  0.92121798225E+02  0.80250157996E+02 0.  0.
          6    2    1    2  501    0 -0.10268778854E+03 -0.42982421085E+02  0.54277555276E+03  0.58042626030E+03  0.17290769948E+03 0.  0.
         24    2    5    5    0    0 -0.12897655512E+03 -0.52635381158E+02  0.33533712676E+03  0.37105322128E+03  0.76315590306E+02 0.  0.
          5    1    5    5  501    0  0.26288766579E+02  0.96529600729E+01  0.20743842600E+03  0.20937303902E+03  0.47000000000E+01 0. -1.
        -11    1    6    6    0    0 -0.90799792103E+02 -0.68032883834E+02  0.27975529270E+03  0.30188756073E+03  0.00000000000E+00 0.  1.
         12    1    6    6    0    0 -0.38176763013E+02  0.15397502676E+02  0.55581834055E+02  0.69165660553E+02  0.00000000000E+00 0. -1.
         -5    1    3    3    0  503  0.11193323460E+03  0.34175377321E+02  0.14324178586E+03  0.18503325280E+03  0.47000000000E+01 0.  1.
         13    1    4    4    0    0  0.32389710097E+02 -0.87376726631E+01  0.73993708661E+01  0.34353907098E+02  0.00000000000E+00 0. -1.
        -14    1    4    4    0    0 -0.41635156160E+02  0.17544716427E+02  0.35997582451E+02  0.57767891127E+02  0.00000000000E+00 0.  1.
<mgrwt>
<rscale>  2 0.20545564E+03</rscale>
<asrwt>0</asrwt>
<pdfrwt beam="1">  1       21 0.12207658E+00 0.20564373E+03</pdfrwt>
<pdfrwt beam="2">  1       21 0.98590021E-02 0.20564373E+03</pdfrwt>
<totfact> 0.41805433E+04</totfact>
</mgrwt>
</event>
<event>
12    1  0.1029207E-001  0.1972981E+03  0.7546771E-02  0.1152480E+00
         21   -1    0    0  501  502  0.00000000000E+00  0.00000000000E+00  0.68554227529E+02  0.68554227529E+02  0.00000000000E+00 0. -1.
         21   -1    0    0  502  503 -0.00000000000E+00 -0.00000000000E+00 -0.71992742156E+03  0.71992742156E+03  0.00000000000E+00 0.  1.
         -6    2    1    2    0  503 -0.75553257329E+02  0.56438019081E+02 -0.51168500674E+03  0.54840502469E+03  0.17330026052E+03 0.  0.
        -24    2    3    3    0    0 -0.34375001980E+02 -0.53600554337E+01 -0.11153026778E+03  0.14139082858E+03  0.79636642442E+02 0.  0.
          6    2    1    2  501    0  0.75553257329E+02 -0.56438019081E+02 -0.13968818730E+03  0.24007662440E+03  0.17096915284E+03 0.  0.
         24    2    5    5    0    0  0.38142837286E+01 -0.24825495256E+02 -0.36221668322E+01  0.82971933443E+02  0.78995997821E+02 0.  0.
          5    1    5    5  501    0  0.71738973601E+02 -0.31612523825E+02 -0.13606602046E+03  0.15710469096E+03  0.47000000000E+01 0. -1.
        -11    1    6    6    0    0  0.27006172637E+02 -0.44793808730E+01 -0.31259285072E+02  0.41551668038E+02  0.00000000000E+00 0.  1.
         12    1    6    6    0    0 -0.23191888908E+02 -0.20346114383E+02  0.27637118240E+02  0.41420265405E+02  0.00000000000E+00 0. -1.
         -5    1    3    3    0  503 -0.41178255349E+02  0.61798074515E+02 -0.40015473895E+03  0.40701419611E+03  0.47000000000E+01 0.  1.
         11    1    4    4    0    0 -0.50343160764E+02 -0.28555571721E+02 -0.83999141788E+02  0.10200838364E+03  0.00000000000E+00 0. -1.
        -12    1    4    4    0    0  0.15968158784E+02  0.23195516288E+02 -0.27531125995E+02  0.39382444939E+02  0.00000000000E+00 0.  1.
<mgrwt>
<rscale>  2 0.19678497E+03</rscale>
<asrwt>0</asrwt>
<pdfrwt beam="1">  1       21 0.10546804E-01 0.19729806E+03</pdfrwt>
<pdfrwt beam="2">  1       21 0.11075807E+00 0.19729806E+03</pdfrwt>
<totfact> 0.47319449E+04</totfact>
</mgrwt>
</event>
<event>
12    1  0.1029207E-001  0.2175215E+03  0.7546771E-02  0.1136617E+00
         21   -1    0    0  503  502  0.00000000000E+00  0.00000000000E+00  0.24185974841E+03  0.24185974841E+03  0.00000000000E+00 0.  1.
         21   -1    0    0  501  503 -0.00000000000E+00 -0.00000000000E+00 -0.27709056040E+03  0.27709056040E+03  0.00000000000E+00 0.  1.
          6    2    1    2  501    0  0.76622877125E+02 -0.10698154007E+03 -0.16164856769E+03  0.26736126405E+03  0.16743855848E+03 0.  0.
         24    2    3    3    0    0  0.19480168562E+02 -0.77616647262E+02 -0.16758433147E+03  0.20267038863E+03  0.81160072523E+02 0.  0.
         -6    2    1    2    0  502 -0.76622877125E+02  0.10698154007E+03  0.12641775570E+03  0.25158904477E+03  0.17320358910E+03 0.  0.
        -24    2    5    5    0    0 -0.11467280919E+03  0.10957224470E+03  0.10047169961E+03  0.20522314235E+03  0.82861606068E+02 0.  0.
          5    1    3    3  501    0  0.57142708563E+02 -0.29364892806E+02  0.59357637832E+01  0.64690875424E+02  0.47000000000E+01 0. -1.
        -11    1    4    4    0    0  0.30532511172E+02 -0.90275560600E+02 -0.15381616964E+03  0.18094564135E+03  0.00000000000E+00 0.  1.
         12    1    4    4    0    0 -0.11052342609E+02  0.12658913338E+02 -0.13768161826E+02  0.21724747274E+02  0.00000000000E+00 0. -1.
         -5    1    5    5    0  502  0.38049932062E+02 -0.25907046273E+01  0.25946056090E+02  0.46365902418E+02  0.47000000000E+01 0.  1.
         13    1    6    6    0    0  0.11796697243E+02  0.56703167742E+00  0.44714580513E+01  0.12628441229E+02  0.00000000000E+00 0. -1.
        -14    1    6    6    0    0 -0.12646950643E+03  0.10900521302E+03  0.96000241555E+02  0.19259470112E+03  0.00000000000E+00 0.  1.
<mgrwt>
<rscale>  2 0.21637193E+03</rscale>
<asrwt>0</asrwt>
<pdfrwt beam="1">  1       21 0.37209192E-01 0.21752149E+03</pdfrwt>
<pdfrwt beam="2">  1       21 0.42629317E-01 0.21752149E+03</pdfrwt>
<totfact> 0.36406208E+04</totfact>
</mgrwt>
</event>
<event>
12    1  0.1029207E-001  0.1847146E+03  0.7546771E-02  0.1163632E+00
         21   -1    0    0  503  502  0.00000000000E+00  0.00000000000E+00  0.10887858434E+03  0.10887858434E+03  0.00000000000E+00 0.  1.
         21   -1    0    0  501  503 -0.00000000000E+00 -0.00000000000E+00 -0.37148403533E+03  0.37148403533E+03  0.00000000000E+00 0.  1.
          6    2    1    2  501    0  0.13358121577E+02  0.58584457043E+02 -0.22853670588E+03  0.29385117683E+03  0.17466799984E+03 0.  0.
         24    2    3    3    0    0  0.28743857464E+02  0.34044021793E+02 -0.37390789348E+02  0.10046605527E+03  0.81915519724E+02 0.  0.
         -6    2    1    2    0  502 -0.13358121577E+02 -0.58584457043E+02 -0.34068745107E+02  0.18651144284E+03  0.17324912957E+03 0.  0.
        -24    2    5    5    0    0  0.25324410925E+01 -0.65325166187E+02  0.32992451531E+02  0.11710509417E+03  0.91385505560E+02 0.  0.
          5    1    3    3  501    0 -0.15385735886E+02  0.24540435250E+02 -0.19114591653E+03  0.19338512156E+03  0.47000000000E+01 0. -1.
        -11    1    4    4    0    0 -0.24956501092E+02  0.23630473844E+02 -0.29313895211E+02  0.45172233655E+02  0.00000000000E+00 0.  1.
         12    1    4    4    0    0  0.53700358556E+02  0.10413547949E+02 -0.80768941368E+01  0.55293821615E+02  0.00000000000E+00 0. -1.
         -5    1    5    5    0  502 -0.15890562670E+02  0.67407091430E+01 -0.67061196638E+02  0.69406348674E+02  0.47000000000E+01 0.  1.
         13    1    6    6    0    0 -0.41835745217E+02 -0.32261847711E+02  0.31994500125E+02  0.61763293580E+02  0.00000000000E+00 0. -1.
        -14    1    6    6    0    0  0.44368186310E+02 -0.33063318476E+02  0.99795140600E+00  0.55341800586E+02  0.00000000000E+00 0.  1.
<mgrwt>
<rscale>  2 0.18437842E+03</rscale>
<asrwt>0</asrwt>
<pdfrwt beam="1">  1       21 0.16750552E-01 0.18471461E+03</pdfrwt>
<pdfrwt beam="2">  1       21 0.57151390E-01 0.18471461E+03</pdfrwt>
<totfact> 0.92456928E+04</totfact>
</mgrwt>
</event>
<event>
11    1  0.1029207E-001  0.1900371E+03  0.7546771E-02  0.1158632E+00
         21   -1    0    0  503  502  0.00000000000E+00  0.00000000000E+00  0.68732709698E+02  0.68732709698E+02  0.00000000000E+00 0.  1.
         21   -1    0    0  501  503 -0.00000000000E+00 -0.00000000000E+00 -0.57093066984E+03  0.57093066984E+03  0.00000000000E+00 0.  1.
          6    2    1    2  501    0 -0.42503195822E+02 -0.66393343137E+02 -0.34328590351E+03  0.39193944206E+03  0.17192067071E+03 0.  0.
         24    2    3    3    0    0 -0.77959695222E+02 -0.87418338140E+02 -0.31072022794E+03  0.33919641417E+03  0.69191527052E+02 0.  0.
         -6    2    1    2    0  502  0.42503195822E+02  0.66393343137E+02 -0.15891205663E+03  0.24772393748E+03  0.17291474718E+03 0.  0.
          5    1    3    3  501    0  0.35456499400E+02  0.21024995003E+02 -0.32565675579E+02  0.52743027885E+02  0.47000000000E+01 0. -1.
        -13    1    4    4    0    0 -0.18580483682E+02 -0.32122502960E+02 -0.19099768745E+03  0.19456928376E+03  0.00000000000E+00 0.  1.
         14    1    4    4    0    0 -0.59379211540E+02 -0.55295835180E+02 -0.11972254048E+03  0.14462713041E+03  0.00000000000E+00 0. -1.
         -5    1    5    5    0  502 -0.99835543534E+01 -0.23981288122E+01  0.33216893180E+02  0.35083819232E+02  0.47000000000E+01 0.  1.
         13    1    5    5    0    0 -0.82920721175E+00  0.13448118214E+02 -0.39909948811E+02  0.42122956712E+02  0.00000000000E+00 0. -1.
        -14    1    5    5    0    0  0.53315957388E+02  0.55343353735E+02 -0.15221900100E+03  0.17051716154E+03  0.00000000000E+00 0.  1.
<mgrwt>
<rscale>  2 0.18981070E+03</rscale>
<asrwt>0</asrwt>
<pdfrwt beam="1">  1       21 0.10574263E-01 0.19003712E+03</pdfrwt>
<pdfrwt beam="2">  1       21 0.87835487E-01 0.19003712E+03</pdfrwt>
<totfact> 0.81784673E+04</totfact>
</mgrwt>
</event>
<event>
12    1  0.1029207E-001  0.3084971E+03  0.7546771E-02  0.1081080E+00
         21   -1    0    0  501  502  0.00000000000E+00  0.00000000000E+00  0.25771533754E+03  0.25771533754E+03  0.00000000000E+00 0.  1.
         21   -1    0    0  502  503 -0.00000000000E+00 -0.00000000000E+00 -0.12853075319E+04  0.12853075319E+04  0.00000000000E+00 0.  1.
         -6    2    1    2    0  503 -0.16591417036E+03  0.19482019806E+03 -0.11651777689E+04  0.12053255555E+04  0.17230217727E+03 0.  0.
        -24    2    3    3    0    0 -0.17402811666E+03  0.21184922535E+03 -0.10355112762E+04  0.10742099073E+04  0.80482557964E+02 0.  0.
          6    2    1    2  501    0  0.16591417036E+03 -0.19482019806E+03  0.13758557446E+03  0.33769731395E+03  0.17212572164E+03 0.  0.
         24    2    5    5    0    0  0.11901680886E+03 -0.16668392959E+03  0.16600447752E+03  0.27588521020E+03  0.81281175382E+02 0.  0.
          5    1    5    5  501    0  0.46897361497E+02 -0.28136268473E+02 -0.28418903066E+02  0.61812103753E+02  0.47000000000E+01 0. -1.
        -13    1    6    6    0    0  0.12206414694E+03 -0.13898534806E+03  0.11513133377E+03  0.21788025831E+03  0.00000000000E+00 0.  1.
         14    1    6    6    0    0 -0.30473380830E+01 -0.27698581536E+02  0.50873143754E+02  0.58004951891E+02  0.00000000000E+00 0. -1.
         -5    1    3    3    0  503  0.81139462977E+01 -0.17029027285E+02 -0.12966649260E+03  0.13111564818E+03  0.47000000000E+01 0.  1.
         13    1    4    4    0    0 -0.67058041758E+02  0.27687528074E+02 -0.28138923891E+03  0.29059126612E+03  0.00000000000E+00 0. -1.
        -14    1    4    4    0    0 -0.10697007490E+03  0.18416169727E+03 -0.75412203734E+03  0.78361864122E+03  0.00000000000E+00 0.  1.
<mgrwt>
<rscale>  2 0.30847247E+03</rscale>
<asrwt>0</asrwt>
<pdfrwt beam="1">  1       21 0.39648514E-01 0.30849710E+03</pdfrwt>
<pdfrwt beam="2">  1       21 0.19773962E+00 0.30849710E+03</pdfrwt>
<totfact> 0.76639410E+02</totfact>
</mgrwt>
</event>
<event>
12    1  0.1029207E-001  0.1899817E+03  0.7546771E-02  0.1159210E+00
         21   -1    0    0  501  502  0.00000000000E+00  0.00000000000E+00  0.25680729937E+02  0.25680729937E+02  0.00000000000E+00 0. -1.
         21   -1    0    0  502  503 -0.00000000000E+00 -0.00000000000E+00 -0.19188607091E+04  0.19188607091E+04  0.00000000000E+00 0.  1.
         -6    2    1    2    0  503 -0.34678835216E+02 -0.71453894920E+02 -0.14551479982E+04  0.14670845828E+04  0.16903607826E+03 0.  0.
        -24    2    3    3    0    0 -0.52750942311E+02 -0.10117980348E+03 -0.13311028008E+04  0.13381678202E+04  0.76409646461E+02 0.  0.
          6    2    1    2  501    0  0.34678835216E+02  0.71453894920E+02 -0.43803198094E+03  0.47745685620E+03  0.17258259615E+03 0.  0.
         24    2    5    5    0    0 -0.34941364424E+02  0.78805742243E+02 -0.25958083184E+03  0.28570721612E+03  0.82553989146E+02 0.  0.
          5    1    5    5  501    0  0.69620199640E+02 -0.73518473234E+01 -0.17845114910E+03  0.19174964009E+03  0.47000000000E+01 0. -1.
        -13    1    6    6    0    0 -0.58308319809E+02  0.30766239468E+02 -0.14521477087E+03  0.15947962669E+03  0.00000000000E+00 0.  1.
         14    1    6    6    0    0  0.23366955385E+02  0.48039502775E+02 -0.11436606097E+03  0.12622758943E+03  0.00000000000E+00 0. -1.
         -5    1    3    3    0  503  0.18072107095E+02  0.29725908565E+02 -0.12404519744E+03  0.12891676269E+03  0.47000000000E+01 0.  1.
         13    1    4    4    0    0 -0.18761594913E+02 -0.20000311286E+02 -0.93466144112E+02  0.97406005925E+02  0.00000000000E+00 0. -1.
        -14    1    4    4    0    0 -0.33989347398E+02 -0.81179492199E+02 -0.12376366567E+04  0.12407618142E+04  0.00000000000E+00 0.  1.
<mgrwt>
<rscale>  2 0.18917255E+03</rscale>
<asrwt>0</asrwt>
<pdfrwt beam="1">  1       21 0.39508794E-02 0.18998167E+03</pdfrwt>
<pdfrwt beam="2">  1       21 0.29520950E+00 0.18998167E+03</pdfrwt>
<totfact> 0.14590921E+04</totfact>
</mgrwt>
</event>
<event>
12    1  0.1029207E-001  0.2154199E+03  0.7546771E-02  0.1137421E+00
         21   -1    0    0  503  502  0.00000000000E+00  0.00000000000E+00  0.39535054175E+03  0.39535054175E+03  0.00000000000E+00 0.  1.
         21   -1    0    0  501  503 -0.00000000000E+00 -0.00000000000E+00 -0.12484698302E+03  0.12484698302E+03  0.00000000000E+00 0. -1.
          6    2    1    2  501    0  0.70190107795E+02  0.10789720774E+03  0.70837400703E+02  0.22676788397E+03  0.17273470176E+03 0.  0.
         24    2    3    3    0    0 -0.26234850111E+02  0.40636729551E+02  0.51469541538E+02  0.10752465187E+03  0.81072966545E+02 0.  0.
         -6    2    1    2    0  502 -0.70190107795E+02 -0.10789720774E+03  0.19966615802E+03  0.29342964080E+03  0.17223797714E+03 0.  0.
        -24    2    5    5    0    0 -0.22395015961E+02 -0.50126953982E+02  0.20477723141E+02  0.99129979918E+02  0.79957285585E+02 0.  0.
          5    1    3    3  501    0  0.96424957906E+02  0.67260478191E+02  0.19367859165E+02  0.11924323210E+03  0.47000000000E+01 0. -1.
        -11    1    4    4    0    0 -0.25039659028E+01  0.62253322323E+02  0.34273943452E+02  0.71108713849E+02  0.00000000000E+00 0.  1.
         12    1    4    4    0    0 -0.23730884208E+02 -0.21616592772E+02  0.17195598086E+02  0.36415938020E+02  0.00000000000E+00 0. -1.
         -5    1    5    5    0  502 -0.47795091834E+02 -0.57770253760E+02  0.17918843488E+03  0.19429966088E+03  0.47000000000E+01 0.  1.
         13    1    6    6    0    0  0.11902139880E+02  0.13582445155E+02 -0.99714577385E+01  0.20629438178E+02  0.00000000000E+00 0. -1.
        -14    1    6    6    0    0 -0.34297155841E+02 -0.63709399138E+02  0.30449180879E+02  0.78500541740E+02  0.00000000000E+00 0.  1.
<mgrwt>
<rscale>  2 0.21532031E+03</rscale>
<asrwt>0</asrwt>
<pdfrwt beam="1">  1       21 0.60823160E-01 0.21541991E+03</pdfrwt>
<pdfrwt beam="2">  1       21 0.19207228E-01 0.21541991E+03</pdfrwt>
<totfact> 0.61987855E+04</totfact>
</mgrwt>
</event>
<event>
12    1  0.1029207E-001  0.1751038E+03  0.7546771E-02  0.1173193E+00
         21   -1    0    0  501  502  0.00000000000E+00  0.00000000000E+00  0.28137302164E+03  0.28137302164E+03  0.00000000000E+00 0.  1.
         21   -1    0    0  502  503 -0.00000000000E+00 -0.00000000000E+00 -0.64644110834E+03  0.64644110834E+03  0.00000000000E+00 0.  1.
         -6    2    1    2    0  503  0.16628105796E+01  0.84280461477E+01 -0.60588684534E+03  0.63006421967E+03  0.17265067231E+03 0.  0.
        -24    2    3    3    0    0 -0.21976158784E+02 -0.51473640171E+02 -0.45519615957E+03  0.46612281040E+03  0.83273306032E+02 0.  0.
          6    2    1    2  501    0 -0.16628105796E+01 -0.84280461477E+01  0.24081875863E+03  0.29774991032E+03  0.17489293206E+03 0.  0.
         24    2    5    5    0    0  0.22821236434E+02  0.57785337715E+02  0.12104075304E+03  0.15863649836E+03  0.81576471056E+02 0.  0.
          5    1    5    5  501    0 -0.24484047013E+02 -0.66213383863E+02  0.11977800560E+03  0.13911341195E+03  0.47000000000E+01 0. -1.
        -13    1    6    6    0    0  0.33888010754E+02  0.23457384702E+02  0.11487606885E+03  0.12204571833E+03  0.00000000000E+00 0.  1.
         14    1    6    6    0    0 -0.11066774321E+02  0.34327953013E+02  0.61646841892E+01  0.36590780029E+02  0.00000000000E+00 0. -1.
         -5    1    3    3    0  503  0.23638969364E+02  0.59901686318E+02 -0.15069068577E+03  0.16394140927E+03  0.47000000000E+01 0.  1.
         11    1    4    4    0    0 -0.31168586032E+02 -0.42065050645E+02 -0.12315439118E+03  0.13382060121E+03  0.00000000000E+00 0. -1.
        -12    1    4    4    0    0  0.91924272478E+01 -0.94085895261E+01 -0.33204176839E+03  0.33230220919E+03  0.00000000000E+00 0.  1.
<mgrwt>
<rscale>  2 0.17454120E+03</rscale>
<asrwt>0</asrwt>
<pdfrwt beam="1">  1       21 0.43288158E-01 0.17510378E+03</pdfrwt>
<pdfrwt beam="2">  1       21 0.99452477E-01 0.17510378E+03</pdfrwt>
<totfact> 0.43299926E+03</totfact>
</mgrwt>
</event>
<event>
12    1  0.1029207E-001  0.1783882E+03  0.7546771E-02  0.1169706E+00
         21   -1    0    0  501  502  0.00000000000E+00  0.00000000000E+00  0.26243570298E+02  0.26243570298E+02  0.00000000000E+00 0. -1.
         21   -1    0    0  502  503 -0.00000000000E+00 -0.00000000000E+00 -0.14119227820E+04  0.14119227820E+04  0.00000000000E+00 0. -1.
         -6    2    1    2    0  503 -0.31763467512E+02  0.27056495821E+02 -0.97145159917E+03  0.98769456408E+03  0.17343981828E+03 0.  0.
        -24    2    3    3    0    0  0.43956934922E+02  0.36466019114E+02 -0.46651386387E+03  0.47700255808E+03  0.81451043894E+02 0.  0.
          6    2    1    2  501    0  0.31763467512E+02 -0.27056495821E+02 -0.41422761250E+03  0.45047178817E+03  0.17204460222E+03 0.  0.
         24    2    5    5    0    0  0.18303512915E+02  0.51695868916E+02 -0.24872849930E+03  0.26663721091E+03  0.78880000184E+02 0.  0.
          5    1    5    5  501    0  0.13459954596E+02 -0.78752364737E+02 -0.16549911320E+03  0.18383457727E+03  0.47000000000E+01 0. -1.
        -11    1    6    6    0    0  0.78944964013E+01  0.12191601110E+02 -0.20948951538E+03  0.20999241716E+03  0.00000000000E+00 0.  1.
         12    1    6    6    0    0  0.10409016514E+02  0.39504267806E+02 -0.39238983922E+02  0.56644793749E+02  0.00000000000E+00 0. -1.
         -5    1    3    3    0  503 -0.75720402434E+02 -0.94095232933E+01 -0.50493773530E+03  0.51069200601E+03  0.47000000000E+01 0.  1.
         11    1    4    4    0    0  0.19454732113E+02 -0.23806346456E+02 -0.21602857025E+03  0.21820534342E+03  0.00000000000E+00 0. -1.
        -12    1    4    4    0    0  0.24502202809E+02  0.60272365570E+02 -0.25048529362E+03  0.25879721465E+03  0.00000000000E+00 0.  1.
<mgrwt>
<rscale>  2 0.17804815E+03</rscale>
<asrwt>0</asrwt>
<pdfrwt beam="1">  1       21 0.40374722E-02 0.17838818E+03</pdfrwt>
<pdfrwt beam="2">  1       21 0.21721890E+00 0.17838818E+03</pdfrwt>
<totfact> 0.40788827E+04</totfact>
</mgrwt>
</event>
<event>
12    1  0.1029207E-001  0.2014280E+03  0.7546771E-02  0.1148804E+00
         21   -1    0    0  503  502  0.00000000000E+00  0.00000000000E+00  0.18344460883E+03  0.18344460883E+03  0.00000000000E+00 0.  1.
         21   -1    0    0  501  503 -0.00000000000E+00 -0.00000000000E+00 -0.30774635579E+03  0.30774635579E+03  0.00000000000E+00 0. -1.
          6    2    1    2  501    0 -0.70153499827E+02 -0.71705380619E+02 -0.19330675228E+03  0.27827099520E+03  0.17321683274E+03 0.  0.
         24    2    3    3    0    0 -0.75663899157E+02 -0.23735698146E+02 -0.43248201066E+02  0.12056521303E+03  0.79857089199E+02 0.  0.
         -6    2    1    2    0  502  0.70153499827E+02  0.71705380619E+02  0.69005005317E+02  0.21291996942E+03  0.17467125543E+03 0.  0.
        -24    2    5    5    0    0 -0.10980429798E+02 -0.12116954904E+02  0.43481480893E+02  0.93410811748E+02  0.81040422852E+02 0.  0.
          5    1    3    3  501    0  0.55103993306E+01 -0.47969682473E+02 -0.15005855121E+03  0.15770578217E+03  0.47000000000E+01 0. -1.
        -11    1    4    4    0    0 -0.81314289474E+02 -0.42603036869E+02 -0.41649043242E+02  0.10080513492E+03  0.00000000000E+00 0.  1.
         12    1    4    4    0    0  0.56503903164E+01  0.18867338723E+02 -0.15991578239E+01  0.19760078111E+02  0.00000000000E+00 0. -1.
         -5    1    5    5    0  502  0.81133929625E+02  0.83822335523E+02  0.25523524424E+02  0.11950915767E+03  0.47000000000E+01 0.  1.
         11    1    6    6    0    0 -0.26585868931E+02 -0.24935620221E+02 -0.86861673823E+01  0.37470562932E+02  0.00000000000E+00 0. -1.
        -12    1    6    6    0    0  0.15605439134E+02  0.12818665316E+02  0.52167648275E+02  0.55940248816E+02  0.00000000000E+00 0.  1.
<mgrwt>
<rscale>  2 0.20111224E+03</rscale>
<asrwt>0</asrwt>
<pdfrwt beam="1">  1       21 0.28222248E-01 0.20142796E+03</pdfrwt>
<pdfrwt beam="2">  1       21 0.47345593E-01 0.20142796E+03</pdfrwt>
<totfact> 0.50985842E+04</totfact>
</mgrwt>
</event>
<event>
12    1  0.1029207E-001  0.1949062E+03  0.7546771E-02  0.1154323E+00
         21   -1    0    0  503  502  0.00000000000E+00  0.00000000000E+00  0.55063859012E+03  0.55063859012E+03  0.00000000000E+00 0.  1.
         21   -1    0    0  501  503 -0.00000000000E+00 -0.00000000000E+00 -0.68885583033E+02  0.68885583033E+02  0.00000000000E+00 0.  1.
          6    2    1    2  501    0 -0.22325808660E+00  0.87097899138E+02  0.25983929195E+03  0.32481512794E+03  0.17436259869E+03 0.  0.
         24    2    3    3    0    0  0.59133579451E+02  0.41715800593E+02  0.94042250501E+02  0.14289888902E+03  0.79618838010E+02 0.  0.
         -6    2    1    2    0  502  0.22325808660E+00 -0.87097899138E+02  0.22191371513E+03  0.29470904521E+03  0.17326751133E+03 0.  0.
        -24    2    5    5    0    0  0.58090754117E+02 -0.33286167607E+02  0.83462586692E+02  0.13522501932E+03  0.82687954407E+02 0.  0.
          5    1    3    3  501    0 -0.59356837537E+02  0.45382098545E+02  0.16579704145E+03  0.18191623892E+03  0.47000000000E+01 0. -1.
        -11    1    4    4    0    0  0.59980002335E+02  0.62594565659E+02  0.76235898302E+02  0.11544519271E+03  0.00000000000E+00 0.  1.
         12    1    4    4    0    0 -0.84642288431E+00 -0.20878765066E+02  0.17806352199E+02  0.27453696309E+02  0.00000000000E+00 0. -1.
         -5    1    5    5    0  502 -0.57867496031E+02 -0.53811731531E+02  0.13845112844E+03  0.15948402589E+03  0.47000000000E+01 0.  1.
         13    1    6    6    0    0  0.28686914689E+02 -0.56486645697E+02  0.72326630070E+02  0.96149995496E+02  0.00000000000E+00 0. -1.
        -14    1    6    6    0    0  0.29403839428E+02  0.23200478090E+02  0.11135956622E+02  0.39075023821E+02  0.00000000000E+00 0.  1.
<mgrwt>
<rscale>  2 0.19466093E+03</rscale>
<asrwt>0</asrwt>
<pdfrwt beam="1">  1       21 0.84713626E-01 0.19490616E+03</pdfrwt>
<pdfrwt beam="2">  1       21 0.10597782E-01 0.19490616E+03</pdfrwt>
<totfact> 0.88333098E+04</totfact>
</mgrwt>
</event>
<event>
12    1  0.1029207E-001  0.1799324E+03  0.7546771E-02  0.1168158E+00
         21   -1    0    0  503  502  0.00000000000E+00  0.00000000000E+00  0.67124175972E+03  0.67124175972E+03  0.00000000000E+00 0.  1.
         21   -1    0    0  501  503 -0.00000000000E+00 -0.00000000000E+00 -0.10966503389E+03  0.10966503389E+03  0.00000000000E+00 0.  1.
          6    2    1    2  501    0  0.37627588055E+02  0.26374068633E+02 -0.12611863703E+02  0.17918576986E+03  0.17273405610E+03 0.  0.
         24    2    3    3    0    0  0.23919058221E+02  0.83521336824E+02 -0.16574559786E+02  0.12009662524E+03  0.81243758596E+02 0.  0.
         -6    2    1    2    0  502 -0.37627588055E+02 -0.26374068633E+02  0.57418858953E+03  0.60172102375E+03  0.17396616682E+03 0.  0.
        -24    2    5    5    0    0 -0.41624867049E+01 -0.26601255032E+02  0.13048125135E+03  0.15672860070E+03  0.82544195784E+02 0.  0.
          5    1    3    3  501    0  0.13708529834E+02 -0.57147268191E+02  0.39626960832E+01  0.59089144622E+02  0.47000000000E+01 0. -1.
        -13    1    4    4    0    0  0.23948795940E+02 -0.28736168311E+00 -0.26479992430E+02  0.35704585179E+02  0.00000000000E+00 0.  1.
         14    1    4    4    0    0 -0.29737718015E-01  0.83808698507E+02  0.99054326439E+01  0.84392040061E+02  0.00000000000E+00 0. -1.
         -5    1    5    5    0  502 -0.33465101350E+02  0.22718639947E+00  0.44370733817E+03  0.44499242305E+03  0.47000000000E+01 0.  1.
         11    1    6    6    0    0  0.11226462747E+02 -0.25432232361E+02  0.13713331596E+03  0.13992275818E+03  0.00000000000E+00 0. -1.
        -12    1    6    6    0    0 -0.15388949452E+02 -0.11690226715E+01 -0.66520646117E+01  0.16805842521E+02  0.00000000000E+00 0.  1.
<mgrwt>
<rscale>  2 0.17963387E+03</rscale>
<asrwt>0</asrwt>
<pdfrwt beam="1">  1       21 0.10326796E+00 0.17993236E+03</pdfrwt>
<pdfrwt beam="2">  1       21 0.16871544E-01 0.17993236E+03</pdfrwt>
<totfact> 0.24236716E+04</totfact>
</mgrwt>
</event>
<event>
12    1  0.1029207E-001  0.3797727E+03  0.7546771E-02  0.1051322E+00
         21   -1    0    0  503  502  0.00000000000E+00  0.00000000000E+00  0.80418545719E+03  0.80418545719E+03  0.00000000000E+00 0. -1.
         21   -1    0    0  501  503 -0.00000000000E+00 -0.00000000000E+00 -0.20124850788E+03  0.20124850788E+03  0.00000000000E+00 0. -1.
          6    2    1    2  501    0  0.30136132466E+03  0.14835679333E+03  0.13103645067E+03  0.40174356003E+03  0.17719749010E+03 0.  0.
         24    2    3    3    0    0  0.18891811167E+03  0.51089483933E+02  0.13987756221E+02  0.21246362846E+03  0.81516549285E+02 0.  0.
         -6    2    1    2    0  502 -0.30136132466E+03 -0.14835679333E+03  0.47190049864E+03  0.60369040504E+03  0.17006951047E+03 0.  0.
        -24    2    5    5    0    0 -0.27968287201E+03 -0.16609023225E+03  0.37600243055E+03  0.50367560799E+03  0.80640040658E+02 0.  0.
          5    1    3    3  501    0  0.11244321298E+03  0.97267309396E+02  0.11704869445E+03  0.18927993157E+03  0.47000000000E+01 0. -1.
        -13    1    4    4    0    0  0.75164646889E+02 -0.10803843793E+02 -0.20097405547E+02  0.78551593825E+02  0.00000000000E+00 0.  1.
         14    1    4    4    0    0  0.11375346479E+03  0.61893327726E+02  0.34085161767E+02  0.13391203464E+03  0.00000000000E+00 0. -1.
         -5    1    5    5    0  502 -0.21678452645E+02  0.17733438921E+02  0.95898068091E+02  0.10001479705E+03  0.47000000000E+01 0.  1.
         13    1    6    6    0    0 -0.14581974841E+03 -0.43826292879E+02  0.19605264364E+03  0.24823533603E+03  0.00000000000E+00 0. -1.
        -14    1    6    6    0    0 -0.13386312360E+03 -0.12226393937E+03  0.17994978691E+03  0.25544027196E+03  0.00000000000E+00 0.  1.
<mgrwt>
<rscale>  2 0.37895182E+03</rscale>
<asrwt>0</asrwt>
<pdfrwt beam="1">  1       21 0.12372084E+00 0.37977274E+03</pdfrwt>
<pdfrwt beam="2">  1       21 0.30961309E-01 0.37977274E+03</pdfrwt>
<totfact> 0.43967707E+03</totfact>
</mgrwt>
</event>
<event>
12    1  0.1029207E-001  0.2598003E+03  0.7546771E-02  0.1107306E+00
         21   -1    0    0  503  502  0.00000000000E+00  0.00000000000E+00  0.13821203935E+03  0.13821203935E+03  0.00000000000E+00 0.  1.
         21   -1    0    0  501  503 -0.00000000000E+00 -0.00000000000E+00 -0.55236101740E+03  0.55236101740E+03  0.00000000000E+00 0.  1.
          6    2    1    2  501    0 -0.19177347898E+03  0.36806593034E+02 -0.32500604564E+03  0.41590476646E+03  0.17092703860E+03 0.  0.
         24    2    3    3    0    0 -0.85379364276E+02  0.26750822421E+02 -0.67918315204E+02  0.13745007120E+03  0.79210997903E+02 0.  0.
         -6    2    1    2    0  502  0.19177347898E+03 -0.36806593034E+02 -0.89142932404E+02  0.27466829029E+03  0.17136048191E+03 0.  0.
        -24    2    5    5    0    0  0.93546706699E+02 -0.66227725934E+02  0.48537671996E+00  0.13839861042E+03  0.77568303834E+02 0.  0.
          5    1    3    3  501    0 -0.10639411470E+03  0.10055770613E+02 -0.25708773044E+03  0.27845469525E+03  0.47000000000E+01 0. -1.
        -11    1    4    4    0    0 -0.20900059590E+02 -0.27939465507E+02 -0.17935193400E+02  0.39231331687E+02  0.00000000000E+00 0.  1.
         12    1    4    4    0    0 -0.64479304687E+02  0.54690287928E+02 -0.49983121803E+02  0.98218739514E+02  0.00000000000E+00 0. -1.
         -5    1    5    5    0  502  0.98226772282E+02  0.29421132900E+02 -0.89628309124E+02  0.13626967986E+03  0.47000000000E+01 0.  1.
         13    1    6    6    0    0 -0.10054312005E+02 -0.23893298248E+02  0.49580784502E+01  0.26392450302E+02  0.00000000000E+00 0. -1.
        -14    1    6    6    0    0  0.10360101870E+03 -0.42334427687E+02 -0.44727017302E+01  0.11200616012E+03  0.00000000000E+00 0.  1.
<mgrwt>
<rscale>  2 0.25972887E+03</rscale>
<asrwt>0</asrwt>
<pdfrwt beam="1">  1       21 0.21263391E-01 0.25980032E+03</pdfrwt>
<pdfrwt beam="2">  1       21 0.84978617E-01 0.25980032E+03</pdfrwt>
<totfact> 0.23820017E+04</totfact>
</mgrwt>
</event>
<event>
12    1  0.1029207E-001  0.3063217E+03  0.7546771E-02  0.1082148E+00
         21   -1    0    0  501  502  0.00000000000E+00  0.00000000000E+00  0.17594363608E+04  0.17594363608E+04  0.00000000000E+00 0. -1.
         21   -1    0    0  502  503 -0.00000000000E+00 -0.00000000000E+00 -0.21186599319E+03  0.21186599319E+03  0.00000000000E+00 0.  1.
         -6    2    1    2    0  503  0.46506771053E+02 -0.24842015356E+03 -0.79000921992E+02  0.31613857505E+03  0.17270495220E+03 0.  0.
        -24    2    3    3    0    0  0.75770707775E+02 -0.23764111376E+03 -0.97374933009E+02  0.27963843845E+03  0.80630512680E+02 0.  0.
          6    2    1    2  501    0 -0.46506771053E+02  0.24842015356E+03  0.16265712896E+04  0.16551637789E+04  0.17308241526E+03 0.  0.
         24    2    5    5    0    0 -0.78723621685E+02  0.17593314796E+03  0.86523928183E+03  0.88969607386E+03  0.75961884246E+02 0.  0.
          5    1    5    5  501    0  0.32216850632E+02  0.72487005599E+02  0.76133200774E+03  0.76546770504E+03  0.47000000000E+01 0. -1.
        -13    1    6    6    0    0 -0.34726800852E+02  0.11049965920E+02  0.16170036444E+03  0.16575602645E+03  0.00000000000E+00 0.  1.
         14    1    6    6    0    0 -0.43996820833E+02  0.16488318204E+03  0.70353891739E+03  0.72394004741E+03  0.00000000000E+00 0. -1.
         -5    1    3    3    0  503 -0.29263936721E+02 -0.10779039800E+02  0.18374011018E+02  0.36500136607E+02  0.47000000000E+01 0.  1.
         13    1    4    4    0    0 -0.18308515645E+01 -0.43163412523E+01 -0.21941507858E+02  0.22436857765E+02  0.00000000000E+00 0. -1.
        -14    1    4    4    0    0  0.77601559339E+02 -0.23332477250E+03 -0.75433425151E+02  0.25720158068E+03  0.00000000000E+00 0.  1.
<mgrwt>
<rscale>  2 0.30626839E+03</rscale>
<asrwt>0</asrwt>
<pdfrwt beam="1">  1       21 0.27068251E+00 0.30632169E+03</pdfrwt>
<pdfrwt beam="2">  1       21 0.32594769E-01 0.30632169E+03</pdfrwt>
<totfact> 0.40314356E+02</totfact>
</mgrwt>
</event>
<event>
12    1  0.1029207E-001  0.2383216E+03  0.7546771E-02  0.1121372E+00
         21   -1    0    0  501  502  0.00000000000E+00  0.00000000000E+00  0.34085762946E+03  0.34085762946E+03  0.00000000000E+00 0. -1.
         21   -1    0    0  502  503 -0.00000000000E+00 -0.00000000000E+00 -0.23553749554E+03  0.23553749554E+03  0.00000000000E+00 0.  1.
         -6    2    1    2    0  503 -0.10500538866E+03 -0.12302284058E+03  0.21044008965E+03  0.31591976957E+03  0.17134619493E+03 0.  0.
        -24    2    3    3    0    0 -0.96423173763E+02 -0.15612343251E+03  0.18579316595E+03  0.27350674742E+03  0.81331947941E+02 0.  0.
          6    2    1    2  501    0  0.10500538866E+03  0.12302284058E+03 -0.10511995573E+03  0.26047535544E+03  0.17503272479E+03 0.  0.
         24    2    5    5    0    0  0.56195374684E+02  0.13161772915E+03 -0.12768051593E+03  0.20581862255E+03  0.74684968213E+02 0.  0.
          5    1    5    5  501    0  0.48810013974E+02 -0.85948885742E+01  0.22560560198E+02  0.54656732890E+02  0.47000000000E+01 0. -1.
        -11    1    6    6    0    0  0.60741624619E+02  0.10556489470E+03 -0.13134105019E+03  0.17911996935E+03  0.00000000000E+00 0.  1.
         12    1    6    6    0    0 -0.45462499351E+01  0.26052834452E+02  0.36605342649E+01  0.26698653198E+02  0.00000000000E+00 0. -1.
         -5    1    3    3    0  503 -0.85822148947E+01  0.33100591935E+02  0.24646923707E+02  0.42413022142E+02  0.47000000000E+01 0.  1.
         13    1    4    4    0    0 -0.69908843732E+02 -0.54828972333E+02  0.12191303058E+03  0.15085174730E+03  0.00000000000E+00 0. -1.
        -14    1    4    4    0    0 -0.26514330031E+02 -0.10129446018E+03  0.63880135365E+02  0.12265500012E+03  0.00000000000E+00 0.  1.
<mgrwt>
<rscale>  2 0.23764521E+03</rscale>
<asrwt>0</asrwt>
<pdfrwt beam="1">  1       21 0.52439635E-01 0.23832164E+03</pdfrwt>
<pdfrwt beam="2">  1       21 0.36236538E-01 0.23832164E+03</pdfrwt>
<totfact> 0.24717395E+04</totfact>
</mgrwt>
</event>
<event>
12    1  0.1029207E-001  0.2002226E+03  0.7546771E-02  0.1149779E+00
         21   -1    0    0  503  502  0.00000000000E+00  0.00000000000E+00  0.27678883242E+02  0.27678883242E+02  0.00000000000E+00 0.  1.
         21   -1    0    0  501  503 -0.00000000000E+00 -0.00000000000E+00 -0.19842705798E+04  0.19842705798E+04  0.00000000000E+00 0.  1.
          6    2    1    2  501    0  0.97605613217E+02  0.15699887090E+02 -0.15029591775E+04  0.15160950942E+04  0.17287192673E+03 0.  0.
         24    2    3    3    0    0  0.13428406195E+03  0.28068487110E+02 -0.11140829261E+04  0.11252688926E+04  0.78925694631E+02 0.  0.
         -6    2    1    2    0  502 -0.97605613217E+02 -0.15699887090E+02 -0.45363251899E+03  0.49585436883E+03  0.17411418846E+03 0.  0.
        -24    2    5    5    0    0 -0.12059922056E+02  0.43534378752E+02 -0.16960186779E+03  0.19332790000E+03  0.81056767184E+02 0.  0.
          5    1    3    3  501    0 -0.36678448733E+02 -0.12368600020E+02 -0.38887625143E+03  0.39082620152E+03  0.47000000000E+01 0. -1.
        -11    1    4    4    0    0  0.42033811996E+02 -0.19502395985E+02 -0.53116800165E+03  0.53318536249E+03  0.00000000000E+00 0.  1.
         12    1    4    4    0    0  0.92250249953E+02  0.47570883095E+02 -0.58291492444E+03  0.59208353015E+03  0.00000000000E+00 0. -1.
         -5    1    5    5    0  502 -0.85545691161E+02 -0.59234265842E+02 -0.28403065120E+03  0.30252646884E+03  0.47000000000E+01 0.  1.
         13    1    6    6    0    0 -0.37691087367E+02  0.52084971438E+02 -0.13408122678E+03  0.14869847912E+03  0.00000000000E+00 0. -1.
        -14    1    6    6    0    0  0.25631165311E+02 -0.85505926856E+01 -0.35520641006E+02  0.44629420878E+02  0.00000000000E+00 0.  1.
<mgrwt>
<rscale>  2 0.19995223E+03</rscale>
<asrwt>0</asrwt>
<pdfrwt beam="1">  1       21 0.42582885E-02 0.20022261E+03</pdfrwt>
<pdfrwt beam="2">  1       21 0.30527248E+00 0.20022261E+03</pdfrwt>
<totfact> 0.11139250E+04</totfact>
</mgrwt>
</event>
<event>
12    1  0.1029207E-001  0.1942275E+03  0.7546771E-02  0.1157994E+00
         21   -1    0    0  503  502  0.00000000000E+00  0.00000000000E+00  0.30325239474E+03  0.30325239474E+03  0.00000000000E+00 0. -1.
         21   -1    0    0  501  503 -0.00000000000E+00 -0.00000000000E+00 -0.16612315561E+03  0.16612315561E+03  0.00000000000E+00 0. -1.
          6    2    1    2  501    0 -0.52253815301E+02  0.64006427632E+00 -0.59295090646E+02  0.20307690622E+03  0.18706536603E+03 0.  0.
         24    2    3    3    0    0 -0.85449424136E+02  0.48452297379E+02 -0.67783197213E+02  0.14406761853E+03  0.80695028832E+02 0.  0.
         -6    2    1    2    0  502  0.52253815301E+02 -0.64006427632E+00  0.19642432978E+03  0.26629864413E+03  0.17205109602E+03 0.  0.
        -24    2    5    5    0    0  0.82434974866E+02 -0.24482805585E+02  0.80045960112E+02  0.14363897826E+03  0.82643012371E+02 0.  0.
          5    1    3    3  501    0  0.33195608834E+02 -0.47812233103E+02  0.84881065668E+01  0.59009287687E+02  0.47000000000E+01 0. -1.
        -11    1    4    4    0    0 -0.74154313916E+02  0.16538175057E+02 -0.93680040769E+01  0.76551505583E+02  0.00000000000E+00 0.  1.
         12    1    4    4    0    0 -0.11295110220E+02  0.31914122323E+02 -0.58415193136E+02  0.67516112948E+02  0.00000000000E+00 0. -1.
         -5    1    5    5    0  502 -0.30181159565E+02  0.23842741308E+02  0.11637836967E+03  0.12265966588E+03  0.47000000000E+01 0.  1.
         11    1    6    6    0    0  0.95152140723E+01 -0.28018305279E+02  0.61601474761E+02  0.68339640197E+02  0.00000000000E+00 0. -1.
        -12    1    6    6    0    0  0.72919760794E+02  0.35354996943E+01  0.18444485352E+02  0.75299338059E+02  0.00000000000E+00 0.  1.
<mgrwt>
<rscale>  2 0.19051881E+03</rscale>
<asrwt>0</asrwt>
<pdfrwt beam="1">  1       21 0.46654215E-01 0.19422750E+03</pdfrwt>
<pdfrwt beam="2">  1       21 0.25557408E-01 0.19422750E+03</pdfrwt>
<totfact> 0.63841440E+04</totfact>
</mgrwt>
</event>
<event>
12    1  0.1029207E-001  0.1752961E+03  0.7546771E-02  0.1173521E+00
         21   -1    0    0  501  502  0.00000000000E+00  0.00000000000E+00  0.39380713271E+03  0.39380713271E+03  0.00000000000E+00 0.  1.
         21   -1    0    0  502  503 -0.00000000000E+00 -0.00000000000E+00 -0.91765419706E+02  0.91765419706E+02  0.00000000000E+00 0.  1.
         -6    2    1    2    0  503  0.13066778511E+02 -0.52673358250E+01  0.49283072399E+02  0.17797599610E+03  0.17043517371E+03 0.  0.
        -24    2    3    3    0    0  0.13693936025E+02 -0.56736936446E+02  0.21857344184E+02  0.11946297462E+03  0.10191690228E+03 0.  0.
          6    2    1    2  501    0 -0.13066778511E+02  0.52673358250E+01  0.25275864061E+03  0.30759655631E+03  0.17472900597E+03 0.  0.
         24    2    5    5    0    0 -0.16130170484E+02 -0.35266020519E+02  0.25100662196E+03  0.26663929913E+03  0.81168448108E+02 0.  0.
          5    1    5    5  501    0  0.30633919734E+01  0.40533356344E+02  0.17520186469E+01  0.40957257187E+02  0.47000000000E+01 0. -1.
        -11    1    6    6    0    0 -0.18171081118E+02 -0.32920404609E+02  0.37484458439E+02  0.53094499273E+02  0.00000000000E+00 0.  1.
         12    1    6    6    0    0  0.20409106335E+01 -0.23456159108E+01  0.21352216352E+03  0.21354479985E+03  0.00000000000E+00 0. -1.
         -5    1    3    3    0  503 -0.62715751446E+00  0.51469600621E+02  0.27425728215E+02  0.58513021481E+02  0.47000000000E+01 0.  1.
         13    1    4    4    0    0  0.31845815924E+02 -0.92855441588E+01  0.51040595003E+02  0.60872979724E+02  0.00000000000E+00 0. -1.
        -14    1    4    4    0    0 -0.18151879899E+02 -0.47451392288E+02 -0.29183250819E+02  0.58589994899E+02  0.00000000000E+00 0.  1.
<mgrwt>
<rscale>  2 0.17421623E+03</rscale>
<asrwt>0</asrwt>
<pdfrwt beam="1">  1       21 0.60585712E-01 0.17529607E+03</pdfrwt>
<pdfrwt beam="2">  1       21 0.14117757E-01 0.17529607E+03</pdfrwt>
<totfact> 0.11185544E+05</totfact>
</mgrwt>
</event>
<event>
12    1  0.1029207E-001  0.2624192E+03  0.7546771E-02  0.1106099E+00
         21   -1    0    0  503  502  0.00000000000E+00  0.00000000000E+00  0.68266197023E+02  0.68266197023E+02  0.00000000000E+00 0. -1.
         21   -1    0    0  501  503 -0.00000000000E+00 -0.00000000000E+00 -0.10226010164E+04  0.10226010164E+04  0.00000000000E+00 0. -1.
          6    2    1    2  501    0 -0.58782365745E+02  0.18258740886E+03 -0.56334487084E+03  0.62146705949E+03  0.17908192018E+03 0.  0.
         24    2    3    3    0    0 -0.52634998275E+02  0.18712085414E+02 -0.23414940968E+03  0.25365643782E+03  0.79969101621E+02 0.  0.
         -6    2    1    2    0  502  0.58782365745E+02 -0.18258740886E+03 -0.39098994852E+03  0.46940015392E+03  0.17512805673E+03 0.  0.
        -24    2    5    5    0    0 -0.24425227558E+02 -0.11805569229E+03 -0.16437520697E+03  0.21947180996E+03  0.81332210567E+02 0.  0.
          5    1    3    3  501    0 -0.61473674699E+01  0.16387532344E+03 -0.32919546116E+03  0.36781062167E+03  0.47000000000E+01 0. -1.
        -11    1    4    4    0    0  0.20872028724E+02 -0.24734804459E+01 -0.47880101710E+02  0.52290188643E+02  0.00000000000E+00 0.  1.
         12    1    4    4    0    0 -0.73507026999E+02  0.21185565860E+02 -0.18626930797E+03  0.20136624918E+03  0.00000000000E+00 0. -1.
         -5    1    5    5    0  502  0.83207593303E+02 -0.64531716569E+02 -0.22661474155E+03  0.24992834396E+03  0.47000000000E+01 0.  1.
         13    1    6    6    0    0  0.56162362703E+00 -0.11770918836E+03 -0.11731510463E+03  0.16618845392E+03  0.00000000000E+00 0. -1.
        -14    1    6    6    0    0 -0.24986851185E+02 -0.34650393077E+00 -0.47060102346E+02  0.53283356031E+02  0.00000000000E+00 0.  1.
<mgrwt>
<rscale>  2 0.26174613E+03</rscale>
<asrwt>0</asrwt>
<pdfrwt beam="1">  1       21 0.10502493E-01 0.26241925E+03</pdfrwt>
<pdfrwt beam="2">  1       21 0.15732322E+00 0.26241925E+03</pdfrwt>
<totfact> 0.18778474E+04</totfact>
</mgrwt>
</event>
<event>
12    1  0.1029207E-001  0.1882634E+03  0.7546771E-02  0.1160441E+00
         21   -1    0    0  503  502  0.00000000000E+00  0.00000000000E+00  0.38724783829E+03  0.38724783829E+03  0.00000000000E+00 0. -1.
         21   -1    0    0  501  503 -0.00000000000E+00 -0.00000000000E+00 -0.26399390390E+03  0.26399390390E+03  0.00000000000E+00 0. -1.
          6    2    1    2  501    0  0.69537309148E+02 -0.26834753891E+01 -0.20211386509E+03  0.27621208364E+03  0.17492987819E+03 0.  0.
         24    2    3    3    0    0 -0.25754231411E+02  0.15125479778E+02 -0.12878737216E+03  0.15457121406E+03  0.80087529706E+02 0.  0.
         -6    2    1    2    0  502 -0.69537309148E+02  0.26834753891E+01  0.32536779948E+03  0.37502965855E+03  0.17303294903E+03 0.  0.
        -24    2    5    5    0    0 -0.72034572989E+02 -0.49171161751E+02  0.29132823024E+03  0.31277275537E+03  0.73129172798E+02 0.  0.
          5    1    3    3  501    0  0.95291540559E+02 -0.17808955167E+02 -0.73326492936E+02  0.12164086958E+03  0.47000000000E+01 0. -1.
        -13    1    4    4    0    0  0.56836163412E+01 -0.17921193372E+02 -0.93240776725E+00  0.18823975426E+02  0.00000000000E+00 0.  1.
         14    1    4    4    0    0 -0.31437847752E+02  0.33046673149E+02 -0.12785496439E+03  0.13574723863E+03  0.00000000000E+00 0. -1.
         -5    1    5    5    0  502  0.24972638404E+01  0.51854637140E+02  0.34039569239E+02  0.62256903181E+02  0.47000000000E+01 0.  1.
         13    1    6    6    0    0 -0.15486514471E+02 -0.53188501040E+02  0.11686706877E+03  0.12933197802E+03  0.00000000000E+00 0. -1.
        -14    1    6    6    0    0 -0.56548058518E+02  0.40173392888E+01  0.17446116146E+03  0.18344077735E+03  0.00000000000E+00 0.  1.
<mgrwt>
<rscale>  2 0.18782151E+03</rscale>
<asrwt>0</asrwt>
<pdfrwt beam="1">  1       21 0.59576591E-01 0.18826338E+03</pdfrwt>
<pdfrwt beam="2">  1       21 0.40614446E-01 0.18826338E+03</pdfrwt>
<totfact> 0.15408493E+04</totfact>
</mgrwt>
</event>
<event>
12    1  0.1029207E-001  0.2285829E+03  0.7546771E-02  0.1127728E+00
         21   -1    0    0  501  502  0.00000000000E+00  0.00000000000E+00  0.58509705070E+03  0.58509705070E+03  0.00000000000E+00 0. -1.
         21   -1    0    0  502  503 -0.00000000000E+00 -0.00000000000E+00 -0.21304029395E+03  0.21304029395E+03  0.00000000000E+00 0.  1.
         -6    2    1    2    0  503  0.14634692095E+03 -0.24314892587E+02 -0.11842556718E+03  0.25700608339E+03  0.17325956443E+03 0.  0.
        -24    2    3    3    0    0  0.80774747474E+02 -0.17407390107E+02 -0.14541814031E+03  0.18560501527E+03  0.80468683989E+02 0.  0.
          6    2    1    2  501    0 -0.14634692095E+03  0.24314892587E+02  0.49048232393E+03  0.54113126126E+03  0.17390082388E+03 0.  0.
         24    2    5    5    0    0 -0.13250964991E+03 -0.39870239987E+02  0.34901980250E+03  0.38510262196E+03  0.85678255935E+02 0.  0.
          5    1    5    5  501    0 -0.13837271039E+02  0.64185132573E+02  0.14146252143E+03  0.15602863930E+03  0.47000000000E+01 0. -1.
        -13    1    6    6    0    0 -0.45524681161E+02 -0.55770280350E+01  0.35677547961E+02  0.58107549122E+02  0.00000000000E+00 0.  1.
         14    1    6    6    0    0 -0.86984968753E+02 -0.34293211951E+02  0.31334225454E+03  0.32699507283E+03  0.00000000000E+00 0. -1.
         -5    1    3    3    0  503  0.65572173479E+02 -0.69075024803E+01  0.26992573127E+02  0.71401068124E+02  0.47000000000E+01 0.  1.
         11    1    4    4    0    0  0.24143759969E+02 -0.33898171452E+02 -0.18287920235E+02  0.45458279772E+02  0.00000000000E+00 0. -1.
        -12    1    4    4    0    0  0.56630987504E+02  0.16490781346E+02 -0.12713022007E+03  0.14014673550E+03  0.00000000000E+00 0.  1.
<mgrwt>
<rscale>  2 0.22846091E+03</rscale>
<asrwt>0</asrwt>
<pdfrwt beam="1">  1       21 0.90014930E-01 0.22858288E+03</pdfrwt>
<pdfrwt beam="2">  1       21 0.32775430E-01 0.22858288E+03</pdfrwt>
<totfact> 0.91847754E+03</totfact>
</mgrwt>
</event>
<event>
12    1  0.1029207E-001  0.1941100E+03  0.7546771E-02  0.1154815E+00
         21   -1    0    0  501  502  0.00000000000E+00  0.00000000000E+00  0.91979279491E+03  0.91979279491E+03  0.00000000000E+00 0. -1.
         21   -1    0    0  502  503 -0.00000000000E+00 -0.00000000000E+00 -0.90914265565E+02  0.90914265565E+02  0.00000000000E+00 0. -1.
         -6    2    1    2    0  503  0.86736256902E+02 -0.36114798135E+01  0.39844143054E+02  0.19815708902E+03  0.17361582631E+03 0.  0.
        -24    2    3    3    0    0  0.95405525043E+02 -0.98896169347E+01 -0.27493886805E+02  0.12981185157E+03  0.83037246252E+02 0.  0.
          6    2    1    2  501    0 -0.86736256902E+02  0.36114798135E+01  0.78903438629E+03  0.81254997146E+03  0.17356835057E+03 0.  0.
         24    2    5    5    0    0 -0.20017629028E+02  0.16208423376E+02  0.21615235567E+03  0.23563925974E+03  0.90225281420E+02 0.  0.
          5    1    5    5  501    0 -0.66718627873E+02 -0.12596943562E+02  0.57288203061E+03  0.57691071172E+03  0.47000000000E+01 0. -1.
        -11    1    6    6    0    0 -0.50097222529E+02 -0.11354193025E+02  0.98085545662E+02  0.11072228173E+03  0.00000000000E+00 0.  1.
         12    1    6    6    0    0  0.30079593501E+02  0.27562616401E+02  0.11806681001E+03  0.12491697801E+03  0.00000000000E+00 0. -1.
         -5    1    3    3    0  503 -0.86692681414E+01  0.62781371212E+01  0.67338029859E+02  0.68345237443E+02  0.47000000000E+01 0.  1.
         13    1    4    4    0    0  0.15989531411E+02 -0.38596113626E+02 -0.15301720250E+02  0.44491209743E+02  0.00000000000E+00 0. -1.
        -14    1    4    4    0    0  0.79415993633E+02  0.28706496691E+02 -0.12192166555E+02  0.85320641830E+02  0.00000000000E+00 0.  1.
<mgrwt>
<rscale>  2 0.19409934E+03</rscale>
<asrwt>0</asrwt>
<pdfrwt beam="1">  1       21 0.14150658E+00 0.19410996E+03</pdfrwt>
<pdfrwt beam="2">  1       21 0.13986811E-01 0.19410996E+03</pdfrwt>
<totfact> 0.15487226E+04</totfact>
</mgrwt>
</event>
<event>
12    1  0.1029207E-001  0.2316924E+03  0.7546771E-02  0.1127138E+00
         21   -1    0    0  501  502  0.00000000000E+00  0.00000000000E+00  0.68690565473E+03  0.68690565473E+03  0.00000000000E+00 0.  1.
         21   -1    0    0  502  503 -0.00000000000E+00 -0.00000000000E+00 -0.82844276797E+02  0.82844276797E+02  0.00000000000E+00 0.  1.
         -6    2    1    2    0  503 -0.10282252492E+02  0.13963489760E+03  0.18928301964E+03  0.29918128725E+03  0.18460160285E+03 0.  0.
        -24    2    3    3    0    0 -0.52942407424E+02  0.91461648045E+02  0.44323977363E+02  0.14051256088E+03  0.81308260513E+02 0.  0.
          6    2    1    2  501    0  0.10282252492E+02 -0.13963489760E+03  0.41477835829E+03  0.47056864427E+03  0.17259818401E+03 0.  0.
         24    2    5    5    0    0  0.65973869569E+02 -0.12508812345E+03  0.32903126598E+03  0.36718673730E+03  0.81024292402E+02 0.  0.
          5    1    5    5  501    0 -0.55691617077E+02 -0.14546774147E+02  0.85747092310E+02  0.10338190698E+03  0.47000000000E+01 0. -1.
        -11    1    6    6    0    0  0.44116894281E+02 -0.25101603445E+02  0.55884622792E+02  0.75494913213E+02  0.00000000000E+00 0.  1.
         12    1    6    6    0    0  0.21856975288E+02 -0.99986520008E+02  0.27314664319E+03  0.29169182408E+03  0.00000000000E+00 0. -1.
         -5    1    3    3    0  503  0.42660154931E+02  0.48173249555E+02  0.14495904228E+03  0.15866872638E+03  0.47000000000E+01 0.  1.
         11    1    4    4    0    0 -0.58017602820E+00  0.36475853850E+01 -0.19592210467E+02  0.19937306597E+02  0.00000000000E+00 0. -1.
        -12    1    4    4    0    0 -0.52362231395E+02  0.87814062660E+02  0.63916187830E+02  0.12057525428E+03  0.00000000000E+00 0.  1.
<mgrwt>
<rscale>  2 0.22929411E+03</rscale>
<asrwt>0</asrwt>
<pdfrwt beam="1">  1       21 0.10567779E+00 0.23169243E+03</pdfrwt>
<pdfrwt beam="2">  1       21 0.12745274E-01 0.23169243E+03</pdfrwt>
<totfact> 0.37125594E+04</totfact>
</mgrwt>
</event>
<event>
12    1  0.1029207E-001  0.2720464E+03  0.7546771E-02  0.1100150E+00
         21   -1    0    0  503  502  0.00000000000E+00  0.00000000000E+00  0.83834400665E+02  0.83834400665E+02  0.00000000000E+00 0.  1.
         21   -1    0    0  501  503 -0.00000000000E+00 -0.00000000000E+00 -0.89280365964E+03  0.89280365964E+03  0.00000000000E+00 0. -1.
          6    2    1    2  501    0 -0.77638942871E+02 -0.19560214134E+03 -0.45808464490E+03  0.53264563204E+03  0.17199367514E+03 0.  0.
         24    2    3    3    0    0 -0.40971104629E+02 -0.42784521876E+02 -0.10184913102E+03  0.14325689758E+03  0.81487093985E+02 0.  0.
         -6    2    1    2    0  502  0.77638942871E+02  0.19560214134E+03 -0.35088461407E+03  0.44399242826E+03  0.17239855225E+03 0.  0.
        -24    2    5    5    0    0  0.66384744009E+02  0.62331639188E+02 -0.24429193304E+03  0.27290247127E+03  0.80653845511E+02 0.  0.
          5    1    3    3  501    0 -0.36667838242E+02 -0.15281761946E+03 -0.35623551388E+03  0.38938873446E+03  0.47000000000E+01 0.  1.
        -11    1    4    4    0    0  0.19391997295E+02  0.24227524302E+00 -0.28824788502E+01  0.19606553514E+02  0.00000000000E+00 0.  1.
         12    1    4    4    0    0 -0.60363101924E+02 -0.43026797119E+02 -0.98966652174E+02  0.12365034406E+03  0.00000000000E+00 0. -1.
         -5    1    5    5    0  502  0.11254198862E+02  0.13327050215E+03 -0.10659268103E+03  0.17108995699E+03  0.47000000000E+01 0.  1.
         13    1    6    6    0    0 -0.16959602928E+02  0.18325128285E+02 -0.76255992502E+02  0.80239733615E+02  0.00000000000E+00 0. -1.
        -14    1    6    6    0    0  0.83344346937E+02  0.44006510903E+02 -0.16803594054E+03  0.19266273766E+03  0.00000000000E+00 0.  1.
<mgrwt>
<rscale>  2 0.27198232E+03</rscale>
<asrwt>0</asrwt>
<pdfrwt beam="1">  1       21 0.12897599E-01 0.27204644E+03</pdfrwt>
<pdfrwt beam="2">  1       21 0.13735442E+00 0.27204644E+03</pdfrwt>
<totfact> 0.18511218E+04</totfact>
</mgrwt>
</event>
<event>
12    1  0.1029207E-001  0.1800249E+03  0.7546771E-02  0.1167946E+00
         21   -1    0    0  501  502  0.00000000000E+00  0.00000000000E+00  0.12794195943E+03  0.12794195943E+03  0.00000000000E+00 0.  1.
         21   -1    0    0  502  503 -0.00000000000E+00 -0.00000000000E+00 -0.85641531225E+03  0.85641531225E+03  0.00000000000E+00 0.  1.
         -6    2    1    2    0  503  0.79817476220E+01 -0.53093975838E+02 -0.77738820480E+03  0.79780531947E+03  0.17110881990E+03 0.  0.
        -24    2    3    3    0    0  0.73930833597E+00  0.13484233847E+02 -0.19266530869E+03  0.20924090824E+03  0.80495126370E+02 0.  0.
          6    2    1    2  501    0 -0.79817476220E+01  0.53093975838E+02  0.48914851975E+02  0.18655195221E+03  0.17183215521E+03 0.  0.
         24    2    5    5    0    0 -0.61860731945E+02 -0.25072563539E+01  0.21858082909E+02  0.10440208474E+03  0.81172550886E+02 0.  0.
          5    1    5    5  501    0  0.53878984323E+02  0.55601232192E+02  0.27056769066E+02  0.82149867470E+02  0.47000000000E+01 0. -1.
        -13    1    6    6    0    0  0.42456092773E+01  0.13759739749E+02  0.32452957599E+02  0.35504226411E+02  0.00000000000E+00 0.  1.
         14    1    6    6    0    0 -0.66106341223E+02 -0.16266996103E+02 -0.10594874690E+02  0.68897858325E+02  0.00000000000E+00 0. -1.
         -5    1    3    3    0  503  0.72424392860E+01 -0.66578209686E+02 -0.58472289612E+03  0.58856441124E+03  0.47000000000E+01 0.  1.
         11    1    4    4    0    0  0.21291163454E+02  0.14924755886E+02 -0.14269521468E+02  0.29659420467E+02  0.00000000000E+00 0. -1.
        -12    1    4    4    0    0 -0.20551855118E+02 -0.14405220387E+01 -0.17839578722E+03  0.17958148777E+03  0.00000000000E+00 0.  1.
<mgrwt>
<rscale>  2 0.17985209E+03</rscale>
<asrwt>0</asrwt>
<pdfrwt beam="1">  1       21 0.19683378E-01 0.18002491E+03</pdfrwt>
<pdfrwt beam="2">  1       21 0.13175620E+00 0.18002491E+03</pdfrwt>
<totfact> 0.10030298E+04</totfact>
</mgrwt>
</event>
<event>
12    1  0.1029207E-001  0.2659986E+03  0.7546771E-02  0.1104052E+00
         21   -1    0    0  503  502  0.00000000000E+00  0.00000000000E+00  0.23416058420E+03  0.23416058420E+03  0.00000000000E+00 0. -1.
         21   -1    0    0  501  503 -0.00000000000E+00 -0.00000000000E+00 -0.35729783930E+03  0.35729783930E+03  0.00000000000E+00 0. -1.
          6    2    1    2  501    0 -0.16248692089E+03  0.11228081517E+03 -0.18111498594E+03  0.31921463834E+03  0.17345421955E+03 0.  0.
         24    2    3    3    0    0 -0.11915857244E+03  0.14366593557E+03 -0.11345973366E+03  0.23283353668E+03  0.80620581813E+02 0.  0.
         -6    2    1    2    0  502  0.16248692089E+03 -0.11228081517E+03  0.57977730845E+02  0.27224378516E+03  0.17817485897E+03 0.  0.
        -24    2    5    5    0    0  0.13390375372E+03 -0.13632096326E+03  0.87181853459E+02  0.22460034969E+03  0.79567714707E+02 0.  0.
          5    1    3    3  501    0 -0.43328348453E+02 -0.31385120402E+02 -0.67655252277E+02  0.86381101655E+02  0.47000000000E+01 0. -1.
        -13    1    4    4    0    0 -0.45261237316E+02  0.65502921823E+02 -0.45337840941E+01  0.79748150881E+02  0.00000000000E+00 0.  1.
         14    1    4    4    0    0 -0.73897335122E+02  0.78163013748E+02 -0.10892594957E+03  0.15308538580E+03  0.00000000000E+00 0. -1.
         -5    1    5    5    0  502  0.28583167175E+02  0.24040148094E+02 -0.29204122613E+02  0.47643435474E+02  0.47000000000E+01 0.  1.
         13    1    6    6    0    0  0.26458415490E+02 -0.46562618212E+02  0.62723107574E+02  0.82476138300E+02  0.00000000000E+00 0. -1.
        -14    1    6    6    0    0  0.10744533823E+03 -0.89758345050E+02  0.24458745884E+02  0.14212421139E+03  0.00000000000E+00 0.  1.
<mgrwt>
<rscale>  2 0.26521045E+03</rscale>
<asrwt>0</asrwt>
<pdfrwt beam="1">  1       21 0.36024705E-01 0.26599861E+03</pdfrwt>
<pdfrwt beam="2">  1       21 0.54968898E-01 0.26599861E+03</pdfrwt>
<totfact> 0.22343809E+04</totfact>
</mgrwt>
</event>
<event>
12    1  0.1029207E-001  0.1800660E+03  0.7546771E-02  0.1167800E+00
         21   -1    0    0  503  502  0.00000000000E+00  0.00000000000E+00  0.69269740734E+02  0.69269740734E+02  0.00000000000E+00 0.  1.
         21   -1    0    0  501  503 -0.00000000000E+00 -0.00000000000E+00 -0.74866581389E+03  0.74866581389E+03  0.00000000000E+00 0.  1.
          6    2    1    2  501    0  0.17328667712E+02 -0.45441948957E+02 -0.59020832855E+03  0.61699227022E+03  0.17311365334E+03 0.  0.
         24    2    3    3    0    0  0.13794008925E+02 -0.48910041745E+02 -0.15545501465E+03  0.18218535281E+03  0.80266894378E+02 0.  0.
         -6    2    1    2    0  502 -0.17328667712E+02  0.45441948957E+02 -0.89187744599E+02  0.20094328440E+03  0.17337386282E+03 0.  0.
        -24    2    5    5    0    0 -0.71921766865E+02  0.47858140042E+02 -0.84677097838E+02  0.14590983649E+03  0.81586318511E+02 0.  0.
          5    1    3    3  501    0  0.35346587868E+01  0.34680927882E+01 -0.43475331391E+03  0.43480691742E+03  0.47000000000E+01 0. -1.
        -11    1    4    4    0    0 -0.25200702210E+01 -0.53621070028E+02 -0.15622195673E+03  0.16518737746E+03  0.00000000000E+00 0.  1.
         12    1    4    4    0    0  0.16314079146E+02  0.47110282834E+01  0.76694208814E+00  0.16997975351E+02  0.00000000000E+00 0. -1.
         -5    1    5    5    0  502  0.54593099153E+02 -0.24161910855E+01 -0.45106467609E+01  0.55033447909E+02  0.47000000000E+01 0.  1.
         13    1    6    6    0    0 -0.93003189056E+01 -0.16251691222E+01 -0.62311622145E+02  0.63022816192E+02  0.00000000000E+00 0. -1.
        -14    1    6    6    0    0 -0.62621447960E+02  0.49483309164E+02 -0.22365475693E+02  0.82887020295E+02  0.00000000000E+00 0.  1.
<mgrwt>
<rscale>  2 0.18000330E+03</rscale>
<asrwt>0</asrwt>
<pdfrwt beam="1">  1       21 0.10656883E-01 0.18006596E+03</pdfrwt>
<pdfrwt beam="2">  1       21 0.11517935E+00 0.18006596E+03</pdfrwt>
<totfact> 0.42629484E+04</totfact>
</mgrwt>
</event>
<event>
12    1  0.1029207E-001  0.2011850E+03  0.7546771E-02  0.1148823E+00
         21   -1    0    0  503  502  0.00000000000E+00  0.00000000000E+00  0.42630723536E+03  0.42630723536E+03  0.00000000000E+00 0.  1.
         21   -1    0    0  501  503 -0.00000000000E+00 -0.00000000000E+00 -0.98201688682E+02  0.98201688682E+02  0.00000000000E+00 0. -1.
          6    2    1    2  501    0 -0.77714095598E+02 -0.67457877919E+02  0.21327746458E+03  0.29319391732E+03  0.17287379879E+03 0.  0.
         24    2    3    3    0    0 -0.25814932788E+02  0.23874302730E+02  0.83765429421E+02  0.12636901638E+03  0.87841266211E+02 0.  0.
         -6    2    1    2    0  502  0.77714095598E+02  0.67457877919E+02  0.11482808209E+03  0.23131500672E+03  0.17242708009E+03 0.  0.
        -24    2    5    5    0    0  0.78881113571E+02  0.55858805138E+02  0.10268403134E+02  0.12600253412E+03  0.80179562932E+02 0.  0.
          5    1    3    3  501    0 -0.51899162811E+02 -0.91332180650E+02  0.12951203516E+03  0.16682490094E+03  0.47000000000E+01 0. -1.
        -13    1    4    4    0    0  0.51983440395E+01  0.34068606408E+02  0.86986558265E+02  0.93564705109E+02  0.00000000000E+00 0.  1.
         14    1    4    4    0    0 -0.31013276827E+02 -0.10194303678E+02 -0.32211288445E+01  0.32804311272E+02  0.00000000000E+00 0. -1.
         -5    1    5    5    0  502 -0.11670179729E+01  0.11599072781E+02  0.10455967896E+03  0.10531247260E+03  0.47000000000E+01 0.  1.
         11    1    6    6    0    0  0.75392872702E+02  0.60803875529E+01  0.45302865204E+01  0.75773213361E+02  0.00000000000E+00 0. -1.
        -12    1    6    6    0    0  0.34882408691E+01  0.49778417585E+02  0.57381166134E+01  0.50229320759E+02  0.00000000000E+00 0.  1.
<mgrwt>
<rscale>  2 0.20108898E+03</rscale>
<asrwt>0</asrwt>
<pdfrwt beam="1">  1       21 0.65585728E-01 0.20118498E+03</pdfrwt>
<pdfrwt beam="2">  1       21 0.15107952E-01 0.20118498E+03</pdfrwt>
<totfact> 0.82449511E+04</totfact>
</mgrwt>
</event>
<event>
12    1  0.1029207E-001  0.1781479E+03  0.7546771E-02  0.1169668E+00
         21   -1    0    0  501  502  0.00000000000E+00  0.00000000000E+00  0.20184984766E+04  0.20184984766E+04  0.00000000000E+00 0.  1.
         21   -1    0    0  502  503 -0.00000000000E+00 -0.00000000000E+00 -0.17942621671E+02  0.17942621671E+02  0.00000000000E+00 0.  1.
         -6    2    1    2    0  503  0.10877084997E+02  0.39214150211E+02  0.13595626806E+04  0.13711524970E+04  0.17318321835E+03 0.  0.
        -24    2    3    3    0    0  0.61548150527E+02  0.59404480339E+02  0.10707545323E+04  0.10772010676E+04  0.80807206440E+02 0.  0.
          6    2    1    2  501    0 -0.10877084997E+02 -0.39214150211E+02  0.64099317430E+03  0.66528860119E+03  0.17343763383E+03 0.  0.
         24    2    5    5    0    0  0.28578015631E+02 -0.25433302795E+02  0.60026421201E+03  0.60674327610E+03  0.79729059989E+02 0.  0.
          5    1    5    5  501    0 -0.39455100629E+02 -0.13780847416E+02  0.40728962287E+02  0.58545325092E+02  0.47000000000E+01 0. -1.
        -11    1    6    6    0    0  0.25468421592E+02 -0.44184498235E+01  0.52025805982E+02  0.58093439263E+02  0.00000000000E+00 0.  1.
         12    1    6    6    0    0  0.31095940392E+01 -0.21014852971E+02  0.54823840603E+03  0.54864983684E+03  0.00000000000E+00 0. -1.
         -5    1    3    3    0  503 -0.50671065529E+02 -0.20190330128E+02  0.28880814833E+03  0.29395142941E+03  0.47000000000E+01 0.  1.
         11    1    4    4    0    0  0.53890579102E+02  0.20124328682E+02  0.30350342095E+03  0.30890695954E+03  0.00000000000E+00 0. -1.
        -12    1    4    4    0    0  0.76575714245E+01  0.39280151656E+02  0.76725111131E+03  0.76829410809E+03  0.00000000000E+00 0.  1.
<mgrwt>
<rscale>  2 0.17808595E+03</rscale>
<asrwt>0</asrwt>
<pdfrwt beam="1">  1       21 0.31053805E+00 0.17814790E+03</pdfrwt>
<pdfrwt beam="2">  1       21 0.27604049E-02 0.17814790E+03</pdfrwt>
<totfact> 0.21880703E+04</totfact>
</mgrwt>
</event>
<event>
12    1  0.1029207E-001  0.2189655E+03  0.7546771E-02  0.1134777E+00
         21   -1    0    0  501  502  0.00000000000E+00  0.00000000000E+00  0.63674109183E+03  0.63674109183E+03  0.00000000000E+00 0.  1.
         21   -1    0    0  502  503 -0.00000000000E+00 -0.00000000000E+00 -0.59284314432E+03  0.59284314432E+03  0.00000000000E+00 0. -1.
         -6    2    1    2    0  503  0.67273902528E+02 -0.11422141318E+03 -0.55260084392E+03  0.59416569695E+03  0.17347297642E+03 0.  0.
        -24    2    3    3    0    0  0.77721407490E+02 -0.14344539010E+03 -0.39021601009E+03  0.42877490082E+03  0.70442770567E+02 0.  0.
          6    2    1    2  501    0 -0.67273902528E+02  0.11422141318E+03  0.59649879143E+03  0.63541853919E+03  0.17428024152E+03 0.  0.
         24    2    5    5    0    0  0.98319354737E+01  0.40967518802E+02  0.13576322994E+03  0.16254351245E+03  0.78827243291E+02 0.  0.
          5    1    5    5  501    0 -0.77105838002E+02  0.73253894374E+02  0.46073556149E+03  0.47287502674E+03  0.47000000000E+01 0. -1.
        -11    1    6    6    0    0  0.18718588834E+02  0.29592639060E+02  0.14241022637E+03  0.14665190905E+03  0.00000000000E+00 0.  1.
         12    1    6    6    0    0 -0.88866533605E+01  0.11374879741E+02 -0.66469964290E+01  0.15891603400E+02  0.00000000000E+00 0. -1.
         -5    1    3    3    0  503 -0.10447504962E+02  0.29223976920E+02 -0.16238483383E+03  0.16539079613E+03  0.47000000000E+01 0.  1.
         11    1    4    4    0    0  0.66879910735E+02 -0.59585674952E+02 -0.24327332790E+03  0.25923982562E+03  0.00000000000E+00 0. -1.
        -12    1    4    4    0    0  0.10841496754E+02 -0.83859715144E+02 -0.14694268219E+03  0.16953507520E+03  0.00000000000E+00 0.  1.
<mgrwt>
<rscale>  2 0.21880488E+03</rscale>
<asrwt>0</asrwt>
<pdfrwt beam="1">  1       21 0.97960169E-01 0.21896555E+03</pdfrwt>
<pdfrwt beam="2">  1       21 0.91206637E-01 0.21896555E+03</pdfrwt>
<totfact> 0.85549485E+02</totfact>
</mgrwt>
</event>
<event>
12    1  0.1029207E-001  0.1736251E+03  0.7546771E-02  0.1174418E+00
         21   -1    0    0  503  502  0.00000000000E+00  0.00000000000E+00  0.17398850340E+03  0.17398850340E+03  0.00000000000E+00 0.  1.
         21   -1    0    0  501  503 -0.00000000000E+00 -0.00000000000E+00 -0.17492121451E+03  0.17492121451E+03  0.00000000000E+00 0.  1.
          6    2    1    2  501    0 -0.34963378637E+01  0.30911254567E+01 -0.22652907254E+02  0.17393136005E+03  0.17238672909E+03 0.  0.
         24    2    3    3    0    0 -0.44698175517E+02 -0.23192934688E+02 -0.58848333734E+02  0.11293429338E+03  0.82189957564E+02 0.  0.
         -6    2    1    2    0  502  0.34963378637E+01 -0.30911254567E+01  0.21720196148E+02  0.17497835786E+03  0.17356232127E+03 0.  0.
        -24    2    5    5    0    0  0.43891391476E+02  0.49836118487E+02  0.36903598358E-01  0.10479781438E+03  0.81070880004E+02 0.  0.
          5    1    3    3  501    0  0.41201837653E+02  0.26284060145E+02  0.36195426480E+02  0.60997066665E+02  0.47000000000E+01 0. -1.
        -13    1    4    4    0    0 -0.17745007036E+02 -0.52183835512E+02 -0.23702513397E+02  0.59998725860E+02  0.00000000000E+00 0.  1.
         14    1    4    4    0    0 -0.26953168480E+02  0.28990900824E+02 -0.35145820337E+02  0.52935567522E+02  0.00000000000E+00 0. -1.
         -5    1    5    5    0  502 -0.40395053613E+02 -0.52927243944E+02  0.21683292550E+02  0.70180543484E+02  0.47000000000E+01 0.  1.
         11    1    6    6    0    0 -0.20559841608E+02 -0.20095392463E+01  0.69446705851E+01  0.21793893284E+02  0.00000000000E+00 0. -1.
        -12    1    6    6    0    0  0.64451233085E+02  0.51845657734E+02 -0.69077669867E+01  0.83003921092E+02  0.00000000000E+00 0.  1.
<mgrwt>
<rscale>  2 0.17333051E+03</rscale>
<asrwt>0</asrwt>
<pdfrwt beam="1">  1       21 0.26767462E-01 0.17362505E+03</pdfrwt>
<pdfrwt beam="2">  1       21 0.26910956E-01 0.17362505E+03</pdfrwt>
<totfact> 0.17578900E+05</totfact>
</mgrwt>
</event>
<event>
12    1  0.1029207E-001  0.3712341E+03  0.7546771E-02  0.1054272E+00
         21   -1    0    0  501  502  0.00000000000E+00  0.00000000000E+00  0.69902696346E+03  0.69902696346E+03  0.00000000000E+00 0. -1.
         21   -1    0    0  502  503 -0.00000000000E+00 -0.00000000000E+00 -0.46072323569E+03  0.46072323569E+03  0.00000000000E+00 0.  1.
         -6    2    1    2    0  503  0.28299737584E+03 -0.16687061331E+03 -0.31963683592E+03  0.48988002340E+03  0.17286241389E+03 0.  0.
        -24    2    3    3    0    0  0.28183841653E+03 -0.16881486490E+03 -0.33354985423E+03  0.47502117488E+03  0.80363298130E+02 0.  0.
          6    2    1    2  501    0 -0.28299737584E+03  0.16687061331E+03  0.55794056369E+03  0.66987017575E+03  0.17174126885E+03 0.  0.
         24    2    5    5    0    0 -0.30005623533E+03  0.15736280542E+03  0.54211862644E+03  0.64430013867E+03  0.80207647116E+02 0.  0.
          5    1    5    5  501    0  0.17058859495E+02  0.95078078830E+01  0.15821937247E+02  0.25570037080E+02  0.47000000000E+01 0. -1.
        -13    1    6    6    0    0 -0.90655882004E+01  0.33784178006E+01 -0.42267682880E+00  0.96838655482E+01  0.00000000000E+00 0.  1.
         14    1    6    6    0    0 -0.29099064713E+03  0.15398438762E+03  0.54254130327E+03  0.63461627312E+03  0.00000000000E+00 0. -1.
         -5    1    3    3    0  503  0.11589593066E+01  0.19442515923E+01  0.13913018309E+02  0.14858848522E+02  0.47000000000E+01 0.  1.
         11    1    4    4    0    0  0.55915232398E+02 -0.50184229282E+01 -0.81664678514E+02  0.99100037838E+02  0.00000000000E+00 0. -1.
        -12    1    4    4    0    0  0.22592318413E+03 -0.16379644197E+03 -0.25188517571E+03  0.37592113704E+03  0.00000000000E+00 0.  1.
<mgrwt>
<rscale>  2 0.37110381E+03</rscale>
<asrwt>0</asrwt>
<pdfrwt beam="1">  1       21 0.10754261E+00 0.37123406E+03</pdfrwt>
<pdfrwt beam="2">  1       21 0.70880497E-01 0.37123406E+03</pdfrwt>
<totfact> 0.10962852E+03</totfact>
</mgrwt>
</event>
<event>
12    1  0.1029207E-001  0.1957616E+03  0.7546771E-02  0.1154318E+00
         21   -1    0    0  501  502  0.00000000000E+00  0.00000000000E+00  0.11212116511E+03  0.11212116511E+03  0.00000000000E+00 0. -1.
         21   -1    0    0  502  503 -0.00000000000E+00 -0.00000000000E+00 -0.35109659782E+03  0.35109659782E+03  0.00000000000E+00 0. -1.
         -6    2    1    2    0  503  0.22714768730E+02  0.78459556379E+02 -0.16893149479E+03  0.25530247577E+03  0.17311742112E+03 0.  0.
        -24    2    3    3    0    0  0.39500195485E+02  0.80572741814E+02 -0.41448962362E+02  0.12661641522E+03  0.79129437987E+02 0.  0.
          6    2    1    2  501    0 -0.22714768730E+02 -0.78459556379E+02 -0.70043937916E+02  0.20791528716E+03  0.17790657855E+03 0.  0.
         24    2    5    5    0    0 -0.84478937646E+02 -0.49367038389E+02 -0.50725414831E+02  0.13680633907E+03  0.81050054374E+02 0.  0.
          5    1    5    5  501    0  0.61764168916E+02 -0.29092517990E+02 -0.19318523085E+02  0.71108948094E+02  0.47000000000E+01 0. -1.
        -13    1    6    6    0    0 -0.13389780632E+02  0.18463935273E+02  0.56860102919E+01  0.23506038462E+02  0.00000000000E+00 0.  1.
         14    1    6    6    0    0 -0.71089157014E+02 -0.67830973662E+02 -0.56411425123E+02  0.11330030061E+03  0.00000000000E+00 0. -1.
         -5    1    3    3    0  503 -0.16785426755E+02 -0.21131854352E+01 -0.12748253243E+03  0.12868606054E+03  0.47000000000E+01 0.  1.
         11    1    4    4    0    0  0.50340766742E+01  0.24134860152E+02 -0.53949101920E+02  0.59315588175E+02  0.00000000000E+00 0. -1.
        -12    1    4    4    0    0  0.34466118811E+02  0.56437881662E+02  0.12500139558E+02  0.67300827048E+02  0.00000000000E+00 0.  1.
<mgrwt>
<rscale>  2 0.19466700E+03</rscale>
<asrwt>0</asrwt>
<pdfrwt beam="1">  1       21 0.17249411E-01 0.19576162E+03</pdfrwt>
<pdfrwt beam="2">  1       21 0.54014860E-01 0.19576162E+03</pdfrwt>
<totfact> 0.98300721E+04</totfact>
</mgrwt>
</event>
<event>
12    1  0.1029207E-001  0.1858019E+03  0.7546771E-02  0.1162494E+00
         21   -1    0    0  501  502  0.00000000000E+00  0.00000000000E+00  0.18135649036E+03  0.18135649036E+03  0.00000000000E+00 0.  1.
         21   -1    0    0  502  503 -0.00000000000E+00 -0.00000000000E+00 -0.43666118552E+03  0.43666118552E+03  0.00000000000E+00 0. -1.
         -6    2    1    2    0  503  0.94811519759E+01  0.64342719784E+02 -0.36000360161E+03  0.40474742605E+03  0.17317045906E+03 0.  0.
        -24    2    3    3    0    0  0.67919670498E+02  0.36116396368E+02 -0.28183674143E+03  0.30304229437E+03  0.80530786827E+02 0.  0.
          6    2    1    2  501    0 -0.94811519759E+01 -0.64342719784E+02  0.10469890644E+03  0.21327024983E+03  0.17404729420E+03 0.  0.
         24    2    5    5    0    0  0.22276354979E+02 -0.10160308190E+03  0.96465309867E+02  0.16340286624E+03  0.81089570505E+02 0.  0.
          5    1    5    5  501    0 -0.31757506954E+02  0.37260362119E+02  0.82335965762E+01  0.49867383587E+02  0.47000000000E+01 0. -1.
        -13    1    6    6    0    0 -0.82565939781E+01 -0.92684800476E+02  0.92743155496E+02  0.13137707743E+03  0.00000000000E+00 0.  1.
         14    1    6    6    0    0  0.30532948957E+02 -0.89182814274E+01  0.37221543705E+01  0.32025788808E+02  0.00000000000E+00 0. -1.
         -5    1    3    3    0  503 -0.58438518522E+02  0.28226323416E+02 -0.78166860179E+02  0.10170513168E+03  0.47000000000E+01 0.  1.
         11    1    4    4    0    0  0.37359627323E+02  0.61228914267E+02 -0.17589075751E+03  0.18995336341E+03  0.00000000000E+00 0. -1.
        -12    1    4    4    0    0  0.30560043175E+02 -0.25112517900E+02 -0.10594598392E+03  0.11308893095E+03  0.00000000000E+00 0.  1.
<mgrwt>
<rscale>  2 0.18559626E+03</rscale>
<asrwt>0</asrwt>
<pdfrwt beam="1">  1       21 0.27900999E-01 0.18580188E+03</pdfrwt>
<pdfrwt beam="2">  1       21 0.67178644E-01 0.18580188E+03</pdfrwt>
<totfact> 0.24976664E+04</totfact>
</mgrwt>
</event>
<event>
12    1  0.1029207E-001  0.2235817E+03  0.7546771E-02  0.1131499E+00
         21   -1    0    0  501  502  0.00000000000E+00  0.00000000000E+00  0.21487451816E+03  0.21487451816E+03  0.00000000000E+00 0.  1.
         21   -1    0    0  502  503 -0.00000000000E+00 -0.00000000000E+00 -0.23141004330E+03  0.23141004330E+03  0.00000000000E+00 0.  1.
         -6    2    1    2    0  503  0.11006863607E+03  0.86490216681E+02 -0.15318272446E+02  0.22269950646E+03  0.17252466050E+03 0.  0.
        -24    2    3    3    0    0  0.32784338253E+02  0.10513380452E+03  0.17576640720E+02  0.13653332186E+03  0.78768521570E+02 0.  0.
          6    2    1    2  501    0 -0.11006863607E+03 -0.86490216681E+02 -0.12172526987E+01  0.22358505500E+03  0.17433626383E+03 0.  0.
         24    2    5    5    0    0 -0.11858776318E+03 -0.11297886250E+02 -0.51636284559E+01  0.14766321384E+03  0.87103741913E+02 0.  0.
          5    1    5    5  501    0  0.85191271099E+01 -0.75192330431E+02  0.39463757571E+01  0.75921841152E+02  0.47000000000E+01 0. -1.
        -13    1    6    6    0    0 -0.54557776524E+02 -0.33555602916E+02  0.30638093202E+02  0.71001564922E+02  0.00000000000E+00 0.  1.
         14    1    6    6    0    0 -0.64029986652E+02  0.22257716666E+02 -0.35801721658E+02  0.76661648922E+02  0.00000000000E+00 0. -1.
         -5    1    3    3    0  503  0.77284297814E+02 -0.18643587843E+02 -0.32894913166E+02  0.86166184600E+02  0.47000000000E+01 0.  1.
         13    1    4    4    0    0  0.27111380675E+01 -0.58451712500E+01  0.20526523661E+02  0.21514052853E+02  0.00000000000E+00 0. -1.
        -14    1    4    4    0    0  0.30073200185E+02  0.11097897577E+03 -0.29498829407E+01  0.11501926901E+03  0.00000000000E+00 0.  1.
<mgrwt>
<rscale>  2 0.22322848E+03</rscale>
<asrwt>0</asrwt>
<pdfrwt beam="1">  1       21 0.33057618E-01 0.22358174E+03</pdfrwt>
<pdfrwt beam="2">  1       21 0.35601545E-01 0.22358174E+03</pdfrwt>
<totfact> 0.66123712E+04</totfact>
</mgrwt>
</event>
<event>
12    1  0.1029207E-001  0.2130016E+03  0.7546771E-02  0.1139235E+00
         21   -1    0    0  501  502  0.00000000000E+00  0.00000000000E+00  0.30987114900E+04  0.30987114900E+04  0.00000000000E+00 0. -1.
         21   -1    0    0  502  503 -0.00000000000E+00 -0.00000000000E+00 -0.55761631885E+02  0.55761631885E+02  0.00000000000E+00 0.  1.
         -6    2    1    2    0  503 -0.60056899009E+02  0.10813509884E+03  0.16702108328E+03  0.27067641334E+03  0.17340601996E+03 0.  0.
        -24    2    3    3    0    0  0.94770813457E+01  0.11478642890E+03  0.13989184832E+03  0.19559445808E+03  0.73632353465E+02 0.  0.
          6    2    1    2  501    0  0.60056899009E+02 -0.10813509884E+03  0.28759287748E+04  0.28837967085E+04  0.17325445903E+03 0.  0.
         24    2    5    5    0    0  0.54948891431E+02 -0.13471657875E+03  0.18418344993E+04  0.18493375613E+04  0.80790811509E+02 0.  0.
          5    1    5    5  501    0  0.51080075779E+01  0.26581479909E+02  0.10340942755E+04  0.10344591473E+04  0.47000000000E+01 0. -1.
        -13    1    6    6    0    0 -0.17474284263E+02 -0.57125476469E+02  0.59343619638E+03  0.59643540291E+03  0.00000000000E+00 0.  1.
         14    1    6    6    0    0  0.72423175694E+02 -0.77591102278E+02  0.12483983030E+04  0.12529021583E+04  0.00000000000E+00 0. -1.
         -5    1    3    3    0  503 -0.69533980355E+02 -0.66513300576E+01  0.27129234957E+02  0.75081955255E+02  0.47000000000E+01 0.  1.
         11    1    4    4    0    0  0.39051174038E+02  0.38955992101E+02  0.61021764882E+02  0.82257031940E+02  0.00000000000E+00 0. -1.
        -12    1    4    4    0    0 -0.29574092692E+02  0.75830436795E+02  0.78870083441E+02  0.11333742614E+03  0.00000000000E+00 0.  1.
<mgrwt>
<rscale>  2 0.21297074E+03</rscale>
<asrwt>0</asrwt>
<pdfrwt beam="1">  1       21 0.47672471E+00 0.21300159E+03</pdfrwt>
<pdfrwt beam="2">  1       21 0.85787150E-02 0.21300159E+03</pdfrwt>
<totfact> 0.28225827E+02</totfact>
</mgrwt>
</event>
<event>
12    1  0.1029207E-001  0.2202292E+03  0.7546771E-02  0.1133961E+00
         21   -1    0    0  501  502  0.00000000000E+00  0.00000000000E+00  0.36916190578E+03  0.36916190578E+03  0.00000000000E+00 0.  1.
         21   -1    0    0  502  503 -0.00000000000E+00 -0.00000000000E+00 -0.24117725779E+03  0.24117725779E+03  0.00000000000E+00 0. -1.
         -6    2    1    2    0  503 -0.10687837749E+03 -0.84232066331E+02 -0.14254896621E+03  0.26233776635E+03  0.17315561588E+03 0.  0.
        -24    2    3    3    0    0 -0.34864825827E+02  0.20032893512E+02 -0.83004770283E+02  0.12224945584E+03  0.80238797723E+02 0.  0.
          6    2    1    2  501    0  0.10687837749E+03  0.84232066331E+02  0.27053361420E+03  0.34800139722E+03  0.17145992967E+03 0.  0.
         24    2    5    5    0    0  0.12553824738E+03  0.20502768522E+02  0.20805550431E+03  0.25670398018E+03  0.80184945537E+02 0.  0.
          5    1    5    5  501    0 -0.18659869894E+02  0.63729297809E+02  0.62478109884E+02  0.91297417041E+02  0.47000000000E+01 0. -1.
        -13    1    6    6    0    0  0.87233514103E+02 -0.16481288808E+02  0.16821218762E+03  0.19020162703E+03  0.00000000000E+00 0.  1.
         14    1    6    6    0    0  0.38304733281E+02  0.36984057330E+02  0.39843316697E+02  0.66502353144E+02  0.00000000000E+00 0. -1.
         -5    1    3    3    0  503 -0.72013551662E+02 -0.10426495984E+03 -0.59544195931E+02  0.14008831052E+03  0.47000000000E+01 0.  1.
         11    1    4    4    0    0 -0.55804929357E+02 -0.62387381008E+01 -0.52318743823E+02  0.76748699981E+02  0.00000000000E+00 0. -1.
        -12    1    4    4    0    0  0.20940103530E+02  0.26271631612E+02 -0.30686026460E+02  0.45500755855E+02  0.00000000000E+00 0.  1.
<mgrwt>
<rscale>  2 0.21989575E+03</rscale>
<asrwt>0</asrwt>
<pdfrwt beam="1">  1       21 0.56794139E-01 0.22022919E+03</pdfrwt>
<pdfrwt beam="2">  1       21 0.37104194E-01 0.22022919E+03</pdfrwt>
<totfact> 0.20087724E+04</totfact>
</mgrwt>
</event>
<event>
12    1  0.1029207E-001  0.2628923E+03  0.7546771E-02  0.1105506E+00
         21   -1    0    0  501  502  0.00000000000E+00  0.00000000000E+00  0.14706862104E+03  0.14706862104E+03  0.00000000000E+00 0.  1.
         21   -1    0    0  502  503 -0.00000000000E+00 -0.00000000000E+00 -0.59672178842E+03  0.59672178842E+03  0.00000000000E+00 0. -1.
         -6    2    1    2    0  503 -0.23685237135E+01  0.19807706309E+03 -0.39716575325E+03  0.47629089552E+03  0.17283590130E+03 0.  0.
        -24    2    3    3    0    0 -0.12461812609E+02  0.19041718212E+03 -0.40871235500E+03  0.45851556798E+03  0.82320938560E+02 0.  0.
          6    2    1    2  501    0  0.23685237135E+01 -0.19807706309E+03 -0.52487414131E+02  0.26749951394E+03  0.17193291857E+03 0.  0.
         24    2    5    5    0    0 -0.54891587670E+02 -0.16952745366E+03 -0.54990452638E+02  0.20329549728E+03  0.80947300075E+02 0.  0.
          5    1    5    5  501    0  0.57260111384E+02 -0.28549609429E+02  0.25030385069E+01  0.64204016666E+02  0.47000000000E+01 0. -1.
        -11    1    6    6    0    0 -0.41223022358E+02 -0.60215815690E+02  0.12594134519E+02  0.74053320356E+02  0.00000000000E+00 0.  1.
         12    1    6    6    0    0 -0.13668565313E+02 -0.10931163797E+03 -0.67584587157E+02  0.12924217692E+03  0.00000000000E+00 0. -1.
         -5    1    3    3    0  503  0.10093288895E+02  0.76598809707E+01  0.11546601755E+02  0.17775327544E+02  0.47000000000E+01 0.  1.
         13    1    4    4    0    0 -0.16193268128E+02  0.17396141108E+03 -0.28964694566E+03  0.33826047303E+03  0.00000000000E+00 0. -1.
        -14    1    4    4    0    0  0.37314555197E+01  0.16455771035E+02 -0.11906540934E+03  0.12025509495E+03  0.00000000000E+00 0.  1.
<mgrwt>
<rscale>  2 0.26274402E+03</rscale>
<asrwt>0</asrwt>
<pdfrwt beam="1">  1       21 0.22625942E-01 0.26289234E+03</pdfrwt>
<pdfrwt beam="2">  1       21 0.91803352E-01 0.26289234E+03</pdfrwt>
<totfact> 0.17664516E+04</totfact>
</mgrwt>
</event>
<event>
12    1  0.1029207E-001  0.1867503E+03  0.7546771E-02  0.1161634E+00
         21   -1    0    0  501  502  0.00000000000E+00  0.00000000000E+00  0.60855197482E+03  0.60855197482E+03  0.00000000000E+00 0. -1.
         21   -1    0    0  502  503 -0.00000000000E+00 -0.00000000000E+00 -0.21505556569E+03  0.21505556569E+03  0.00000000000E+00 0. -1.
         -6    2    1    2    0  503  0.60014886491E+02  0.35783593372E+02 -0.15637759143E+03  0.24288637204E+03  0.17221378129E+03 0.  0.
        -24    2    3    3    0    0  0.10038294758E+02  0.40377169882E+02 -0.16916316925E+03  0.19088327918E+03  0.78033103430E+02 0.  0.
          6    2    1    2  501    0 -0.60014886491E+02 -0.35783593372E+02  0.54987400055E+03  0.58072116847E+03  0.17318604700E+03 0.  0.
         24    2    5    5    0    0  0.23492179447E+02  0.19549838138E+02  0.25021308827E+03  0.26472437885E+03  0.80859931664E+02 0.  0.
          5    1    5    5  501    0 -0.83507065938E+02 -0.55333431510E+02  0.29966091228E+03  0.31599678963E+03  0.47000000000E+01 0. -1.
        -13    1    6    6    0    0 -0.23219996286E+02  0.23589581758E+02  0.57094650823E+02  0.65995725222E+02  0.00000000000E+00 0.  1.
         14    1    6    6    0    0  0.46712175733E+02 -0.40397436194E+01  0.19311843745E+03  0.19872865362E+03  0.00000000000E+00 0. -1.
         -5    1    3    3    0  503  0.49976591733E+02 -0.45935765096E+01  0.12785577822E+02  0.52003092856E+02  0.47000000000E+01 0.  1.
         13    1    4    4    0    0  0.26625631173E+02 -0.11658843065E+02 -0.31914117611E+02  0.43166697347E+02  0.00000000000E+00 0. -1.
        -14    1    4    4    0    0 -0.16587336415E+02  0.52036012947E+02 -0.13724905164E+03  0.14771658183E+03  0.00000000000E+00 0.  1.
<mgrwt>
<rscale>  2 0.18652453E+03</rscale>
<asrwt>0</asrwt>
<pdfrwt beam="1">  1       21 0.93623380E-01 0.18675026E+03</pdfrwt>
<pdfrwt beam="2">  1       21 0.33085472E-01 0.18675026E+03</pdfrwt>
<totfact> 0.84666534E+03</totfact>
</mgrwt>
</event>
<event>
12    1  0.1029207E-001  0.1764433E+03  0.7546771E-02  0.1172079E+00
         21   -1    0    0  501  502  0.00000000000E+00  0.00000000000E+00  0.37945320827E+03  0.37945320827E+03  0.00000000000E+00 0. -1.
         21   -1    0    0  502  503 -0.00000000000E+00 -0.00000000000E+00 -0.10039499171E+03  0.10039499171E+03  0.00000000000E+00 0. -1.
         -6    2    1    2    0  503 -0.18136077998E+02 -0.16665805939E+02  0.24709668753E+03  0.30362643577E+03  0.17471569219E+03 0.  0.
        -24    2    3    3    0    0 -0.63511343910E+02  0.25916261916E+02  0.19664723471E+03  0.22338065988E+03  0.80767820628E+02 0.  0.
          6    2    1    2  501    0  0.18136077998E+02  0.16665805939E+02  0.31961529024E+02  0.17622176421E+03  0.17153980422E+03 0.  0.
         24    2    5    5    0    0 -0.52789204732E+02  0.61277256309E+01  0.42659786506E+02  0.10357199078E+03  0.77993914708E+02 0.  0.
          5    1    5    5  501    0  0.70925282730E+02  0.10538080308E+02 -0.10698257482E+02  0.72649773434E+02  0.47000000000E+01 0. -1.
        -13    1    6    6    0    0  0.19242731295E+02  0.10938149694E+02  0.11477718354E+02  0.24933187623E+02  0.00000000000E+00 0.  1.
         14    1    6    6    0    0 -0.72031936027E+02 -0.48104240630E+01  0.31182068152E+02  0.78638803155E+02  0.00000000000E+00 0. -1.
         -5    1    3    3    0  503  0.45375265912E+02 -0.42582067854E+02  0.50449452815E+02  0.80245775893E+02  0.47000000000E+01 0.  1.
         13    1    4    4    0    0 -0.38851804316E+02 -0.24519305577E+02  0.11902499819E+03  0.12758373422E+03  0.00000000000E+00 0. -1.
        -14    1    4    4    0    0 -0.24659539594E+02  0.50435567493E+02  0.77622236528E+02  0.95796925655E+02  0.00000000000E+00 0.  1.
<mgrwt>
<rscale>  2 0.17565194E+03</rscale>
<asrwt>0</asrwt>
<pdfrwt beam="1">  1       21 0.58377416E-01 0.17644330E+03</pdfrwt>
<pdfrwt beam="2">  1       21 0.15445384E-01 0.17644330E+03</pdfrwt>
<totfact> 0.10283116E+05</totfact>
</mgrwt>
</event>
<event>
12    1  0.1029207E-001  0.1855696E+03  0.7546771E-02  0.1163285E+00
         21   -1    0    0  501  502  0.00000000000E+00  0.00000000000E+00  0.79629888884E+02  0.79629888884E+02  0.00000000000E+00 0.  1.
         21   -1    0    0  502  503 -0.00000000000E+00 -0.00000000000E+00 -0.46326511210E+03  0.46326511210E+03  0.00000000000E+00 0.  1.
         -6    2    1    2    0  503  0.60622713701E+02 -0.33722687331E+02 -0.27151304207E+03  0.32886990085E+03  0.17211550371E+03 0.  0.
        -24    2    3    3    0    0  0.68109791153E+02 -0.29246650519E+02 -0.77729219846E+02  0.13483291729E+03  0.81509347628E+02 0.  0.
          6    2    1    2  501    0 -0.60622713701E+02  0.33722687331E+02 -0.11212218115E+03  0.21402510013E+03  0.16859130144E+03 0.  0.
         24    2    5    5    0    0 -0.17311724916E+02  0.37818376618E+02 -0.13678083597E+03  0.16379805882E+03  0.79942989418E+02 0.  0.
          5    1    5    5  501    0 -0.43310988785E+02 -0.40956892870E+01  0.24658654822E+02  0.50227041302E+02  0.47000000000E+01 0. -1.
        -13    1    6    6    0    0  0.14872783149E+02  0.71122695278E+01  0.33097197168E+01  0.16814823848E+02  0.00000000000E+00 0.  1.
         14    1    6    6    0    0 -0.32184508066E+02  0.30706107090E+02 -0.14009055568E+03  0.14698323498E+03  0.00000000000E+00 0. -1.
         -5    1    3    3    0  503 -0.74870774514E+01 -0.44760368116E+01 -0.19378382222E+03  0.19403698356E+03  0.47000000000E+01 0.  1.
         11    1    4    4    0    0  0.57860560601E+01  0.17515427232E+02 -0.48026376528E+02  0.51447074535E+02  0.00000000000E+00 0. -1.
        -12    1    4    4    0    0  0.62323735093E+02 -0.46762077751E+02 -0.29702843318E+02  0.83385842759E+02  0.00000000000E+00 0.  1.
<mgrwt>
<rscale>  2 0.18474819E+03</rscale>
<asrwt>0</asrwt>
<pdfrwt beam="1">  1       21 0.12250752E-01 0.18556961E+03</pdfrwt>
<pdfrwt beam="2">  1       21 0.71271555E-01 0.18556961E+03</pdfrwt>
<totfact> 0.10097162E+05</totfact>
</mgrwt>
</event>
<event>
12    1  0.1029207E-001  0.1761503E+03  0.7546771E-02  0.1171685E+00
         21   -1    0    0  501  502  0.00000000000E+00  0.00000000000E+00  0.47411012580E+02  0.47411012580E+02  0.00000000000E+00 0. -1.
         21   -1    0    0  502  503 -0.00000000000E+00 -0.00000000000E+00 -0.89537126881E+03  0.89537126881E+03  0.00000000000E+00 0. -1.
         -6    2    1    2    0  503  0.33205549706E+02  0.22685224219E+02 -0.66890818433E+03  0.69160790857E+03  0.17107341175E+03 0.  0.
        -24    2    3    3    0    0  0.50609403775E+02 -0.44974688388E+02 -0.35838520785E+03  0.37328831001E+03  0.79499502103E+02 0.  0.
          6    2    1    2  501    0 -0.33205549706E+02 -0.22685224219E+02 -0.17905207190E+03  0.25117437282E+03  0.17149837661E+03 0.  0.
         24    2    5    5    0    0  0.33319769222E+02  0.17136732346E+02 -0.13580496940E+03  0.16227100866E+03  0.80529596569E+02 0.  0.
          5    1    5    5  501    0 -0.66525318927E+02 -0.39821956564E+02 -0.43247102505E+02  0.88903364155E+02  0.47000000000E+01 0. -1.
        -11    1    6    6    0    0 -0.17470872934E+02  0.29775783959E+02 -0.37988217252E+02  0.51331601976E+02  0.00000000000E+00 0.  1.
         12    1    6    6    0    0  0.50790642156E+02 -0.12639051613E+02 -0.97816752144E+02  0.11093940669E+03  0.00000000000E+00 0. -1.
         -5    1    3    3    0  503 -0.17403854069E+02  0.67659912606E+02 -0.31052297648E+03  0.31831959857E+03  0.47000000000E+01 0.  1.
         11    1    4    4    0    0  0.63322795411E+02 -0.67628232751E+01 -0.20196701331E+03  0.21176918252E+03  0.00000000000E+00 0. -1.
        -12    1    4    4    0    0 -0.12713391636E+02 -0.38211865113E+02 -0.15641819454E+03  0.16151912749E+03  0.00000000000E+00 0.  1.
<mgrwt>
<rscale>  2 0.17604676E+03</rscale>
<asrwt>0</asrwt>
<pdfrwt beam="1">  1       21 0.72940024E-02 0.17615028E+03</pdfrwt>
<pdfrwt beam="2">  1       21 0.13774942E+00 0.17615028E+03</pdfrwt>
<totfact> 0.53032357E+04</totfact>
</mgrwt>
</event>
<event>
12    1  0.1029207E-001  0.2600531E+03  0.7546771E-02  0.1107474E+00
         21   -1    0    0  501  502  0.00000000000E+00  0.00000000000E+00  0.54433867072E+03  0.54433867072E+03  0.00000000000E+00 0. -1.
         21   -1    0    0  502  503 -0.00000000000E+00 -0.00000000000E+00 -0.14930613503E+03  0.14930613503E+03  0.00000000000E+00 0. -1.
         -6    2    1    2    0  503 -0.18335054128E+03 -0.58899408604E+02  0.52949578533E+02  0.26538894104E+03  0.17476003788E+03 0.  0.
        -24    2    3    3    0    0 -0.16630780145E+03 -0.19055223830E+02 -0.13772114922E+02  0.18569020568E+03  0.79182036830E+02 0.  0.
          6    2    1    2  501    0  0.18335054128E+03  0.58899408604E+02  0.34208295716E+03  0.42825586471E+03  0.17116008517E+03 0.  0.
         24    2    5    5    0    0  0.16352095574E+03 -0.10849377917E+02  0.26943896173E+03  0.32550691943E+03  0.80626227321E+02 0.  0.
          5    1    5    5  501    0  0.19829585545E+02  0.69748786521E+02  0.72643995428E+02  0.10274894528E+03  0.47000000000E+01 0. -1.
        -11    1    6    6    0    0  0.26977378681E+00  0.11845505900E+02  0.48121276577E+02  0.49558511351E+02  0.00000000000E+00 0.  1.
         12    1    6    6    0    0  0.16325118195E+03 -0.22694883817E+02  0.22131768515E+03  0.27594840808E+03  0.00000000000E+00 0. -1.
         -5    1    3    3    0  503 -0.17042739830E+02 -0.39844184775E+02  0.66721693455E+02  0.79698735365E+02  0.47000000000E+01 0.  1.
         13    1    4    4    0    0 -0.12843751689E+03  0.20528701352E+02 -0.46248049148E+01  0.13014996022E+03  0.00000000000E+00 0. -1.
        -14    1    4    4    0    0 -0.37870284562E+02 -0.39583925181E+02 -0.91473100072E+01  0.55540245462E+02  0.00000000000E+00 0.  1.
<mgrwt>
<rscale>  2 0.25944968E+03</rscale>
<asrwt>0</asrwt>
<pdfrwt beam="1">  1       21 0.83744410E-01 0.26005313E+03</pdfrwt>
<pdfrwt beam="2">  1       21 0.22970175E-01 0.26005313E+03</pdfrwt>
<totfact> 0.21273896E+04</totfact>
</mgrwt>
</event>
<event>
12    1  0.1029207E-001  0.3343181E+03  0.7546771E-02  0.1069819E+00
         21   -1    0    0  501  502  0.00000000000E+00  0.00000000000E+00  0.16913662919E+04  0.16913662919E+04  0.00000000000E+00 0. -1.
         21   -1    0    0  502  503 -0.00000000000E+00 -0.00000000000E+00 -0.73794898222E+02  0.73794898222E+02  0.00000000000E+00 0.  1.
         -6    2    1    2    0  503  0.14731226623E+03  0.23737113502E+03  0.11183126640E+04  0.11672154117E+04  0.18363725959E+03 0.  0.
        -24    2    3    3    0    0  0.10455701502E+03  0.13647826324E+03  0.42587523000E+03  0.46614546282E+03  0.79770892282E+02 0.  0.
          6    2    1    2  501    0 -0.14731226623E+03 -0.23737113502E+03  0.49925872968E+03  0.59794577852E+03  0.17387902509E+03 0.  0.
         24    2    5    5    0    0 -0.94072975680E+01 -0.13314726301E+03  0.25040768204E+03  0.29491223287E+03  0.80327622752E+02 0.  0.
          5    1    5    5  501    0 -0.13790496866E+03 -0.10422387201E+03  0.24885104763E+03  0.30303354564E+03  0.47000000000E+01 0. -1.
        -11    1    6    6    0    0 -0.47130641639E+01 -0.18833345948E+02 -0.20932311489E+00  0.19415244258E+02  0.00000000000E+00 0.  1.
         12    1    6    6    0    0 -0.46942334041E+01 -0.11431391706E+03  0.25061700516E+03  0.27549698861E+03  0.00000000000E+00 0. -1.
         -5    1    3    3    0  503  0.42755251207E+02  0.10089287177E+03  0.69243743405E+03  0.70106994883E+03  0.47000000000E+01 0.  1.
         11    1    4    4    0    0  0.55920080422E+02  0.68764714932E+02  0.31615726639E+03  0.32834594334E+03  0.00000000000E+00 0. -1.
        -12    1    4    4    0    0  0.48636934596E+02  0.67713548313E+02  0.10971796360E+03  0.13779951948E+03  0.00000000000E+00 0.  1.
<mgrwt>
<rscale>  2 0.33299553E+03</rscale>
<asrwt>0</asrwt>
<pdfrwt beam="1">  1       21 0.26021017E+00 0.33431812E+03</pdfrwt>
<pdfrwt beam="2">  1       21 0.11353063E-01 0.33431812E+03</pdfrwt>
<totfact> 0.33370128E+03</totfact>
</mgrwt>
</event>
<event>
12    1  0.1029207E-001  0.1788449E+03  0.7546771E-02  0.1169507E+00
         21   -1    0    0  503  502  0.00000000000E+00  0.00000000000E+00  0.37350029550E+03  0.37350029550E+03  0.00000000000E+00 0. -1.
         21   -1    0    0  501  503 -0.00000000000E+00 -0.00000000000E+00 -0.14280575528E+03  0.14280575528E+03  0.00000000000E+00 0. -1.
          6    2    1    2  501    0 -0.21169459949E+02 -0.40698752640E+02 -0.50045581055E+02  0.18343895524E+03  0.17041348426E+03 0.  0.
         24    2    3    3    0    0  0.25744320829E+02 -0.79469167752E+02 -0.35555338438E+02  0.12070056950E+03  0.79538209104E+02 0.  0.
         -6    2    1    2    0  502  0.21169459949E+02  0.40698752640E+02  0.28074012128E+03  0.33286709553E+03  0.17286108033E+03 0.  0.
        -24    2    5    5    0    0 -0.47565623781E+02  0.50419835834E+02  0.19807729214E+03  0.22481967763E+03  0.80651257758E+02 0.  0.
          5    1    3    3  501    0 -0.46913780778E+02  0.38770415112E+02 -0.14490242617E+02  0.62738385745E+02  0.47000000000E+01 0. -1.
        -13    1    4    4    0    0  0.32720768627E+02 -0.13455121086E+01 -0.25741740789E+02  0.41654487408E+02  0.00000000000E+00 0.  1.
         14    1    4    4    0    0 -0.69764477979E+01 -0.78123655643E+02 -0.98135976489E+01  0.79046082090E+02  0.00000000000E+00 0. -1.
         -5    1    5    5    0  502  0.68735083731E+02 -0.97210831944E+01  0.82662829136E+02  0.10804741790E+03  0.47000000000E+01 0.  1.
         11    1    6    6    0    0  0.25644198890E+01  0.32084875882E+02  0.14857271482E+03  0.15201929844E+03  0.00000000000E+00 0. -1.
        -12    1    6    6    0    0 -0.50130043670E+02  0.18334959953E+02  0.49504577324E+02  0.72800379195E+02  0.00000000000E+00 0.  1.
<mgrwt>
<rscale>  2 0.17825077E+03</rscale>
<asrwt>0</asrwt>
<pdfrwt beam="1">  1       21 0.57461583E-01 0.17884487E+03</pdfrwt>
<pdfrwt beam="2">  1       21 0.21970116E-01 0.17884487E+03</pdfrwt>
<totfact> 0.55357129E+04</totfact>
</mgrwt>
</event>
<event>
12    1  0.1029207E-001  0.2342185E+03  0.7546771E-02  0.1123917E+00
         21   -1    0    0  503  502  0.00000000000E+00  0.00000000000E+00  0.49440247989E+02  0.49440247989E+02  0.00000000000E+00 0.  1.
         21   -1    0    0  501  503 -0.00000000000E+00 -0.00000000000E+00 -0.15387653797E+04  0.15387653797E+04  0.00000000000E+00 0. -1.
          6    2    1    2  501    0  0.13590248628E+03 -0.80695574852E+02 -0.11654690461E+04  0.11885294404E+04  0.17118081597E+03 0.  0.
         24    2    3    3    0    0  0.81371916107E+02 -0.10182414909E+03 -0.57203667004E+03  0.59220396328E+03  0.80560760838E+02 0.  0.
         -6    2    1    2    0  502 -0.13590248628E+03  0.80695574852E+02 -0.32385608564E+03  0.39967618730E+03  0.17284972926E+03 0.  0.
        -24    2    5    5    0    0 -0.16813690734E+03  0.75729976741E+02 -0.27431468865E+03  0.34017698494E+03  0.80416314809E+02 0.  0.
          5    1    3    3  501    0  0.54530570176E+02  0.21128574237E+02 -0.59343237604E+03  0.59632547712E+03  0.47000000000E+01 0. -1.
        -11    1    4    4    0    0  0.13567693739E+02 -0.45913085973E+02 -0.87308651544E+02  0.99573562814E+02  0.00000000000E+00 0.  1.
         12    1    4    4    0    0  0.67804222369E+02 -0.55911063116E+02 -0.48472801849E+03  0.49263040047E+03  0.00000000000E+00 0. -1.
         -5    1    5    5    0  502  0.32234421054E+02  0.49655981103E+01 -0.49541396990E+02  0.59499202356E+02  0.47000000000E+01 0.  1.
         11    1    6    6    0    0 -0.14214779974E+02  0.40884987151E+02 -0.55319620184E+02  0.70241743439E+02  0.00000000000E+00 0. -1.
        -12    1    6    6    0    0 -0.15392212736E+03  0.34844989590E+02 -0.21899506847E+03  0.26993524150E+03  0.00000000000E+00 0.  1.
<mgrwt>
<rscale>  2 0.23391063E+03</rscale>
<asrwt>0</asrwt>
<pdfrwt beam="1">  1       21 0.76061926E-02 0.23421847E+03</pdfrwt>
<pdfrwt beam="2">  1       21 0.23673312E+00 0.23421847E+03</pdfrwt>
<totfact> 0.10073113E+04</totfact>
</mgrwt>
</event>
<event>
12    1  0.1029207E-001  0.1895107E+03  0.7546771E-02  0.1158996E+00
         21   -1    0    0  503  502  0.00000000000E+00  0.00000000000E+00  0.14547038328E+03  0.14547038328E+03  0.00000000000E+00 0. -1.
         21   -1    0    0  501  503 -0.00000000000E+00 -0.00000000000E+00 -0.28017362982E+03  0.28017362982E+03  0.00000000000E+00 0. -1.
          6    2    1    2  501    0 -0.35392266964E+02 -0.66884196297E+02  0.66576144452E+01  0.18921812748E+03  0.17330051258E+03 0.  0.
         24    2    3    3    0    0  0.20490729726E+02  0.21155154657E+02  0.58469189804E+01  0.84831424002E+02  0.79339608415E+02 0.  0.
         -6    2    1    2    0  502  0.35392266964E+02  0.66884196297E+02 -0.14136086099E+03  0.23642588562E+03  0.17374751249E+03 0.  0.
        -24    2    5    5    0    0  0.57513556402E+02  0.88716146162E+02 -0.15352575241E+03  0.20272039549E+03  0.79668301944E+02 0.  0.
          5    1    3    3  501    0 -0.55882996690E+02 -0.88039350954E+02  0.81069546478E+00  0.10438670348E+03  0.47000000000E+01 0. -1.
        -11    1    4    4    0    0  0.17399249426E+02  0.15626769306E+02  0.42029879296E+02  0.48098238566E+02  0.00000000000E+00 0.  1.
         12    1    4    4    0    0  0.30914803001E+01  0.55283853514E+01 -0.36182960316E+02  0.36733185436E+02  0.00000000000E+00 0. -1.
         -5    1    5    5    0  502 -0.22121289438E+02 -0.21831949866E+02  0.12164891428E+02  0.33705490128E+02  0.47000000000E+01 0.  1.
         13    1    6    6    0    0  0.22864283293E+01  0.35940046223E+02 -0.58880061912E+01  0.36490865897E+02  0.00000000000E+00 0. -1.
        -14    1    6    6    0    0  0.55227128073E+02  0.52776099939E+02 -0.14763774622E+03  0.16622952960E+03  0.00000000000E+00 0.  1.
<mgrwt>
<rscale>  2 0.18940819E+03</rscale>
<asrwt>0</asrwt>
<pdfrwt beam="1">  1       21 0.22380059E-01 0.18951070E+03</pdfrwt>
<pdfrwt beam="2">  1       21 0.43103634E-01 0.18951070E+03</pdfrwt>
<totfact> 0.96841713E+04</totfact>
</mgrwt>
</event>
<event>
12    1  0.1029207E-001  0.3262909E+03  0.7546771E-02  0.1072805E+00
         21   -1    0    0  501  502  0.00000000000E+00  0.00000000000E+00  0.33414821819E+04  0.33414821819E+04  0.00000000000E+00 0.  1.
         21   -1    0    0  502  503 -0.00000000000E+00 -0.00000000000E+00 -0.37435786351E+02  0.37435786351E+02  0.00000000000E+00 0.  1.
         -6    2    1    2    0  503  0.25509305311E+03  0.10798664972E+03  0.99965320477E+03  0.10515570605E+04  0.17243009989E+03 0.  0.
        -24    2    3    3    0    0  0.87574670190E+02  0.73487927494E+02  0.29405054146E+03  0.32550625032E+03  0.80117412061E+02 0.  0.
          6    2    1    2  501    0 -0.25509305311E+03 -0.10798664972E+03  0.23043931908E+04  0.23273609078E+04  0.17218372488E+03 0.  0.
         24    2    5    5    0    0 -0.78920486580E+02  0.22411558310E+02  0.68430798834E+03  0.69250965491E+03  0.67538715513E+02 0.  0.
          5    1    5    5  501    0 -0.17617256653E+03 -0.13039820803E+03  0.16200852025E+04  0.16348512529E+04  0.47000000000E+01 0. -1.
        -11    1    6    6    0    0 -0.77925122771E+02  0.37948802885E+02  0.63255395499E+03  0.63846451927E+03  0.00000000000E+00 0.  1.
         12    1    6    6    0    0 -0.99536380925E+00 -0.15537244575E+02  0.51754033347E+02  0.54045135634E+02  0.00000000000E+00 0. -1.
         -5    1    3    3    0  503  0.16751838292E+03  0.34498722228E+02  0.70560266331E+03  0.72605081015E+03  0.47000000000E+01 0.  1.
         13    1    4    4    0    0  0.70854298920E+02  0.70947583978E+02  0.29167423852E+03  0.30842787287E+03  0.00000000000E+00 0. -1.
        -14    1    4    4    0    0  0.16720371270E+02  0.25403435160E+01  0.23763029442E+01  0.17078377448E+02  0.00000000000E+00 0.  1.
<mgrwt>
<rscale>  2 0.32625832E+03</rscale>
<asrwt>0</asrwt>
<pdfrwt beam="1">  1       21 0.51407395E+00 0.32629085E+03</pdfrwt>
<pdfrwt beam="2">  1       21 0.57593544E-02 0.32629085E+03</pdfrwt>
<totfact> 0.26783735E+02</totfact>
</mgrwt>
</event>
<event>
12    1  0.1029207E-001  0.2392706E+03  0.7546771E-02  0.1120432E+00
         21   -1    0    0  501  502  0.00000000000E+00  0.00000000000E+00  0.30992213232E+03  0.30992213232E+03  0.00000000000E+00 0.  1.
         21   -1    0    0  502  503 -0.00000000000E+00 -0.00000000000E+00 -0.43380825973E+03  0.43380825973E+03  0.00000000000E+00 0. -1.
         -6    2    1    2    0  503 -0.16240197894E+02  0.16514327273E+03 -0.34416807809E+03  0.41916835375E+03  0.17237864792E+03 0.  0.
        -24    2    3    3    0    0  0.33967485518E+02  0.11950144897E+03 -0.30928393592E+03  0.34272895996E+03  0.79826064633E+02 0.  0.
          6    2    1    2  501    0  0.16240197894E+02 -0.16514327273E+03  0.22028195068E+03  0.32456203830E+03  0.17111497408E+03 0.  0.
         24    2    5    5    0    0 -0.10948961729E+02 -0.18435615664E+03  0.16771927748E+03  0.26216564479E+03  0.80585339948E+02 0.  0.
          5    1    5    5  501    0  0.27189159623E+02  0.19212883914E+02  0.52562673202E+02  0.62396393513E+02  0.47000000000E+01 0. -1.
        -13    1    6    6    0    0 -0.13473791591E+02 -0.48759400453E+02  0.96564723006E+02  0.10901269615E+03  0.00000000000E+00 0.  1.
         14    1    6    6    0    0  0.25248298619E+01 -0.13559675619E+03  0.71154554474E+02  0.15315294864E+03  0.00000000000E+00 0. -1.
         -5    1    3    3    0  503 -0.50207683412E+02  0.45641823754E+02 -0.34884142169E+02  0.76439393798E+02  0.47000000000E+01 0.  1.
         11    1    4    4    0    0 -0.22478571562E+02  0.37728327319E+02 -0.59863980888E+02  0.74245599665E+02  0.00000000000E+00 0. -1.
        -12    1    4    4    0    0  0.56446057080E+02  0.81773121654E+02 -0.24941995503E+03  0.26848336029E+03  0.00000000000E+00 0.  1.
<mgrwt>
<rscale>  2 0.23904313E+03</rscale>
<asrwt>0</asrwt>
<pdfrwt beam="1">  1       21 0.47680328E-01 0.23927065E+03</pdfrwt>
<pdfrwt beam="2">  1       21 0.66739732E-01 0.23927065E+03</pdfrwt>
<totfact> 0.83910933E+03</totfact>
</mgrwt>
</event>
<event>
12    1  0.1029207E-001  0.1999742E+03  0.7546771E-02  0.1149829E+00
         21   -1    0    0  501  502  0.00000000000E+00  0.00000000000E+00  0.14677728683E+03  0.14677728683E+03  0.00000000000E+00 0. -1.
         21   -1    0    0  502  503 -0.00000000000E+00 -0.00000000000E+00 -0.51767637860E+03  0.51767637860E+03  0.00000000000E+00 0.  1.
         -6    2    1    2    0  503 -0.98550214907E+02  0.14725596005E+02 -0.41423408616E+03  0.45983789632E+03  0.17300874173E+03 0.  0.
        -24    2    3    3    0    0  0.74919278219E+01  0.31605988267E+02 -0.17960812631E+03  0.20176559111E+03  0.85995390826E+02 0.  0.
          6    2    1    2  501    0  0.98550214907E+02 -0.14725596005E+02  0.43334994391E+02  0.20461576911E+03  0.17338022723E+03 0.  0.
         24    2    5    5    0    0 -0.26745226624E+01  0.18381822171E+01 -0.23185320112E+02  0.82272610385E+02  0.78871359603E+02 0.  0.
          5    1    5    5  501    0  0.10122473757E+03 -0.16563778222E+02  0.66520314503E+02  0.12234315872E+03  0.47000000000E+01 0. -1.
        -13    1    6    6    0    0 -0.14600892603E+02 -0.20472010099E+02 -0.43219829992E+02  0.50002429610E+02  0.00000000000E+00 0.  1.
         14    1    6    6    0    0  0.11926369941E+02  0.22310192316E+02  0.20034509880E+02  0.32270180776E+02  0.00000000000E+00 0. -1.
         -5    1    3    3    0  503 -0.10604214273E+03 -0.16880392262E+02 -0.23462595986E+03  0.25807230521E+03  0.47000000000E+01 0.  1.
         11    1    4    4    0    0  0.21210345743E+02 -0.21331710430E+02 -0.10524166572E+03  0.10945651575E+03  0.00000000000E+00 0. -1.
        -12    1    4    4    0    0 -0.13718417921E+02  0.52937698697E+02 -0.74366460586E+02  0.92309075359E+02  0.00000000000E+00 0.  1.
<mgrwt>
<rscale>  2 0.19989368E+03</rscale>
<asrwt>0</asrwt>
<pdfrwt beam="1">  1       21 0.22581121E-01 0.19997423E+03</pdfrwt>
<pdfrwt beam="2">  1       21 0.79642521E-01 0.19997423E+03</pdfrwt>
<totfact> 0.25422536E+04</totfact>
</mgrwt>
</event>
<event>
12    1  0.1029207E-001  0.2136797E+03  0.7546771E-02  0.1138835E+00
         21   -1    0    0  503  502  0.00000000000E+00  0.00000000000E+00  0.11907240911E+04  0.11907240911E+04  0.00000000000E+00 0.  1.
         21   -1    0    0  501  503 -0.00000000000E+00 -0.00000000000E+00 -0.69773722427E+02  0.69773722427E+02  0.00000000000E+00 0. -1.
          6    2    1    2  501    0  0.94536269140E+02  0.82643700906E+02  0.13711346282E+03  0.25388803223E+03  0.17289286782E+03 0.  0.
         24    2    3    3    0    0  0.10404826246E+03  0.62451953817E+02  0.28785805739E+02  0.14318502435E+03  0.70335205466E+02 0.  0.
         -6    2    1    2    0  502 -0.94536269140E+02 -0.82643700906E+02  0.98383690586E+03  0.10066097813E+04  0.17193343766E+03 0.  0.
        -24    2    5    5    0    0 -0.63913541878E+02  0.18075704150E+02  0.38329312574E+03  0.39689093476E+03  0.78721800913E+02 0.  0.
          5    1    3    3  501    0 -0.95119933242E+01  0.20191747090E+02  0.10832765708E+03  0.11070300789E+03  0.47000000000E+01 0. -1.
        -13    1    4    4    0    0  0.30332498653E+02  0.19221432495E+02  0.43567275804E+02  0.56459113194E+02  0.00000000000E+00 0.  1.
         14    1    4    4    0    0  0.73715763811E+02  0.43230521322E+02 -0.14781470065E+02  0.86725911153E+02  0.00000000000E+00 0. -1.
         -5    1    5    5    0  502 -0.30622727262E+02 -0.10071940506E+03  0.60054378012E+03  0.60971884654E+03  0.47000000000E+01 0.  1.
         11    1    6    6    0    0 -0.37204618210E+02 -0.27979033148E+02  0.13054697612E+03  0.13859842310E+03  0.00000000000E+00 0. -1.
        -12    1    6    6    0    0 -0.26708923668E+02  0.46054737298E+02  0.25274614962E+03  0.25829251166E+03  0.00000000000E+00 0.  1.
<mgrwt>
<rscale>  2 0.21348559E+03</rscale>
<asrwt>0</asrwt>
<pdfrwt beam="1">  1       21 0.18318831E+00 0.21367974E+03</pdfrwt>
<pdfrwt beam="2">  1       21 0.10734420E-01 0.21367974E+03</pdfrwt>
<totfact> 0.12193972E+04</totfact>
</mgrwt>
</event>
<event>
12    1  0.1029207E-001  0.2485853E+03  0.7546771E-02  0.1114484E+00
         21   -1    0    0  501  502  0.00000000000E+00  0.00000000000E+00  0.61599544495E+02  0.61599544495E+02  0.00000000000E+00 0. -1.
         21   -1    0    0  502  503 -0.00000000000E+00 -0.00000000000E+00 -0.10920133927E+04  0.10920133927E+04  0.00000000000E+00 0. -1.
         -6    2    1    2    0  503  0.17454989034E+03 -0.35882657905E+02 -0.34590442821E+03  0.42596307695E+03  0.17331889716E+03 0.  0.
        -24    2    3    3    0    0  0.14093288537E+03 -0.85282234401E+02 -0.22902306275E+03  0.29460949012E+03  0.84900239777E+02 0.  0.
          6    2    1    2  501    0 -0.17454989034E+03  0.35882657905E+02 -0.68450942004E+03  0.72764986029E+03  0.17078039612E+03 0.  0.
         24    2    5    5    0    0 -0.18088612212E+03  0.11325452651E+02 -0.66914483875E+03  0.69762712688E+03  0.77979086211E+02 0.  0.
          5    1    5    5  501    0  0.63362317799E+01  0.24557205255E+02 -0.15364581297E+02  0.30022733412E+02  0.47000000000E+01 0. -1.
        -11    1    6    6    0    0 -0.21893393422E+02  0.22982916704E+02 -0.58966800257E+02  0.66967295513E+02  0.00000000000E+00 0.  1.
         12    1    6    6    0    0 -0.15899272870E+03 -0.11657464053E+02 -0.61017803849E+03  0.63065983137E+03  0.00000000000E+00 0. -1.
         -5    1    3    3    0  503  0.33617004971E+02  0.49399576496E+02 -0.11688136546E+03  0.13135358683E+03  0.47000000000E+01 0.  1.
         13    1    4    4    0    0  0.13413632081E+03 -0.67762436774E+02 -0.23113956605E+03  0.27569874754E+03  0.00000000000E+00 0. -1.
        -14    1    4    4    0    0  0.67965645555E+01 -0.17519797627E+02  0.21165033057E+01  0.18910742579E+02  0.00000000000E+00 0.  1.
<mgrwt>
<rscale>  2 0.24814336E+03</rscale>
<asrwt>0</asrwt>
<pdfrwt beam="1">  1       21 0.94768533E-02 0.24858534E+03</pdfrwt>
<pdfrwt beam="2">  1       21 0.16800205E+00 0.24858534E+03</pdfrwt>
<totfact> 0.18969316E+04</totfact>
</mgrwt>
</event>
<event>
12    1  0.1029207E-001  0.1913329E+03  0.7546771E-02  0.1157409E+00
         21   -1    0    0  501  502  0.00000000000E+00  0.00000000000E+00  0.46879900423E+03  0.46879900423E+03  0.00000000000E+00 0. -1.
         21   -1    0    0  502  503 -0.00000000000E+00 -0.00000000000E+00 -0.78089418608E+02  0.78089418608E+02  0.00000000000E+00 0. -1.
         -6    2    1    2    0  503 -0.80001415562E+02  0.95345532238E+01  0.21155676204E+03  0.28524469356E+03  0.17354289799E+03 0.  0.
        -24    2    3    3    0    0 -0.31697332113E+02 -0.61591743146E+02  0.10920253117E+03  0.15148852328E+03  0.78900672890E+02 0.  0.
          6    2    1    2  501    0  0.80001415562E+02 -0.95345532238E+01  0.17915282359E+03  0.26164372928E+03  0.17283105241E+03 0.  0.
         24    2    5    5    0    0  0.68154377003E+01 -0.80971432756E+01  0.16915888982E+03  0.18761520630E+03  0.80453226843E+02 0.  0.
          5    1    5    5  501    0  0.73185977862E+02 -0.14374099481E+01  0.99939337683E+01  0.74028522984E+02  0.47000000000E+01 0. -1.
        -11    1    6    6    0    0 -0.12405750070E+02  0.14722072450E+02  0.38472143849E+01  0.19632705125E+02  0.00000000000E+00 0.  1.
         12    1    6    6    0    0  0.19221187770E+02 -0.22819215725E+02  0.16531167543E+03  0.16798250117E+03  0.00000000000E+00 0. -1.
         -5    1    3    3    0  503 -0.48304083449E+02  0.71126296370E+02  0.10235423086E+03  0.13375617028E+03  0.47000000000E+01 0.  1.
         13    1    4    4    0    0 -0.67061882518E+01 -0.42953800115E+02  0.62523202230E+01  0.43921445939E+02  0.00000000000E+00 0. -1.
        -14    1    4    4    0    0 -0.24991143862E+02 -0.18637943031E+02  0.10295021095E+03  0.10756707734E+03  0.00000000000E+00 0.  1.
<mgrwt>
<rscale>  2 0.19117132E+03</rscale>
<asrwt>0</asrwt>
<pdfrwt beam="1">  1       21 0.72122922E-01 0.19133288E+03</pdfrwt>
<pdfrwt beam="2">  1       21 0.12013757E-01 0.19133288E+03</pdfrwt>
<totfact> 0.10163008E+05</totfact>
</mgrwt>
</event>
<event>
12    1  0.1029207E-001  0.1946235E+03  0.7546771E-02  0.1154432E+00
         21   -1    0    0  503  502  0.00000000000E+00  0.00000000000E+00  0.26415058283E+03  0.26415058283E+03  0.00000000000E+00 0.  1.
         21   -1    0    0  501  503 -0.00000000000E+00 -0.00000000000E+00 -0.24182757200E+03  0.24182757200E+03  0.00000000000E+00 0.  1.
          6    2    1    2  501    0 -0.81043415775E+02 -0.30596015906E+02 -0.15045639525E+03  0.24572632651E+03  0.17389695005E+03 0.  0.
         24    2    3    3    0    0 -0.94096563226E+02  0.32091062945E+02 -0.11748392721E+03  0.17355065081E+03  0.80208202275E+02 0.  0.
         -6    2    1    2    0  502  0.81043415775E+02  0.30596015906E+02  0.17277940607E+03  0.26025182833E+03  0.17428178205E+03 0.  0.
        -24    2    5    5    0    0  0.63316637913E+02 -0.24832795980E+02  0.37278096467E+02  0.11270764259E+03  0.81778309035E+02 0.  0.
          5    1    3    3  501    0  0.13053147451E+02 -0.62687078851E+02 -0.32972468037E+02  0.72175675693E+02  0.47000000000E+01 0. -1.
        -13    1    4    4    0    0 -0.29933303423E+02 -0.10040560645E+02 -0.84127556095E+02  0.89856892927E+02  0.00000000000E+00 0.  1.
         14    1    4    4    0    0 -0.64163259803E+02  0.42131623590E+02 -0.33356371118E+02  0.83693757886E+02  0.00000000000E+00 0. -1.
         -5    1    5    5    0  502  0.17726777862E+02  0.55428811886E+02  0.13550130961E+03  0.14754418574E+03  0.47000000000E+01 0.  1.
         11    1    6    6    0    0  0.57212306743E+02 -0.73382522022E+01  0.60106485988E+02  0.83305988057E+02  0.00000000000E+00 0. -1.
        -12    1    6    6    0    0  0.61043311705E+01 -0.17494543778E+02 -0.22828389521E+02  0.29401654531E+02  0.00000000000E+00 0.  1.
<mgrwt>
<rscale>  2 0.19453727E+03</rscale>
<asrwt>0</asrwt>
<pdfrwt beam="1">  1       21 0.40638551E-01 0.19462346E+03</pdfrwt>
<pdfrwt beam="2">  1       21 0.37204242E-01 0.19462346E+03</pdfrwt>
<totfact> 0.40608190E+04</totfact>
</mgrwt>
</event>
<event>
12    1  0.1029207E-001  0.1787308E+03  0.7546771E-02  0.1169703E+00
         21   -1    0    0  503  502  0.00000000000E+00  0.00000000000E+00  0.80665157773E+03  0.80665157773E+03  0.00000000000E+00 0.  1.
         21   -1    0    0  501  503 -0.00000000000E+00 -0.00000000000E+00 -0.39011077097E+02  0.39011077097E+02  0.00000000000E+00 0.  1.
          6    2    1    2  501    0  0.19931433890E+02 -0.20185460329E+02  0.38653453166E+03  0.42472743003E+03  0.17372314407E+03 0.  0.
         24    2    3    3    0    0  0.36777867509E+02 -0.30017401830E+01  0.89753180638E+02  0.12693498070E+03  0.81824408994E+02 0.  0.
         -6    2    1    2    0  502 -0.19931433890E+02  0.20185460329E+02  0.38110596897E+03  0.42093522479E+03  0.17646526294E+03 0.  0.
        -24    2    5    5    0    0 -0.60839928491E+02 -0.21219467744E+01  0.12118697940E+03  0.15683089601E+03  0.78763230075E+02 0.  0.
          5    1    3    3  501    0 -0.16846433619E+02 -0.17183720146E+02  0.29678135103E+03  0.29779244933E+03  0.47000000000E+01 0. -1.
        -11    1    4    4    0    0  0.44989050954E+02  0.28219438413E+02  0.73809513134E+02  0.90929619152E+02  0.00000000000E+00 0.  1.
         12    1    4    4    0    0 -0.82111834449E+01 -0.31221178596E+02  0.15943667504E+02  0.36005361544E+02  0.00000000000E+00 0. -1.
         -5    1    5    5    0  502  0.40908494601E+02  0.22307407103E+02  0.25991898957E+03  0.26410432878E+03  0.47000000000E+01 0.  1.
         11    1    6    6    0    0 -0.36874106039E+02  0.18136730322E+02  0.11839753758E+03  0.12532604513E+03  0.00000000000E+00 0. -1.
        -12    1    6    6    0    0 -0.23965822452E+02 -0.20258677097E+02  0.27894418174E+01  0.31504850883E+02  0.00000000000E+00 0.  1.
<mgrwt>
<rscale>  2 0.17805023E+03</rscale>
<asrwt>0</asrwt>
<pdfrwt beam="1">  1       21 0.12410023E+00 0.17873081E+03</pdfrwt>
<pdfrwt beam="2">  1       21 0.60017047E-02 0.17873081E+03</pdfrwt>
<totfact> 0.96320726E+04</totfact>
</mgrwt>
</event>
<event>
12    1  0.1029207E-001  0.2174403E+03  0.7546771E-02  0.1135808E+00
         21   -1    0    0  503  502  0.00000000000E+00  0.00000000000E+00  0.58094020665E+02  0.58094020665E+02  0.00000000000E+00 0.  1.
         21   -1    0    0  501  503 -0.00000000000E+00 -0.00000000000E+00 -0.13641153877E+04  0.13641153877E+04  0.00000000000E+00 0.  1.
          6    2    1    2  501    0 -0.67277411282E+02 -0.11254284227E+03 -0.11046560684E+04  0.11258510865E+04  0.17344595156E+03 0.  0.
         24    2    3    3    0    0 -0.11915698643E+02 -0.92963690692E+02 -0.40196530356E+03  0.42069531407E+03  0.81389252079E+02 0.  0.
         -6    2    1    2    0  502  0.67277411282E+02  0.11254284227E+03 -0.20136529859E+03  0.29635832181E+03  0.17345930364E+03 0.  0.
        -24    2    5    5    0    0 -0.12218970581E+02  0.25497596509E+01 -0.76603619709E+02  0.11195192423E+03  0.80680321455E+02 0.  0.
          5    1    3    3  501    0 -0.55361712639E+02 -0.19579151577E+02 -0.70269076486E+03  0.70515577246E+03  0.47000000000E+01 0. -1.
        -11    1    4    4    0    0  0.63798143167E+01 -0.32803639924E+02 -0.29291147909E+03  0.29481166090E+03  0.00000000000E+00 0.  1.
         12    1    4    4    0    0 -0.18295512960E+02 -0.60160050768E+02 -0.10905382447E+03  0.12588365316E+03  0.00000000000E+00 0. -1.
         -5    1    5    5    0  502  0.79496381864E+02  0.10999308262E+03 -0.12476167888E+03  0.18440639758E+03  0.47000000000E+01 0.  1.
         13    1    6    6    0    0  0.96581523121E+01  0.15118986571E+02 -0.83812759303E+02  0.85711389459E+02  0.00000000000E+00 0. -1.
        -14    1    6    6    0    0 -0.21877122893E+02 -0.12569226920E+02  0.72091395936E+01  0.26240534772E+02  0.00000000000E+00 0.  1.
<mgrwt>
<rscale>  2 0.21743761E+03</rscale>
<asrwt>0</asrwt>
<pdfrwt beam="1">  1       21 0.89375413E-02 0.21744027E+03</pdfrwt>
<pdfrwt beam="2">  1       21 0.20986391E+00 0.21744027E+03</pdfrwt>
<totfact> 0.11266059E+04</totfact>
</mgrwt>
</event>
<event>
12    1  0.1029207E-001  0.2296164E+03  0.7546771E-02  0.1126976E+00
         21   -1    0    0  503  502  0.00000000000E+00  0.00000000000E+00  0.40642638054E+03  0.40642638054E+03  0.00000000000E+00 0. -1.
         21   -1    0    0  501  503 -0.00000000000E+00 -0.00000000000E+00 -0.14019542131E+03  0.14019542131E+03  0.00000000000E+00 0.  1.
          6    2    1    2  501    0 -0.12574359731E+03  0.82795730302E+02  0.57774228825E+02  0.23677324733E+03  0.17336990486E+03 0.  0.
         24    2    3    3    0    0 -0.10476191915E+03  0.27456876382E+02 -0.23826157541E+02  0.13586074747E+03  0.78495332063E+02 0.  0.
         -6    2    1    2    0  502  0.12574359731E+03 -0.82795730302E+02  0.20845673040E+03  0.30984855452E+03  0.17287374893E+03 0.  0.
        -24    2    5    5    0    0  0.10187481899E+03 -0.57146275700E+02  0.54360803538E+02  0.15174966846E+03  0.80179107903E+02 0.  0.
          5    1    3    3  501    0 -0.20981678160E+02  0.55338853920E+02  0.81600386366E+02  0.10091249985E+03  0.47000000000E+01 0. -1.
        -11    1    4    4    0    0 -0.78851222951E+02 -0.15475397690E+02 -0.29315306308E-01  0.80355486147E+02  0.00000000000E+00 0.  1.
         12    1    4    4    0    0 -0.25910696203E+02  0.42932274072E+02 -0.23796842235E+02  0.55505261328E+02  0.00000000000E+00 0. -1.
         -5    1    5    5    0  502  0.23868778321E+02 -0.25649454602E+02  0.15409592686E+03  0.15809888607E+03  0.47000000000E+01 0.  1.
         11    1    6    6    0    0  0.17284942170E+00 -0.38153450284E+02  0.12623155491E+02  0.40187805365E+02  0.00000000000E+00 0. -1.
        -12    1    6    6    0    0  0.10170196957E+03 -0.18992825416E+02  0.41737648047E+02  0.11156186309E+03  0.00000000000E+00 0.  1.
<mgrwt>
<rscale>  2 0.22952279E+03</rscale>
<asrwt>0</asrwt>
<pdfrwt beam="1">  1       21 0.62527135E-01 0.22961644E+03</pdfrwt>
<pdfrwt beam="2">  1       21 0.21568527E-01 0.22961644E+03</pdfrwt>
<totfact> 0.46674381E+04</totfact>
</mgrwt>
</event>
<event>
12    1  0.1029207E-001  0.2500880E+03  0.7546771E-02  0.1114714E+00
         21   -1    0    0  501  502  0.00000000000E+00  0.00000000000E+00  0.17003179296E+04  0.17003179296E+04  0.00000000000E+00 0. -1.
         21   -1    0    0  502  503 -0.00000000000E+00 -0.00000000000E+00 -0.38075648091E+02  0.38075648091E+02  0.00000000000E+00 0.  1.
         -6    2    1    2    0  503  0.16629160970E+03 -0.17990357894E+02  0.10446389021E+04  0.10720768879E+04  0.17349889170E+03 0.  0.
        -24    2    3    3    0    0  0.18635106582E+03  0.12782525890E+02  0.91077685505E+03  0.93318668022E+03  0.80204661654E+02 0.  0.
          6    2    1    2  501    0 -0.16629160970E+03  0.17990357894E+02  0.61760337945E+03  0.66631668980E+03  0.18592322170E+03 0.  0.
         24    2    5    5    0    0 -0.13047006693E+03  0.68612765914E+02  0.30620264525E+03  0.34876619243E+03  0.78406932174E+02 0.  0.
          5    1    5    5  501    0 -0.35821542764E+02 -0.50622408021E+02  0.31140073420E+03  0.31755049737E+03  0.47000000000E+01 0. -1.
        -11    1    6    6    0    0 -0.13069836359E+03  0.40577807225E+02  0.27244172735E+03  0.30488213376E+03  0.00000000000E+00 0.  1.
         12    1    6    6    0    0  0.22829665648E+00  0.28034958689E+02  0.33760917899E+02  0.43884058671E+02  0.00000000000E+00 0. -1.
         -5    1    3    3    0  503 -0.20059456126E+02 -0.30772883784E+02  0.13386204705E+03  0.13889020771E+03  0.47000000000E+01 0.  1.
         11    1    4    4    0    0  0.94994051013E+02 -0.33678395615E+02  0.45247810888E+03  0.46356719370E+03  0.00000000000E+00 0. -1.
        -12    1    4    4    0    0  0.91357014808E+02  0.46460921506E+02  0.45829874616E+03  0.46961948652E+03  0.00000000000E+00 0.  1.
<mgrwt>
<rscale>  2 0.24778297E+03</rscale>
<asrwt>0</asrwt>
<pdfrwt beam="1">  1       21 0.26158732E+00 0.25008798E+03</pdfrwt>
<pdfrwt beam="2">  1       21 0.58577933E-02 0.25008798E+03</pdfrwt>
<totfact> 0.11120692E+04</totfact>
</mgrwt>
</event>
<event>
12    1  0.1029207E-001  0.2194387E+03  0.7546771E-02  0.1134411E+00
         21   -1    0    0  503  502  0.00000000000E+00  0.00000000000E+00  0.20430040885E+03  0.20430040885E+03  0.00000000000E+00 0. -1.
         21   -1    0    0  501  503 -0.00000000000E+00 -0.00000000000E+00 -0.25153297168E+03  0.25153297168E+03  0.00000000000E+00 0.  1.
          6    2    1    2  501    0 -0.44043518568E+00 -0.13358888734E+03 -0.81883419160E+02  0.23367576258E+03  0.17335882695E+03 0.  0.
         24    2    3    3    0    0 -0.59757391132E+02 -0.10144113099E+03 -0.23033161247E+02  0.14402409022E+03  0.79694185448E+02 0.  0.
         -6    2    1    2    0  502  0.44043518568E+00  0.13358888734E+03  0.34650856331E+02  0.22215761795E+03  0.17408946138E+03 0.  0.
        -24    2    5    5    0    0  0.37186270656E+02  0.13304039484E+03 -0.13925343652E+02  0.16106511044E+03  0.81642447434E+02 0.  0.
          5    1    3    3  501    0  0.59316955946E+02 -0.32147756350E+02 -0.58850257913E+02  0.89651672364E+02  0.47000000000E+01 0. -1.
        -11    1    4    4    0    0 -0.67386913080E+02 -0.61784494119E+02  0.98401757963E+01  0.91951883221E+02  0.00000000000E+00 0.  1.
         12    1    4    4    0    0  0.76295219484E+01 -0.39656636872E+02 -0.32873337043E+02  0.52072206997E+02  0.00000000000E+00 0. -1.
         -5    1    5    5    0  502 -0.36745835470E+02  0.54849250551E+00  0.48576199983E+02  0.61092507505E+02  0.47000000000E+01 0.  1.
         11    1    6    6    0    0  0.55770982764E+01  0.12156287297E+03  0.62459035779E+01  0.12185092294E+03  0.00000000000E+00 0. -1.
        -12    1    6    6    0    0  0.31609172380E+02  0.11477521865E+02 -0.20171247230E+02  0.39214187503E+02  0.00000000000E+00 0.  1.
<mgrwt>
<rscale>  2 0.21929372E+03</rscale>
<asrwt>0</asrwt>
<pdfrwt beam="1">  1       21 0.31430832E-01 0.21943866E+03</pdfrwt>
<pdfrwt beam="2">  1       21 0.38697380E-01 0.21943866E+03</pdfrwt>
<totfact> 0.61897138E+04</totfact>
</mgrwt>
</event>
<event>
12    1  0.1029207E-001  0.1903582E+03  0.7546771E-02  0.1158144E+00
         21   -1    0    0  503  502  0.00000000000E+00  0.00000000000E+00  0.20353953071E+03  0.20353953071E+03  0.00000000000E+00 0. -1.
         21   -1    0    0  501  503 -0.00000000000E+00 -0.00000000000E+00 -0.19606832028E+03  0.19606832028E+03  0.00000000000E+00 0. -1.
          6    2    1    2  501    0 -0.31565479928E+02 -0.75122750641E+02  0.64375890480E+02  0.20094904015E+03  0.17203620048E+03 0.  0.
         24    2    3    3    0    0  0.43813127589E+02 -0.50405652629E+02  0.60671092186E+02  0.12139600793E+03  0.81213849480E+02 0.  0.
         -6    2    1    2    0  502  0.31565479928E+02  0.75122750641E+02 -0.56904680047E+02  0.19865881084E+03  0.17200980590E+03 0.  0.
        -24    2    5    5    0    0 -0.26973624285E+02  0.68536600930E+01 -0.67919671800E+02  0.10793441781E+03  0.79134111911E+02 0.  0.
          5    1    3    3  501    0 -0.75378607517E+02 -0.24717098012E+02  0.37047982934E+01  0.79553032222E+02  0.47000000000E+01 0. -1.
        -13    1    4    4    0    0  0.12392259249E+01  0.16975113144E+02 -0.54121204506E+01  0.17860044651E+02  0.00000000000E+00 0.  1.
         14    1    4    4    0    0  0.42573901664E+02 -0.67380765773E+02  0.66083212637E+02  0.10353596328E+03  0.00000000000E+00 0. -1.
         -5    1    5    5    0  502  0.58539104213E+02  0.68269090548E+02  0.11014991752E+02  0.90724393024E+02  0.47000000000E+01 0.  1.
         13    1    6    6    0    0  0.25172855204E+02 -0.18678934385E+01 -0.49686344478E+01  0.25726425972E+02  0.00000000000E+00 0. -1.
        -14    1    6    6    0    0 -0.52146479489E+02  0.87215535315E+01 -0.62951037352E+02  0.82207991842E+02  0.00000000000E+00 0.  1.
<mgrwt>
<rscale>  2 0.19035228E+03</rscale>
<asrwt>0</asrwt>
<pdfrwt beam="1">  1       21 0.31313774E-01 0.19035825E+03</pdfrwt>
<pdfrwt beam="2">  1       21 0.30164357E-01 0.19035825E+03</pdfrwt>
<totfact> 0.10341722E+05</totfact>
</mgrwt>
</event>
<event>
12    1  0.1029207E-001  0.2344997E+03  0.7546771E-02  0.1123662E+00
         21   -1    0    0  501  502  0.00000000000E+00  0.00000000000E+00  0.46398594834E+03  0.46398594834E+03  0.00000000000E+00 0.  1.
         21   -1    0    0  502  503 -0.00000000000E+00 -0.00000000000E+00 -0.25940834164E+03  0.25940834164E+03  0.00000000000E+00 0.  1.
         -6    2    1    2    0  503  0.12513789567E+03  0.94528074141E+02 -0.16477520267E+03  0.28588817725E+03  0.17316504482E+03 0.  0.
        -24    2    3    3    0    0  0.14662854585E+03  0.76859093814E+02 -0.17165231777E+03  0.25684638628E+03  0.95384994566E+02 0.  0.
          6    2    1    2  501    0 -0.12513789567E+03 -0.94528074141E+02  0.36935280937E+03  0.43750611272E+03  0.17434176535E+03 0.  0.
         24    2    5    5    0    0 -0.77538596711E+02 -0.46773423616E+02  0.34625594455E+03  0.36607954153E+03  0.76948453235E+02 0.  0.
          5    1    5    5  501    0 -0.47599298955E+02 -0.47754650524E+02  0.23096864824E+02  0.71426571193E+02  0.47000000000E+01 0. -1.
        -13    1    6    6    0    0 -0.54763619597E+02 -0.62328314897E+02  0.30760107731E+03  0.31859424921E+03  0.00000000000E+00 0.  1.
         14    1    6    6    0    0 -0.22774977114E+02  0.15554891280E+02  0.38654867241E+02  0.47485292320E+02  0.00000000000E+00 0. -1.
         -5    1    3    3    0  503 -0.21490650184E+02  0.17668980327E+02  0.68771150984E+01  0.29041790978E+02  0.47000000000E+01 0.  1.
         13    1    4    4    0    0  0.35366541055E+01  0.35202832455E+02 -0.95481293683E+01  0.36645792522E+02  0.00000000000E+00 0. -1.
        -14    1    4    4    0    0  0.14309189174E+03  0.41656261359E+02 -0.16210418840E+03  0.22020059375E+03  0.00000000000E+00 0.  1.
<mgrwt>
<rscale>  2 0.23428100E+03</rscale>
<asrwt>0</asrwt>
<pdfrwt beam="1">  1       21 0.71382453E-01 0.23449968E+03</pdfrwt>
<pdfrwt beam="2">  1       21 0.39908976E-01 0.23449968E+03</pdfrwt>
<totfact> 0.10453434E+04</totfact>
</mgrwt>
</event>
<event>
12    1  0.1029207E-001  0.2144295E+03  0.7546771E-02  0.1138501E+00
         21   -1    0    0  503  502  0.00000000000E+00  0.00000000000E+00  0.86460581134E+03  0.86460581134E+03  0.00000000000E+00 0.  1.
         21   -1    0    0  501  503 -0.00000000000E+00 -0.00000000000E+00 -0.53329571375E+02  0.53329571375E+02  0.00000000000E+00 0.  1.
          6    2    1    2  501    0  0.10369648884E+03  0.72853274996E+02  0.45838455810E+03  0.50605968606E+03  0.17297237140E+03 0.  0.
         24    2    3    3    0    0  0.10018760487E+03  0.10334629394E+03  0.27941123649E+03  0.32441256573E+03  0.80342150150E+02 0.  0.
         -6    2    1    2    0  502 -0.10369648884E+03 -0.72853274996E+02  0.35289168186E+03  0.41187569666E+03  0.17043617250E+03 0.  0.
        -24    2    5    5    0    0  0.92049520799E+01 -0.44859480914E+02  0.11634871487E+03  0.14823758655E+03  0.79625714713E+02 0.  0.
          5    1    3    3  501    0  0.35088839744E+01 -0.30493018941E+02  0.17897332162E+03  0.18164712032E+03  0.47000000000E+01 0. -1.
        -11    1    4    4    0    0  0.81517842754E+02  0.94219642801E+02  0.27669944236E+03  0.30345523752E+03  0.00000000000E+00 0.  1.
         12    1    4    4    0    0  0.18669762114E+02  0.91266511359E+01  0.27117941257E+01  0.20957328211E+02  0.00000000000E+00 0. -1.
         -5    1    5    5    0  502 -0.11290144092E+03 -0.27993794082E+02  0.23654296699E+03  0.26363811011E+03  0.47000000000E+01 0.  1.
         11    1    6    6    0    0 -0.10815995079E+02 -0.23403286692E+02  0.11606074850E+03  0.11888985205E+03  0.00000000000E+00 0. -1.
        -12    1    6    6    0    0  0.20020947159E+02 -0.21456194222E+02  0.28796636810E+00  0.29347734500E+02  0.00000000000E+00 0.  1.
<mgrwt>
<rscale>  2 0.21391751E+03</rscale>
<asrwt>0</asrwt>
<pdfrwt beam="1">  1       21 0.13301627E+00 0.21442948E+03</pdfrwt>
<pdfrwt beam="2">  1       21 0.82045501E-02 0.21442948E+03</pdfrwt>
<totfact> 0.46289090E+04</totfact>
</mgrwt>
</event>
<event>
12    1  0.1029207E-001  0.2339551E+03  0.7546771E-02  0.1123970E+00
         21   -1    0    0  503  502  0.00000000000E+00  0.00000000000E+00  0.43977809072E+02  0.43977809072E+02  0.00000000000E+00 0.  1.
         21   -1    0    0  501  503 -0.00000000000E+00 -0.00000000000E+00 -0.13697725919E+04  0.13697725919E+04  0.00000000000E+00 0. -1.
          6    2    1    2  501    0 -0.15275196841E+03  0.37227973826E+02 -0.44639469005E+03  0.50376165203E+03  0.17259344385E+03 0.  0.
         24    2    3    3    0    0 -0.39574472744E+01  0.10700560033E+02 -0.19955715802E+03  0.21428907920E+03  0.77243684344E+02 0.  0.
         -6    2    1    2    0  502  0.15275196841E+03 -0.37227973826E+02 -0.87940009282E+03  0.90998874899E+03  0.17325101484E+03 0.  0.
        -24    2    5    5    0    0  0.17052449473E+03 -0.65503333119E+02 -0.75607364766E+03  0.78213390665E+03  0.81956069245E+02 0.  0.
          5    1    3    3  501    0 -0.14879452114E+03  0.26527413792E+02 -0.24683753203E+03  0.28947257283E+03  0.47000000000E+01 0. -1.
        -13    1    4    4    0    0  0.28441092843E+01 -0.90049559814E+01  0.35695035691E+01  0.10095521065E+02  0.00000000000E+00 0.  1.
         14    1    4    4    0    0 -0.68015565587E+01  0.19705516015E+02 -0.20312666159E+03  0.20419355813E+03  0.00000000000E+00 0. -1.
         -5    1    5    5    0  502 -0.17772526315E+02  0.28275359293E+02 -0.12332644516E+03  0.12785484234E+03  0.47000000000E+01 0.  1.
         11    1    6    6    0    0  0.33148417012E+02 -0.52399269204E+02 -0.21807481737E+03  0.22671816631E+03  0.00000000000E+00 0. -1.
        -12    1    6    6    0    0  0.13737607772E+03 -0.13104063915E+02 -0.53799883030E+03  0.55541574034E+03  0.00000000000E+00 0.  1.
<mgrwt>
<rscale>  2 0.23383340E+03</rscale>
<asrwt>0</asrwt>
<pdfrwt beam="1">  1       21 0.67658170E-02 0.23395512E+03</pdfrwt>
<pdfrwt beam="2">  1       21 0.21073424E+00 0.23395512E+03</pdfrwt>
<totfact> 0.17859852E+04</totfact>
</mgrwt>
</event>
<event>
12    1  0.1029207E-001  0.2377815E+03  0.7546771E-02  0.1121399E+00
         21   -1    0    0  501  502  0.00000000000E+00  0.00000000000E+00  0.25160552645E+03  0.25160552645E+03  0.00000000000E+00 0.  1.
         21   -1    0    0  502  503 -0.00000000000E+00 -0.00000000000E+00 -0.41068976241E+03  0.41068976241E+03  0.00000000000E+00 0. -1.
         -6    2    1    2    0  503  0.13236739163E+03 -0.93952926030E+02 -0.30271633435E+03  0.38449996126E+03  0.17278530739E+03 0.  0.
        -24    2    3    3    0    0  0.94575920004E+02 -0.10426118879E+03 -0.30441345777E+03  0.34501039508E+03  0.80929718352E+02 0.  0.
          6    2    1    2  501    0 -0.13236739163E+03  0.93952926030E+02  0.14363209839E+03  0.27779532760E+03  0.17375783628E+03 0.  0.
         24    2    5    5    0    0 -0.42555441541E+01  0.90320771494E+01  0.72734664211E+02  0.10846508159E+03  0.79841433308E+02 0.  0.
          5    1    5    5  501    0 -0.12811184748E+03  0.84920848881E+02  0.70897434180E+02  0.16933024601E+03  0.47000000000E+01 0. -1.
        -13    1    6    6    0    0  0.11620852258E+02  0.37342432950E+02  0.14338346413E+02  0.41654407735E+02  0.00000000000E+00 0.  1.
         14    1    6    6    0    0 -0.15876396412E+02 -0.28310355801E+02  0.58396317798E+02  0.66810673855E+02  0.00000000000E+00 0. -1.
         -5    1    3    3    0  503  0.37791471630E+02  0.10308262760E+02  0.16971234146E+01  0.39489566178E+02  0.47000000000E+01 0.  1.
         13    1    4    4    0    0  0.16393601060E+02 -0.22759225198E+02 -0.15605632699E+03  0.15855696036E+03  0.00000000000E+00 0. -1.
        -14    1    4    4    0    0  0.78182318944E+02 -0.81501963592E+02 -0.14835713078E+03  0.18645343472E+03  0.00000000000E+00 0.  1.
<mgrwt>
<rscale>  2 0.23760391E+03</rscale>
<asrwt>0</asrwt>
<pdfrwt beam="1">  1       21 0.38708543E-01 0.23778155E+03</pdfrwt>
<pdfrwt beam="2">  1       21 0.63183040E-01 0.23778155E+03</pdfrwt>
<totfact> 0.14518960E+04</totfact>
</mgrwt>
</event>
<event>
12    1  0.1029207E-001  0.2184688E+03  0.7546771E-02  0.1135081E+00
         21   -1    0    0  501  502  0.00000000000E+00  0.00000000000E+00  0.11031412968E+03  0.11031412968E+03  0.00000000000E+00 0. -1.
         21   -1    0    0  502  503 -0.00000000000E+00 -0.00000000000E+00 -0.58830352809E+03  0.58830352809E+03  0.00000000000E+00 0. -1.
         -6    2    1    2    0  503  0.13199702174E+03 -0.16946262125E+02 -0.41908693929E+03  0.47261240642E+03  0.17325771115E+03 0.  0.
        -24    2    3    3    0    0  0.16264430935E+03 -0.91234589632E+00 -0.33937169826E+03  0.38558969468E+03  0.83977731117E+02 0.  0.
          6    2    1    2  501    0 -0.13199702174E+03  0.16946262125E+02 -0.58902459123E+02  0.22600525135E+03  0.17291178212E+03 0.  0.
         24    2    5    5    0    0 -0.57311114586E+02  0.36922412424E+02 -0.93761492217E+02  0.14106837186E+03  0.80381837021E+02 0.  0.
          5    1    5    5  501    0 -0.74685907156E+02 -0.19976150300E+02  0.34859033094E+02  0.84936879485E+02  0.47000000000E+01 0. -1.
        -11    1    6    6    0    0  0.18700542682E+02  0.13745014638E+02 -0.90308949630E+01  0.24903670168E+02  0.00000000000E+00 0.  1.
         12    1    6    6    0    0 -0.76011657269E+02  0.23177397787E+02 -0.84730597254E+02  0.11616470169E+03  0.00000000000E+00 0. -1.
         -5    1    3    3    0  503 -0.30647287607E+02 -0.16033916228E+02 -0.79715241031E+02  0.87022711747E+02  0.47000000000E+01 0.  1.
         13    1    4    4    0    0  0.75564527764E+02 -0.39918195235E+02 -0.13100980323E+03  0.15641940004E+03  0.00000000000E+00 0. -1.
        -14    1    4    4    0    0  0.87079781585E+02  0.39005849338E+02 -0.20836189503E+03  0.22917029463E+03  0.00000000000E+00 0.  1.
<mgrwt>
<rscale>  2 0.21840023E+03</rscale>
<asrwt>0</asrwt>
<pdfrwt beam="1">  1       21 0.16971404E-01 0.21846882E+03</pdfrwt>
<pdfrwt beam="2">  1       21 0.90508238E-01 0.21846882E+03</pdfrwt>
<totfact> 0.31998275E+04</totfact>
</mgrwt>
</event>
<event>
12    1  0.1029207E-001  0.2338093E+03  0.7546771E-02  0.1124125E+00
         21   -1    0    0  501  502  0.00000000000E+00  0.00000000000E+00  0.62934808909E+03  0.62934808909E+03  0.00000000000E+00 0.  1.
         21   -1    0    0  502  503 -0.00000000000E+00 -0.00000000000E+00 -0.63820703399E+03  0.63820703399E+03  0.00000000000E+00 0.  1.
         -6    2    1    2    0  503  0.64806515356E+02 -0.14440527592E+03 -0.59365941365E+03  0.63804253142E+03  0.17208719982E+03 0.  0.
        -24    2    3    3    0    0  0.82024334125E+02 -0.10932079994E+03 -0.27798394446E+03  0.31992232524E+03  0.79976197189E+02 0.  0.
          6    2    1    2  501    0 -0.64806515356E+02  0.14440527592E+03  0.58480046875E+03  0.62951259166E+03  0.17100218321E+03 0.  0.
         24    2    5    5    0    0  0.13254173120E+02  0.11046753858E+03  0.26265271024E+03  0.29627617496E+03  0.80089796282E+02 0.  0.
          5    1    5    5  501    0 -0.78060688476E+02  0.33937737337E+02  0.32214775851E+03  0.33323641670E+03  0.47000000000E+01 0. -1.
        -11    1    6    6    0    0  0.12198112311E+02  0.10913232040E+03  0.26855214771E+03  0.29013602558E+03  0.00000000000E+00 0.  1.
         12    1    6    6    0    0  0.10560608086E+01  0.13352181781E+01 -0.58994374675E+01  0.61401493832E+01  0.00000000000E+00 0. -1.
         -5    1    3    3    0  503 -0.17217818769E+02 -0.35084475978E+02 -0.31567546918E+03  0.31812020618E+03  0.47000000000E+01 0.  1.
         13    1    4    4    0    0  0.58002357230E+02 -0.13550313464E+02 -0.10852199822E+03  0.12379381462E+03  0.00000000000E+00 0. -1.
        -14    1    4    4    0    0  0.24021976895E+02 -0.95770486478E+02 -0.16946194624E+03  0.19612851062E+03  0.00000000000E+00 0.  1.
<mgrwt>
<rscale>  2 0.23360965E+03</rscale>
<asrwt>0</asrwt>
<pdfrwt beam="1">  1       21 0.96822784E-01 0.23380927E+03</pdfrwt>
<pdfrwt beam="2">  1       21 0.98185697E-01 0.23380927E+03</pdfrwt>
<totfact> 0.72953959E+02</totfact>
</mgrwt>
</event>
<event>
12    1  0.1029207E-001  0.1810387E+03  0.7546771E-02  0.1166974E+00
         21   -1    0    0  501  502  0.00000000000E+00  0.00000000000E+00  0.90875352869E+02  0.90875352869E+02  0.00000000000E+00 0.  1.
         21   -1    0    0  502  503 -0.00000000000E+00 -0.00000000000E+00 -0.36301289206E+03  0.36301289206E+03  0.00000000000E+00 0. -1.
         -6    2    1    2    0  503  0.50578508112E+02  0.21326633149E+02 -0.15896977715E+03  0.24038891452E+03  0.17176271252E+03 0.  0.
        -24    2    3    3    0    0  0.69877415250E+02 -0.35962565586E+02 -0.67737055974E+02  0.13084440520E+03  0.79723210768E+02 0.  0.
          6    2    1    2  501    0 -0.50578508112E+02 -0.21326633149E+02 -0.11316776204E+03  0.21349933041E+03  0.17251669762E+03 0.  0.
         24    2    5    5    0    0 -0.64908197778E+02 -0.69850233815E+02 -0.60222359832E+02  0.14011550765E+03  0.83147420634E+02 0.  0.
          5    1    5    5  501    0  0.14329689667E+02  0.48523600666E+02 -0.52945402210E+02  0.73383822759E+02  0.47000000000E+01 0. -1.
        -13    1    6    6    0    0  0.11755250900E+02 -0.41001356716E+02 -0.92681393745E+01  0.43648546181E+02  0.00000000000E+00 0.  1.
         14    1    6    6    0    0 -0.76663448678E+02 -0.28848877099E+02 -0.50954220457E+02  0.96466961471E+02  0.00000000000E+00 0. -1.
         -5    1    3    3    0  503 -0.19298907138E+02  0.57289198735E+02 -0.91232721177E+02  0.10954450932E+03  0.47000000000E+01 0.  1.
         11    1    4    4    0    0  0.15109621719E+02  0.12158431658E+02 -0.53037615576E+02  0.56472265714E+02  0.00000000000E+00 0. -1.
        -12    1    4    4    0    0  0.54767793531E+02 -0.48120997244E+02 -0.14699440398E+02  0.74372139488E+02  0.00000000000E+00 0.  1.
<mgrwt>
<rscale>  2 0.18085888E+03</rscale>
<asrwt>0</asrwt>
<pdfrwt beam="1">  1       21 0.13980823E-01 0.18103873E+03</pdfrwt>
<pdfrwt beam="2">  1       21 0.55848137E-01 0.18103873E+03</pdfrwt>
<totfact> 0.13513615E+05</totfact>
</mgrwt>
</event>
<event>
12    1  0.1029207E-001  0.3908232E+03  0.7546771E-02  0.1047342E+00
         21   -1    0    0  503  502  0.00000000000E+00  0.00000000000E+00  0.15193518407E+04  0.15193518407E+04  0.00000000000E+00 0. -1.
         21   -1    0    0  501  503 -0.00000000000E+00 -0.00000000000E+00 -0.22016575028E+03  0.22016575028E+03  0.00000000000E+00 0. -1.
          6    2    1    2  501    0  0.33837960525E+03 -0.88745100507E+02  0.72946720616E+01  0.39089131272E+03  0.17425945027E+03 0.  0.
         24    2    3    3    0    0  0.21615172519E+03 -0.11555755992E+02 -0.47084939506E+02  0.23636920516E+03  0.82451839400E+02 0.  0.
         -6    2    1    2    0  502 -0.33837960525E+03  0.88745100507E+02  0.12918914184E+04  0.13486262783E+04  0.16562895723E+03 0.  0.
        -24    2    5    5    0    0 -0.29704964913E+03  0.12192998755E+03  0.11140960659E+04  0.11630388882E+04  0.91345473078E+02 0.  0.
          5    1    3    3  501    0  0.12222788006E+03 -0.77189344514E+02  0.54379611568E+02  0.15452210756E+03  0.47000000000E+01 0. -1.
        -11    1    4    4    0    0  0.36796772071E+02  0.20972331096E+02  0.13224729131E+02  0.44370424463E+02  0.00000000000E+00 0.  1.
         12    1    4    4    0    0  0.17935495312E+03 -0.32528087089E+02 -0.60309668637E+02  0.19199878070E+03  0.00000000000E+00 0. -1.
         -5    1    5    5    0  502 -0.41329956119E+02 -0.33184887043E+02  0.17779535252E+03  0.18558739013E+03  0.47000000000E+01 0.  1.
         11    1    6    6    0    0 -0.25929742733E+03  0.68459840365E+02  0.91123836621E+03  0.94988276414E+03  0.00000000000E+00 0. -1.
        -12    1    6    6    0    0 -0.37752221801E+02  0.53470147185E+02  0.20285769968E+03  0.21315612403E+03  0.00000000000E+00 0.  1.
<mgrwt>
<rscale>  2 0.38987705E+03</rscale>
<asrwt>0</asrwt>
<pdfrwt beam="1">  1       21 0.23374643E+00 0.39082324E+03</pdfrwt>
<pdfrwt beam="2">  1       21 0.33871655E-01 0.39082324E+03</pdfrwt>
<totfact> 0.58851557E+02</totfact>
</mgrwt>
</event>
<event>
12    1  0.1029207E-001  0.2281494E+03  0.7546771E-02  0.1127987E+00
         21   -1    0    0  501  502  0.00000000000E+00  0.00000000000E+00  0.18490500070E+03  0.18490500070E+03  0.00000000000E+00 0. -1.
         21   -1    0    0  502  503 -0.00000000000E+00 -0.00000000000E+00 -0.57778769717E+03  0.57778769717E+03  0.00000000000E+00 0.  1.
         -6    2    1    2    0  503  0.43347880125E+01  0.14845319923E+03 -0.46968658537E+03  0.52216630760E+03  0.17319070866E+03 0.  0.
        -24    2    3    3    0    0  0.30353202497E+02  0.15578395975E+03 -0.28968222945E+03  0.34008293084E+03  0.80936065954E+02 0.  0.
          6    2    1    2  501    0 -0.43347880125E+01 -0.14845319923E+03  0.76803888896E+02  0.24052639027E+03  0.17290738654E+03 0.  0.
         24    2    5    5    0    0  0.26194809653E+02 -0.27892690015E+02 -0.94064990750E+01  0.89128854921E+02  0.79945608671E+02 0.  0.
          5    1    5    5  501    0 -0.30529597665E+02 -0.12056050922E+03  0.86210387971E+02  0.15139753535E+03  0.47000000000E+01 0. -1.
        -13    1    6    6    0    0 -0.58757696562E+01 -0.45757035120E+02 -0.20921079923E+02  0.50654935763E+02  0.00000000000E+00 0.  1.
         14    1    6    6    0    0  0.32070579309E+02  0.17864345106E+02  0.11514580848E+02  0.38473919158E+02  0.00000000000E+00 0. -1.
         -5    1    3    3    0  503 -0.26018414484E+02 -0.73307605201E+01 -0.18000435592E+03  0.18208337676E+03  0.47000000000E+01 0.  1.
         11    1    4    4    0    0 -0.12535751830E+02  0.77600968324E+02 -0.79663934165E+02  0.11191692350E+03  0.00000000000E+00 0. -1.
        -12    1    4    4    0    0  0.42888954327E+02  0.78182991429E+02 -0.21001829528E+03  0.22816600734E+03  0.00000000000E+00 0.  1.
<mgrwt>
<rscale>  2 0.22809567E+03</rscale>
<asrwt>0</asrwt>
<pdfrwt beam="1">  1       21 0.28446923E-01 0.22814943E+03</pdfrwt>
<pdfrwt beam="2">  1       21 0.88890414E-01 0.22814943E+03</pdfrwt>
<totfact> 0.12488160E+04</totfact>
</mgrwt>
</event>
<event>
12    1  0.1029207E-001  0.1841956E+03  0.7546771E-02  0.1163834E+00
         21   -1    0    0  501  502  0.00000000000E+00  0.00000000000E+00  0.20804964479E+03  0.20804964479E+03  0.00000000000E+00 0. -1.
         21   -1    0    0  502  503 -0.00000000000E+00 -0.00000000000E+00 -0.60884410884E+03  0.60884410884E+03  0.00000000000E+00 0. -1.
         -6    2    1    2    0  503 -0.62041201736E+02  0.10163664378E+02 -0.54995328618E+03  0.57997985541E+03  0.17313464387E+03 0.  0.
        -24    2    3    3    0    0  0.14253219960E+02 -0.12290981375E+02 -0.41536406256E+03  0.42357845192E+03  0.80852816653E+02 0.  0.
          6    2    1    2  501    0  0.62041201736E+02 -0.10163664378E+02  0.14915882214E+03  0.23691389822E+03  0.17299546284E+03 0.  0.
         24    2    5    5    0    0  0.41702730545E+01  0.25934626800E+02  0.16647554505E+02  0.87805021683E+02  0.82113243251E+02 0.  0.
          5    1    5    5  501    0  0.57870928682E+02 -0.36098291178E+02  0.13251126763E+03  0.14910887654E+03  0.47000000000E+01 0. -1.
        -11    1    6    6    0    0  0.30442313825E+02 -0.17042613054E+02  0.13249235892E+02  0.37319262887E+02  0.00000000000E+00 0.  1.
         12    1    6    6    0    0 -0.26272040770E+02  0.42977239854E+02  0.33983186129E+01  0.50485758795E+02  0.00000000000E+00 0. -1.
         -5    1    3    3    0  503 -0.76294421697E+02  0.22454645753E+02 -0.13458922363E+03  0.15640140349E+03  0.47000000000E+01 0.  1.
         11    1    4    4    0    0 -0.27295307883E+02 -0.14501168244E+02 -0.82067261056E+02  0.87694658048E+02  0.00000000000E+00 0. -1.
        -12    1    4    4    0    0  0.41548527844E+02  0.22101868691E+01 -0.33329680150E+03  0.33588379387E+03  0.00000000000E+00 0.  1.
<mgrwt>
<rscale>  2 0.18416288E+03</rscale>
<asrwt>0</asrwt>
<pdfrwt beam="1">  1       21 0.32007637E-01 0.18419559E+03</pdfrwt>
<pdfrwt beam="2">  1       21 0.93668325E-01 0.18419559E+03</pdfrwt>
<totfact> 0.90427566E+03</totfact>
</mgrwt>
</event>
<event>
12    1  0.1029207E-001  0.1773099E+03  0.7546771E-02  0.1171145E+00
         21   -1    0    0  501  502  0.00000000000E+00  0.00000000000E+00  0.92371678513E+03  0.92371678513E+03  0.00000000000E+00 0.  1.
         21   -1    0    0  502  503 -0.00000000000E+00 -0.00000000000E+00 -0.15612116030E+03  0.15612116030E+03  0.00000000000E+00 0.  1.
         -6    2    1    2    0  503  0.37558197603E+02 -0.12591581865E+02 -0.95392310022E+02  0.19882319917E+03  0.16988762631E+03 0.  0.
        -24    2    3    3    0    0 -0.30468221919E+01 -0.22234304759E+02  0.10242626733E+02  0.85145674559E+02  0.81493724054E+02 0.  0.
          6    2    1    2  501    0 -0.37558197603E+02  0.12591581865E+02  0.86298793485E+03  0.88101474626E+03  0.17282835791E+03 0.  0.
         24    2    5    5    0    0 -0.22246116887E+02  0.60941792706E+02  0.34305517749E+03  0.35859311111E+03  0.81813035128E+02 0.  0.
          5    1    5    5  501    0 -0.15312080716E+02 -0.48350210841E+02  0.51993275736E+03  0.52242163515E+03  0.47000000000E+01 0. -1.
        -13    1    6    6    0    0 -0.37492231141E+02  0.37932441866E+02  0.31407615598E+03  0.31857239256E+03  0.00000000000E+00 0.  1.
         14    1    6    6    0    0  0.15246114254E+02  0.23009350840E+02  0.28979021506E+02  0.40020718551E+02  0.00000000000E+00 0. -1.
         -5    1    3    3    0  503  0.40605019795E+02  0.96427228939E+01 -0.10563493676E+03  0.11367752461E+03  0.47000000000E+01 0.  1.
         11    1    4    4    0    0  0.14501848497E+02  0.83587537238E+00  0.40631252490E+02  0.43149750595E+02  0.00000000000E+00 0. -1.
        -12    1    4    4    0    0 -0.17548670689E+02 -0.23070180131E+02 -0.30388625756E+02  0.41995923964E+02  0.00000000000E+00 0.  1.
<mgrwt>
<rscale>  2 0.17658925E+03</rscale>
<asrwt>0</asrwt>
<pdfrwt beam="1">  1       21 0.14211027E+00 0.17730992E+03</pdfrwt>
<pdfrwt beam="2">  1       21 0.24018641E-01 0.17730992E+03</pdfrwt>
<totfact> 0.57000267E+03</totfact>
</mgrwt>
</event>
<event>
12    1  0.1029207E-001  0.2578848E+03  0.7546771E-02  0.1108521E+00
         21   -1    0    0  501  502  0.00000000000E+00  0.00000000000E+00  0.46214764234E+03  0.46214764234E+03  0.00000000000E+00 0.  1.
         21   -1    0    0  502  503 -0.00000000000E+00 -0.00000000000E+00 -0.20603867919E+03  0.20603867919E+03  0.00000000000E+00 0. -1.
         -6    2    1    2    0  503  0.11853127249E+03  0.14960177014E+03 -0.55841992180E+02  0.26386149052E+03  0.17341916243E+03 0.  0.
        -24    2    3    3    0    0 -0.69116702750E+01  0.84514340767E+02 -0.98183416695E+01  0.11515852566E+03  0.77295803359E+02 0.  0.
          6    2    1    2  501    0 -0.11853127249E+03 -0.14960177014E+03  0.31195095533E+03  0.40432483101E+03  0.17243786781E+03 0.  0.
         24    2    5    5    0    0 -0.11075088244E+03 -0.36312853174E+02  0.19773014218E+03  0.24319321607E+03  0.80382522666E+02 0.  0.
          5    1    5    5  501    0 -0.77803900517E+01 -0.11328891697E+03  0.11422081315E+03  0.16113161494E+03  0.47000000000E+01 0. -1.
        -11    1    6    6    0    0  0.28590900523E+01  0.13164301691E+02  0.56443453823E+01  0.14605884764E+02  0.00000000000E+00 0.  1.
         12    1    6    6    0    0 -0.11360997249E+03 -0.49477154866E+02  0.19208579680E+03  0.22858733131E+03  0.00000000000E+00 0. -1.
         -5    1    3    3    0  503  0.12544294276E+03  0.65087429373E+02 -0.46023650510E+02  0.14870296486E+03  0.47000000000E+01 0.  1.
         13    1    4    4    0    0 -0.32207423911E+02  0.72562511758E+01  0.16701090914E+01  0.33056929690E+02  0.00000000000E+00 0. -1.
        -14    1    4    4    0    0  0.25295753636E+02  0.77258089591E+02 -0.11488450761E+02  0.82101595966E+02  0.00000000000E+00 0.  1.
<mgrwt>
<rscale>  2 0.25771990E+03</rscale>
<asrwt>0</asrwt>
<pdfrwt beam="1">  1       21 0.71099637E-01 0.25788478E+03</pdfrwt>
<pdfrwt beam="2">  1       21 0.31698259E-01 0.25788478E+03</pdfrwt>
<totfact> 0.16514964E+04</totfact>
</mgrwt>
</event>
<event>
12    1  0.1029207E-001  0.1995591E+03  0.7546771E-02  0.1151604E+00
         21   -1    0    0  503  502  0.00000000000E+00  0.00000000000E+00  0.13150494160E+03  0.13150494160E+03  0.00000000000E+00 0. -1.
         21   -1    0    0  501  503 -0.00000000000E+00 -0.00000000000E+00 -0.29725441739E+03  0.29725441739E+03  0.00000000000E+00 0.  1.
          6    2    1    2  501    0  0.16182645629E+01  0.98823813776E+02 -0.56971202928E+02  0.20753202938E+03  0.17336395330E+03 0.  0.
         24    2    3    3    0    0  0.36013117132E+02  0.12630751144E+03 -0.37281204594E+02  0.15907436172E+03  0.81634749257E+02 0.  0.
         -6    2    1    2    0  502 -0.16182645629E+01 -0.98823813776E+02 -0.10877827286E+03  0.22122732961E+03  0.16534828022E+03 0.  0.
        -24    2    5    5    0    0  0.48869472635E+02 -0.39937434877E+02 -0.21679825292E+02  0.10450181057E+03  0.80420081615E+02 0.  0.
          5    1    3    3  501    0 -0.34394852569E+02 -0.27483697669E+02 -0.19689998334E+02  0.48457667661E+02  0.47000000000E+01 0. -1.
        -13    1    4    4    0    0 -0.27254462610E+01 -0.10949204321E+02 -0.69941921319E+01  0.13275234693E+02  0.00000000000E+00 0.  1.
         14    1    4    4    0    0  0.38738563393E+02  0.13725671577E+03 -0.30287012462E+02  0.14579912702E+03  0.00000000000E+00 0. -1.
         -5    1    5    5    0  502 -0.50487737198E+02 -0.58886378899E+02 -0.87098447568E+02  0.11672551904E+03  0.47000000000E+01 0.  1.
         11    1    6    6    0    0  0.24713367910E+02  0.62023116467E+01 -0.41565747125E+02  0.48753774800E+02  0.00000000000E+00 0. -1.
        -12    1    6    6    0    0  0.24156104725E+02 -0.46139746523E+02  0.19885921833E+02  0.55748035767E+02  0.00000000000E+00 0.  1.
<mgrwt>
<rscale>  2 0.19780545E+03</rscale>
<asrwt>0</asrwt>
<pdfrwt beam="1">  1       21 0.20231530E-01 0.19955908E+03</pdfrwt>
<pdfrwt beam="2">  1       21 0.45731448E-01 0.19955908E+03</pdfrwt>
<totfact> 0.10327864E+05</totfact>
</mgrwt>
</event>
<event>
12    1  0.1029207E-001  0.1736617E+03  0.7546771E-02  0.1174403E+00
         21   -1    0    0  501  502  0.00000000000E+00  0.00000000000E+00  0.17937180781E+02  0.17937180781E+02  0.00000000000E+00 0. -1.
         21   -1    0    0  502  503 -0.00000000000E+00 -0.00000000000E+00 -0.19070141809E+04  0.19070141809E+04  0.00000000000E+00 0. -1.
         -6    2    1    2    0  503 -0.12169341694E+02  0.10501176147E+02 -0.12874523253E+04  0.12991119532E+04  0.17291619265E+03 0.  0.
        -24    2    3    3    0    0 -0.34645219470E+02  0.28325411379E+02 -0.45477440177E+03  0.46592681013E+03  0.90914331835E+02 0.  0.
          6    2    1    2  501    0  0.12169341694E+02 -0.10501176147E+02 -0.60162467486E+03  0.62583940843E+03  0.17165182250E+03 0.  0.
         24    2    5    5    0    0  0.42493768102E+02 -0.53217872961E+02 -0.27098189080E+03  0.29103942684E+03  0.81454898584E+02 0.  0.
          5    1    5    5  501    0 -0.30324426408E+02  0.42716696814E+02 -0.33064278405E+03  0.33479998158E+03  0.47000000000E+01 0. -1.
        -13    1    6    6    0    0 -0.61863189689E+01 -0.14672090084E+02 -0.18108056380E+03  0.18177929298E+03  0.00000000000E+00 0.  1.
         14    1    6    6    0    0  0.48680087071E+02 -0.38545782878E+02 -0.89901327002E+02  0.10926013386E+03  0.00000000000E+00 0. -1.
         -5    1    3    3    0  503  0.22475877776E+02 -0.17824235231E+02 -0.83267792349E+03  0.83318514311E+03  0.47000000000E+01 0.  1.
         13    1    4    4    0    0  0.17540765437E+02  0.41414385509E+02 -0.25984650598E+03  0.26371013717E+03  0.00000000000E+00 0. -1.
        -14    1    4    4    0    0 -0.52185984908E+02 -0.13088974131E+02 -0.19492789580E+03  0.20221667296E+03  0.00000000000E+00 0.  1.
<mgrwt>
<rscale>  2 0.17334609E+03</rscale>
<asrwt>0</asrwt>
<pdfrwt beam="1">  1       21 0.27595687E-02 0.17366167E+03</pdfrwt>
<pdfrwt beam="2">  1       21 0.29338654E+00 0.17366167E+03</pdfrwt>
<totfact> 0.27577841E+04</totfact>
</mgrwt>
</event>
<event>
12    1  0.1029207E-001  0.1842569E+03  0.7546771E-02  0.1163749E+00
         21   -1    0    0  501  502  0.00000000000E+00  0.00000000000E+00  0.69546843814E+03  0.69546843814E+03  0.00000000000E+00 0.  1.
         21   -1    0    0  502  503 -0.00000000000E+00 -0.00000000000E+00 -0.56237096199E+02  0.56237096199E+02  0.00000000000E+00 0.  1.
         -6    2    1    2    0  503  0.55548116460E+02 -0.30876138119E+02  0.18304984399E+03  0.25971756449E+03  0.17293651659E+03 0.  0.
        -24    2    3    3    0    0 -0.26347208371E+02  0.67757864336E+01  0.11814292181E+03  0.14854423046E+03  0.85834443893E+02 0.  0.
          6    2    1    2  501    0 -0.55548116460E+02  0.30876138119E+02  0.45618149795E+03  0.49198796985E+03  0.17294991836E+03 0.  0.
         24    2    5    5    0    0 -0.70799780371E+02 -0.35715409933E+02  0.24106172833E+03  0.26623223281E+03  0.80502456586E+02 0.  0.
          5    1    5    5  501    0  0.15251663911E+02  0.66591548052E+02  0.21511976962E+03  0.22575573704E+03  0.47000000000E+01 0. -1.
        -11    1    6    6    0    0 -0.49359428690E+02  0.15071494000E+02  0.73305865453E+02  0.89650728061E+02  0.00000000000E+00 0.  1.
         12    1    6    6    0    0 -0.21440351681E+02 -0.50786903933E+02  0.16775586288E+03  0.17658150475E+03  0.00000000000E+00 0. -1.
         -5    1    3    3    0  503  0.81895324831E+02 -0.37651924552E+02  0.64906922177E+02  0.11117333402E+03  0.47000000000E+01 0.  1.
         13    1    4    4    0    0 -0.10233860625E+02  0.21496834933E+02  0.12374235368E+03  0.12601196733E+03  0.00000000000E+00 0. -1.
        -14    1    4    4    0    0 -0.16113347746E+02 -0.14721048499E+02 -0.55994318717E+01  0.22532263131E+02  0.00000000000E+00 0.  1.
<mgrwt>
<rscale>  2 0.18425375E+03</rscale>
<asrwt>0</asrwt>
<pdfrwt beam="1">  1       21 0.10699514E+00 0.18425690E+03</pdfrwt>
<pdfrwt beam="2">  1       21 0.86518615E-02 0.18425690E+03</pdfrwt>
<totfact> 0.73368926E+04</totfact>
</mgrwt>
</event>
<event>
12    1  0.1029207E-001  0.2559606E+03  0.7546771E-02  0.1110540E+00
         21   -1    0    0  503  502  0.00000000000E+00  0.00000000000E+00  0.84964538335E+02  0.84964538335E+02  0.00000000000E+00 0.  1.
         21   -1    0    0  501  503 -0.00000000000E+00 -0.00000000000E+00 -0.98785715069E+03  0.98785715069E+03  0.00000000000E+00 0. -1.
          6    2    1    2  501    0 -0.13986450285E+03  0.11114211056E+03 -0.70891385059E+03  0.75166194931E+03  0.17470601187E+03 0.  0.
         24    2    3    3    0    0 -0.11094979109E+03  0.60999400660E+02 -0.65644795722E+03  0.67339885533E+03  0.80692718327E+02 0.  0.
         -6    2    1    2    0  502  0.13986450285E+03 -0.11114211056E+03 -0.19397876177E+03  0.32115973972E+03  0.18330622057E+03 0.  0.
        -24    2    5    5    0    0  0.22799724535E+02  0.12082480245E+02 -0.79243168520E+02  0.11603829164E+03  0.80743988031E+02 0.  0.
          5    1    3    3  501    0 -0.28914711760E+02  0.50142709903E+02 -0.52465893364E+02  0.78263093978E+02  0.47000000000E+01 0. -1.
        -13    1    4    4    0    0  0.59717651786E+01 -0.10012405730E+02 -0.85526747516E+02  0.86317638918E+02  0.00000000000E+00 0.  1.
         14    1    4    4    0    0 -0.11692155627E+03  0.71011806391E+02 -0.57092120971E+03  0.58708121641E+03  0.00000000000E+00 0. -1.
         -5    1    5    5    0  502  0.11706477832E+03 -0.12322459081E+03 -0.11473559325E+03  0.20512144807E+03  0.47000000000E+01 0.  1.
         13    1    6    6    0    0  0.31775396144E+02 -0.93612094352E+00 -0.90961711081E+02  0.96356551440E+02  0.00000000000E+00 0. -1.
        -14    1    6    6    0    0 -0.89756716093E+01  0.13018601188E+02  0.11718542561E+02  0.19681740205E+02  0.00000000000E+00 0.  1.
<mgrwt>
<rscale>  2 0.25442508E+03</rscale>
<asrwt>0</asrwt>
<pdfrwt beam="1">  1       21 0.13071467E-01 0.25596058E+03</pdfrwt>
<pdfrwt beam="2">  1       21 0.15197803E+00 0.25596058E+03</pdfrwt>
<totfact> 0.13954006E+04</totfact>
</mgrwt>
</event>
<event>
12    1  0.1029207E-001  0.1792049E+03  0.7546771E-02  0.1169695E+00
         21   -1    0    0  503  502  0.00000000000E+00  0.00000000000E+00  0.94201575204E+02  0.94201575204E+02  0.00000000000E+00 0. -1.
         21   -1    0    0  501  503 -0.00000000000E+00 -0.00000000000E+00 -0.82697327264E+03  0.82697327264E+03  0.00000000000E+00 0. -1.
          6    2    1    2  501    0 -0.69476791117E+01  0.25218935642E+02 -0.72447708694E+03  0.74631190062E+03  0.17728547186E+03 0.  0.
         24    2    3    3    0    0 -0.24756351458E+02  0.69721238321E+02 -0.30798852357E+03  0.32704776290E+03  0.81421008069E+02 0.  0.
         -6    2    1    2    0  502  0.69476791117E+01 -0.25218935642E+02 -0.82946104960E+01  0.17486294723E+03  0.17269622113E+03 0.  0.
        -24    2    5    5    0    0  0.15104703668E+02 -0.69214558964E+02 -0.46330270811E+02  0.11594814963E+03  0.79238072691E+02 0.  0.
          5    1    3    3  501    0  0.17808672346E+02 -0.44502302679E+02 -0.41648856337E+03  0.41926413772E+03  0.47000000000E+01 0. -1.
        -13    1    4    4    0    0  0.28156252442E+02  0.14635015757E+02 -0.64917871715E+02  0.72258482587E+02  0.00000000000E+00 0.  1.
         14    1    4    4    0    0 -0.52912603900E+02  0.55086222564E+02 -0.24307065185E+03  0.25478928031E+03  0.00000000000E+00 0. -1.
         -5    1    5    5    0  502 -0.81570245567E+01  0.43995623321E+02  0.38035660315E+02  0.58914797603E+02  0.47000000000E+01 0.  1.
         13    1    6    6    0    0  0.18019091450E+01 -0.44573890251E+02  0.16178857306E+02  0.47453492943E+02  0.00000000000E+00 0. -1.
        -14    1    6    6    0    0  0.13302794523E+02 -0.24640668712E+02 -0.62509128118E+02  0.68494656687E+02  0.00000000000E+00 0.  1.
<mgrwt>
<rscale>  2 0.17805928E+03</rscale>
<asrwt>0</asrwt>
<pdfrwt beam="1">  1       21 0.14492550E-01 0.17920492E+03</pdfrwt>
<pdfrwt beam="2">  1       21 0.12722665E+00 0.17920492E+03</pdfrwt>
<totfact> 0.19226706E+04</totfact>
</mgrwt>
</event>
<event>
12    1  0.1029207E-001  0.2538081E+03  0.7546771E-02  0.1111504E+00
         21   -1    0    0  503  502  0.00000000000E+00  0.00000000000E+00  0.17760505175E+03  0.17760505175E+03  0.00000000000E+00 0. -1.
         21   -1    0    0  501  503 -0.00000000000E+00 -0.00000000000E+00 -0.37004979899E+03  0.37004979899E+03  0.00000000000E+00 0.  1.
          6    2    1    2  501    0 -0.17190723466E+03 -0.64980632497E+02 -0.14616629582E+03  0.28966208274E+03  0.16960234731E+03 0.  0.
         24    2    3    3    0    0 -0.13423002036E+03  0.14641861611E+02 -0.11898035547E+03  0.19735563985E+03  0.80999019229E+02 0.  0.
         -6    2    1    2    0  502  0.17190723466E+03  0.64980632497E+02 -0.46278451419E+02  0.25799276801E+03  0.17505425830E+03 0.  0.
        -24    2    5    5    0    0  0.25916402296E+02 -0.63765740021E+01  0.87390543538E+01  0.86370537521E+02  0.81677280053E+02 0.  0.
          5    1    3    3  501    0 -0.37677214306E+02 -0.79622494108E+02 -0.27185940346E+02  0.92306442887E+02  0.47000000000E+01 0. -1.
        -11    1    4    4    0    0 -0.12409504464E+03 -0.73367319545E+01 -0.69861063038E+02  0.14259725056E+03  0.00000000000E+00 0.  1.
         12    1    4    4    0    0 -0.10134975718E+02  0.21978593566E+02 -0.49119292436E+02  0.54758389288E+02  0.00000000000E+00 0. -1.
         -5    1    5    5    0  502  0.14599083237E+03  0.71357206499E+02 -0.55017505773E+02  0.17162223048E+03  0.47000000000E+01 0.  1.
         11    1    6    6    0    0  0.21700928437E+02  0.15659386619E+02  0.39857291188E+02  0.48007815459E+02  0.00000000000E+00 0. -1.
        -12    1    6    6    0    0  0.42154738589E+01 -0.22035960621E+02 -0.31118236835E+02  0.38362722062E+02  0.00000000000E+00 0.  1.
<mgrwt>
<rscale>  2 0.25287069E+03</rscale>
<asrwt>0</asrwt>
<pdfrwt beam="1">  1       21 0.27323854E-01 0.25380814E+03</pdfrwt>
<pdfrwt beam="2">  1       21 0.56930738E-01 0.25380814E+03</pdfrwt>
<totfact> 0.35961216E+04</totfact>
</mgrwt>
</event>
<event>
12    1  0.1029207E-001  0.1917327E+03  0.7546771E-02  0.1157729E+00
         21   -1    0    0  503  502  0.00000000000E+00  0.00000000000E+00  0.20280836174E+03  0.20280836174E+03  0.00000000000E+00 0.  1.
         21   -1    0    0  501  503 -0.00000000000E+00 -0.00000000000E+00 -0.18834133470E+03  0.18834133470E+03  0.00000000000E+00 0.  1.
          6    2    1    2  501    0 -0.74360886350E+02 -0.10978338782E+02 -0.38901787160E+02  0.19563944016E+03  0.17638417208E+03 0.  0.
         24    2    3    3    0    0 -0.49116659332E+02 -0.38768977413E+02  0.36262677998E+02  0.11148851969E+03  0.84848266773E+02 0.  0.
         -6    2    1    2    0  502  0.74360886350E+02  0.10978338782E+02  0.53368814201E+02  0.19551025627E+03  0.17241219399E+03 0.  0.
        -24    2    5    5    0    0 -0.24114228298E+02 -0.57336289613E+01  0.13187430255E+02  0.87745365483E+02  0.83132246088E+02 0.  0.
          5    1    3    3  501    0 -0.25244227018E+02  0.27790638631E+02 -0.75164465158E+02  0.84150920469E+02  0.47000000000E+01 0. -1.
        -11    1    4    4    0    0 -0.44839847203E+02 -0.30463067725E+02 -0.17466330944E+02  0.56953341509E+02  0.00000000000E+00 0.  1.
         12    1    4    4    0    0 -0.42768121291E+01 -0.83059096881E+01  0.53729008942E+02  0.54535178185E+02  0.00000000000E+00 0. -1.
         -5    1    5    5    0  502  0.98475114648E+02  0.16711967743E+02  0.40181383946E+02  0.10776489079E+03  0.47000000000E+01 0.  1.
         13    1    6    6    0    0  0.63767835990E+00 -0.30234719686E+02 -0.22641942663E+02  0.37778333416E+02  0.00000000000E+00 0. -1.
        -14    1    6    6    0    0 -0.24751906658E+02  0.24501090724E+02  0.35829372918E+02  0.49967032067E+02  0.00000000000E+00 0.  1.
<mgrwt>
<rscale>  2 0.19081426E+03</rscale>
<asrwt>0</asrwt>
<pdfrwt beam="1">  1       21 0.31201286E-01 0.19173273E+03</pdfrwt>
<pdfrwt beam="2">  1       21 0.28975590E-01 0.19173273E+03</pdfrwt>
<totfact> 0.11256734E+05</totfact>
</mgrwt>
</event>
<event>
12    1  0.1029207E-001  0.3047705E+03  0.7546771E-02  0.1082893E+00
         21   -1    0    0  503  502  0.00000000000E+00  0.00000000000E+00  0.31033751646E+03  0.31033751646E+03  0.00000000000E+00 0. -1.
         21   -1    0    0  501  503 -0.00000000000E+00 -0.00000000000E+00 -0.32923985321E+03  0.32923985321E+03  0.00000000000E+00 0. -1.
          6    2    1    2  501    0 -0.15484537460E+03  0.19710947947E+03 -0.10605346323E+03  0.32269553419E+03  0.17336618411E+03 0.  0.
         24    2    3    3    0    0 -0.97437197590E+02  0.14626366297E+03 -0.22911718343E+01  0.19358434584E+03  0.81133118424E+02 0.  0.
         -6    2    1    2    0  502  0.15484537460E+03 -0.19710947947E+03  0.87151126468E+02  0.31688183548E+03  0.17317488815E+03 0.  0.
        -24    2    5    5    0    0  0.36897663286E+02 -0.15678796359E+03  0.51650057355E+02  0.18719026616E+03  0.80178327723E+02 0.  0.
          5    1    3    3  501    0 -0.57408177005E+02  0.50845816496E+02 -0.10376229139E+03  0.12911118835E+03  0.47000000000E+01 0. -1.
        -13    1    4    4    0    0 -0.31293506620E+02  0.16558052518E+02  0.27672729785E+02  0.44935872457E+02  0.00000000000E+00 0.  1.
         14    1    4    4    0    0 -0.66143690970E+02  0.12970561045E+03 -0.29963901619E+02  0.14864847338E+03  0.00000000000E+00 0. -1.
         -5    1    5    5    0  502  0.11794771131E+03 -0.40321515872E+02  0.35501069112E+02  0.12969156932E+03  0.47000000000E+01 0.  1.
         11    1    6    6    0    0  0.27406559851E+01 -0.13469581858E+03  0.56759102379E+02  0.14619189594E+03  0.00000000000E+00 0. -1.
        -12    1    6    6    0    0  0.34157007301E+02 -0.22092145018E+02 -0.51090450239E+01  0.40998370216E+02  0.00000000000E+00 0.  1.
<mgrwt>
<rscale>  2 0.30474332E+03</rscale>
<asrwt>0</asrwt>
<pdfrwt beam="1">  1       21 0.47744233E-01 0.30477052E+03</pdfrwt>
<pdfrwt beam="2">  1       21 0.50652285E-01 0.30477052E+03</pdfrwt>
<totfact> 0.14675987E+04</totfact>
</mgrwt>
</event>
<event>
12    1  0.1029207E-001  0.2114940E+03  0.7546771E-02  0.1140684E+00
         21   -1    0    0  503  502  0.00000000000E+00  0.00000000000E+00  0.18854002908E+03  0.18854002908E+03  0.00000000000E+00 0.  1.
         21   -1    0    0  501  503 -0.00000000000E+00 -0.00000000000E+00 -0.42281063409E+03  0.42281063409E+03  0.00000000000E+00 0.  1.
          6    2    1    2  501    0 -0.16893940057E+02 -0.11801472932E+03 -0.32078943752E+03  0.38423375660E+03  0.17469068362E+03 0.  0.
         24    2    3    3    0    0  0.18702999387E+02 -0.54470285388E+01 -0.19509721438E+03  0.21172504867E+03  0.79906826164E+02 0.  0.
         -6    2    1    2    0  502  0.16893940057E+02  0.11801472932E+03  0.86518832511E+02  0.22711690656E+03  0.17286902360E+03 0.  0.
        -24    2    5    5    0    0  0.98365101378E+01  0.14836051127E+03  0.96238003985E+02  0.19414379489E+03  0.79513907244E+02 0.  0.
          5    1    3    3  501    0 -0.35596939444E+02 -0.11256770078E+03 -0.12569222314E+03  0.17250870793E+03  0.47000000000E+01 0. -1.
        -11    1    4    4    0    0  0.14940227104E+02 -0.41637996790E+02 -0.12751257030E+03  0.13496810270E+03  0.00000000000E+00 0.  1.
         12    1    4    4    0    0  0.37627722835E+01  0.36190968251E+02 -0.67584644084E+02  0.76756945967E+02  0.00000000000E+00 0. -1.
         -5    1    5    5    0  502  0.70574299191E+01 -0.30345781955E+02 -0.97191714743E+01  0.32973111677E+02  0.47000000000E+01 0.  1.
         11    1    6    6    0    0 -0.13698273629E+02  0.92305391890E+02  0.17957848115E+02  0.95028481948E+02  0.00000000000E+00 0. -1.
        -12    1    6    6    0    0  0.23534783767E+02  0.56055119382E+02  0.78280155870E+02  0.99115312939E+02  0.00000000000E+00 0.  1.
<mgrwt>
<rscale>  2 0.21111747E+03</rscale>
<asrwt>0</asrwt>
<pdfrwt beam="1">  1       21 0.29006159E-01 0.21149401E+03</pdfrwt>
<pdfrwt beam="2">  1       21 0.65047789E-01 0.21149401E+03</pdfrwt>
<totfact> 0.24493515E+04</totfact>
</mgrwt>
</event>
<event>
12    1  0.1029207E-001  0.1893703E+03  0.7546771E-02  0.1159124E+00
         21   -1    0    0  503  502  0.00000000000E+00  0.00000000000E+00  0.20363154047E+03  0.20363154047E+03  0.00000000000E+00 0.  1.
         21   -1    0    0  501  503 -0.00000000000E+00 -0.00000000000E+00 -0.18370595736E+03  0.18370595736E+03  0.00000000000E+00 0.  1.
          6    2    1    2  501    0 -0.57399919570E+02 -0.48823218852E+02  0.50338465474E+02  0.19594661672E+03  0.17373156890E+03 0.  0.
         24    2    3    3    0    0 -0.48331657882E+01 -0.68167675393E+02  0.67274993310E+01  0.12480255182E+03  0.10421240921E+03 0.  0.
         -6    2    1    2    0  502  0.57399919570E+02  0.48823218852E+02 -0.30412882365E+02  0.19139088111E+03  0.17328320315E+03 0.  0.
        -24    2    5    5    0    0  0.46815153673E+02  0.97731489972E+01 -0.83517513758E+02  0.12446452532E+03  0.78924456942E+02 0.  0.
          5    1    3    3  501    0 -0.52566753782E+02  0.19344456541E+02  0.43610966143E+02  0.71144064896E+02  0.47000000000E+01 0. -1.
        -13    1    4    4    0    0 -0.49849983464E+02 -0.50301185772E+02 -0.13884010536E+02  0.72166445735E+02  0.00000000000E+00 0.  1.
         14    1    4    4    0    0  0.45016817676E+02 -0.17866489621E+02  0.20611509867E+02  0.52636106088E+02  0.00000000000E+00 0. -1.
         -5    1    5    5    0  502  0.10584765897E+02  0.39050069855E+02  0.53104631393E+02  0.66926355796E+02  0.47000000000E+01 0.  1.
         11    1    6    6    0    0 -0.23110098859E+01 -0.16849818731E+02  0.67535851695E+01  0.18299400827E+02  0.00000000000E+00 0. -1.
        -12    1    6    6    0    0  0.49126163559E+02  0.26622967728E+02 -0.90271098928E+02  0.10616512449E+03  0.00000000000E+00 0.  1.
<mgrwt>
<rscale>  2 0.18926742E+03</rscale>
<asrwt>0</asrwt>
<pdfrwt beam="1">  1       21 0.31327930E-01 0.18937031E+03</pdfrwt>
<pdfrwt beam="2">  1       21 0.28262455E-01 0.18937031E+03</pdfrwt>
<totfact> 0.11729917E+05</totfact>
</mgrwt>
</event>
<event>
12    1  0.1029207E-001  0.2599521E+03  0.7546771E-02  0.1107302E+00
         21   -1    0    0  501  502  0.00000000000E+00  0.00000000000E+00  0.51566426914E+02  0.51566426914E+02  0.00000000000E+00 0.  1.
         21   -1    0    0  502  503 -0.00000000000E+00 -0.00000000000E+00 -0.21143504699E+04  0.21143504699E+04  0.00000000000E+00 0. -1.
         -6    2    1    2    0  503 -0.11656612966E+03 -0.15508185922E+03 -0.16999005434E+04  0.17195319299E+04  0.17172697713E+03 0.  0.
        -24    2    3    3    0    0 -0.56438969313E+02 -0.10768534844E+02 -0.54003544839E+03  0.54916842237E+03  0.81525161856E+02 0.  0.
          6    2    1    2  501    0  0.11656612966E+03  0.15508185922E+03 -0.36288349955E+03  0.44638496693E+03  0.17302328980E+03 0.  0.
         24    2    5    5    0    0  0.14482603733E+03  0.91560741057E+02 -0.24875846790E+03  0.31266822272E+03  0.80763183161E+02 0.  0.
          5    1    5    5  501    0 -0.28259907668E+02  0.63521118161E+02 -0.11412503165E+03  0.13371674422E+03  0.47000000000E+01 0. -1.
        -13    1    6    6    0    0  0.80066549611E+02  0.43843443242E+02 -0.64963401619E+02  0.11204081146E+03  0.00000000000E+00 0.  1.
         14    1    6    6    0    0  0.64759487719E+02  0.47717297814E+02 -0.18379506628E+03  0.20062741126E+03  0.00000000000E+00 0. -1.
         -5    1    3    3    0  503 -0.60127160349E+02 -0.14431332437E+03 -0.11598650950E+04  0.11703635075E+04  0.47000000000E+01 0.  1.
         13    1    4    4    0    0 -0.60780349854E+01  0.17466466119E+02 -0.35160644971E+03  0.35209248135E+03  0.00000000000E+00 0. -1.
        -14    1    4    4    0    0 -0.50360934327E+02 -0.28235000963E+02 -0.18842899868E+03  0.19707594102E+03  0.00000000000E+00 0.  1.
<mgrwt>
<rscale>  2 0.25973660E+03</rscale>
<asrwt>0</asrwt>
<pdfrwt beam="1">  1       21 0.79332954E-02 0.25995212E+03</pdfrwt>
<pdfrwt beam="2">  1       21 0.32528473E+00 0.25995212E+03</pdfrwt>
<totfact> 0.27568962E+03</totfact>
</mgrwt>
</event>
<event>
12    1  0.1029207E-001  0.1890170E+03  0.7546771E-02  0.1159806E+00
         21   -1    0    0  503  502  0.00000000000E+00  0.00000000000E+00  0.17394471157E+03  0.17394471157E+03  0.00000000000E+00 0.  1.
         21   -1    0    0  501  503 -0.00000000000E+00 -0.00000000000E+00 -0.25298298280E+03  0.25298298280E+03  0.00000000000E+00 0.  1.
          6    2    1    2  501    0 -0.72730533040E+02 -0.71822750752E+01 -0.13434756210E+03  0.23189803496E+03  0.17431613713E+03 0.  0.
         24    2    3    3    0    0 -0.70553893125E+01 -0.43622517332E+02 -0.12637129818E+03  0.15622223602E+03  0.80516951540E+02 0.  0.
         -6    2    1    2    0  502  0.72730533040E+02  0.71822750752E+01  0.55309290863E+02  0.19502965941E+03  0.17215148818E+03 0.  0.
        -24    2    5    5    0    0 -0.25887174555E+01  0.49135100712E+02  0.33569420802E+01  0.94261779519E+02  0.80330905871E+02 0.  0.
          5    1    3    3  501    0 -0.65675143728E+02  0.36440242257E+02 -0.79762639192E+01  0.75675798942E+02  0.47000000000E+01 0. -1.
        -11    1    4    4    0    0 -0.98674467566E+01  0.23054135822E+02 -0.36401699170E+02  0.44203431840E+02  0.00000000000E+00 0.  1.
         12    1    4    4    0    0  0.28120574441E+01 -0.66676653154E+02 -0.89969599010E+02  0.11201880418E+03  0.00000000000E+00 0. -1.
         -5    1    5    5    0  502  0.75319250496E+02 -0.41952825637E+02  0.51952348783E+02  0.10076787989E+03  0.47000000000E+01 0.  1.
         13    1    6    6    0    0  0.22113032264E+02 -0.11974463108E+02 -0.99052756098E+01  0.27027549788E+02  0.00000000000E+00 0. -1.
        -14    1    6    6    0    0 -0.24701749719E+02  0.61109563820E+02  0.13262217690E+02  0.67234229731E+02  0.00000000000E+00 0.  1.
<mgrwt>
<rscale>  2 0.18851642E+03</rscale>
<asrwt>0</asrwt>
<pdfrwt beam="1">  1       21 0.26760725E-01 0.18901701E+03</pdfrwt>
<pdfrwt beam="2">  1       21 0.38920459E-01 0.18901701E+03</pdfrwt>
<totfact> 0.84747988E+04</totfact>
</mgrwt>
</event>
<event>
12    1  0.1029207E-001  0.2407245E+03  0.7546771E-02  0.1119357E+00
         21   -1    0    0  501  502  0.00000000000E+00  0.00000000000E+00  0.29860480797E+03  0.29860480797E+03  0.00000000000E+00 0. -1.
         21   -1    0    0  502  503 -0.00000000000E+00 -0.00000000000E+00 -0.19452340836E+03  0.19452340836E+03  0.00000000000E+00 0. -1.
         -6    2    1    2    0  503  0.16652235044E+03  0.67003516347E+00  0.66686665418E+02  0.24979070695E+03  0.17383366701E+03 0.  0.
        -24    2    3    3    0    0  0.10413331342E+03 -0.36815068050E+02 -0.14610296950E+02  0.14057161066E+03  0.85719430394E+02 0.  0.
          6    2    1    2  501    0 -0.16652235044E+03 -0.67003516347E+00  0.37394734189E+02  0.24333750938E+03  0.17344922941E+03 0.  0.
         24    2    5    5    0    0 -0.81721570802E+02 -0.95982979795E+01  0.87234828670E+02  0.14445873956E+03  0.80547313072E+02 0.  0.
          5    1    5    5  501    0 -0.84800779640E+02  0.89282628160E+01 -0.49840094481E+02  0.98878769826E+02  0.47000000000E+01 0. -1.
        -13    1    6    6    0    0 -0.80797315198E+02  0.21099605939E+02  0.71581879262E+02  0.10998802186E+03  0.00000000000E+00 0.  1.
         14    1    6    6    0    0 -0.92425560460E+00 -0.30697903919E+02  0.15652949408E+02  0.34470717698E+02  0.00000000000E+00 0. -1.
         -5    1    3    3    0  503  0.62389037027E+02  0.37485103213E+02  0.81296962368E+02  0.10921909629E+03  0.47000000000E+01 0.  1.
         11    1    4    4    0    0  0.79696670808E+01  0.16842566501E+02  0.17812013810E+02  0.25777033881E+02  0.00000000000E+00 0. -1.
        -12    1    4    4    0    0  0.96163646335E+02 -0.53657634550E+02 -0.32422310760E+02  0.11479457678E+03  0.00000000000E+00 0.  1.
<mgrwt>
<rscale>  2 0.24065511E+03</rscale>
<asrwt>0</asrwt>
<pdfrwt beam="1">  1       21 0.45939201E-01 0.24072450E+03</pdfrwt>
<pdfrwt beam="2">  1       21 0.29926678E-01 0.24072450E+03</pdfrwt>
<totfact> 0.47566483E+04</totfact>
</mgrwt>
</event>
<event>
12    1  0.1029207E-001  0.2295429E+03  0.7546771E-02  0.1127563E+00
         21   -1    0    0  501  502  0.00000000000E+00  0.00000000000E+00  0.73238024353E+02  0.73238024353E+02  0.00000000000E+00 0. -1.
         21   -1    0    0  502  503 -0.00000000000E+00 -0.00000000000E+00 -0.75482589964E+03  0.75482589964E+03  0.00000000000E+00 0. -1.
         -6    2    1    2    0  503 -0.17476304847E+02  0.14978129989E+03 -0.44056249544E+03  0.49522283033E+03  0.16855408706E+03 0.  0.
        -24    2    3    3    0    0  0.22622494584E+02  0.15335553410E+02 -0.19535306197E+03  0.21267490745E+03  0.79503716755E+02 0.  0.
          6    2    1    2  501    0  0.17476304847E+02 -0.14978129989E+03 -0.24102537985E+03  0.33284109366E+03  0.17306097444E+03 0.  0.
         24    2    5    5    0    0  0.19319333669E+01 -0.61866352057E+02 -0.26844252777E+02  0.10074992466E+03  0.74824832299E+02 0.  0.
          5    1    5    5  501    0  0.15544371480E+02 -0.87914947828E+02 -0.21418112707E+03  0.23209116900E+03  0.47000000000E+01 0. -1.
        -11    1    6    6    0    0 -0.27250622420E+02 -0.30526429156E+01  0.48464354484E+01  0.27846058745E+02  0.00000000000E+00 0.  1.
         12    1    6    6    0    0  0.29182555787E+02 -0.58813709141E+02 -0.31690688226E+02  0.72903865916E+02  0.00000000000E+00 0. -1.
         -5    1    3    3    0  503 -0.40098799431E+02  0.13444574647E+03 -0.24520943347E+03  0.28254792288E+03  0.47000000000E+01 0.  1.
         11    1    4    4    0    0 -0.17005366533E+02  0.34865724549E+02 -0.74394191621E+02  0.83900518390E+02  0.00000000000E+00 0. -1.
        -12    1    4    4    0    0  0.39627861117E+02 -0.19530171138E+02 -0.12095887035E+03  0.12877438906E+03  0.00000000000E+00 0.  1.
<mgrwt>
<rscale>  2 0.22869360E+03</rscale>
<asrwt>0</asrwt>
<pdfrwt beam="1">  1       21 0.11267389E-01 0.22954294E+03</pdfrwt>
<pdfrwt beam="2">  1       21 0.11612706E+00 0.22954294E+03</pdfrwt>
<totfact> 0.36855787E+04</totfact>
</mgrwt>
</event>
<event>
11    1  0.1029207E-001  0.2928330E+03  0.7546771E-02  0.1088939E+00
         21   -1    0    0  501  502  0.00000000000E+00  0.00000000000E+00  0.16651685060E+03  0.16651685060E+03  0.00000000000E+00 0.  1.
         21   -1    0    0  502  503 -0.00000000000E+00 -0.00000000000E+00 -0.17809801915E+04  0.17809801915E+04  0.00000000000E+00 0.  1.
         -6    2    1    2    0  503 -0.19417270141E+03  0.13415273318E+03 -0.16286677023E+04  0.16547838698E+04  0.17335275427E+03 0.  0.
        -24    2    3    3    0    0 -0.10252006530E+03  0.14962258163E+03 -0.11752322275E+04  0.11918958254E+04  0.80917174392E+02 0.  0.
          6    2    1    2  501    0  0.19417270141E+03 -0.13415273318E+03  0.14204361451E+02  0.29271317225E+03  0.17256663506E+03 0.  0.
          5    1    5    5  501    0  0.17208852255E+03 -0.57169109096E+02  0.59725726869E+02  0.19097648829E+03  0.47000000000E+01 0. -1.
        -11    1    5    5    0    0  0.24758715907E+02 -0.79759889795E+02 -0.35037132003E+02  0.90566189345E+02  0.00000000000E+00 0.  1.
         12    1    5    5    0    0 -0.26745370512E+01  0.27762657144E+01 -0.10484233415E+02  0.11170494620E+02  0.00000000000E+00 0. -1.
         -5    1    3    3    0  503 -0.91652636106E+02 -0.15469848456E+02 -0.45343547480E+03  0.46288804448E+03  0.47000000000E+01 0.  1.
         11    1    4    4    0    0 -0.65154171013E+02  0.37378985981E+02 -0.59532948525E+03  0.60004954012E+03  0.00000000000E+00 0. -1.
        -12    1    4    4    0    0 -0.37365894290E+02  0.11224359565E+03 -0.57990274230E+03  0.59184628524E+03  0.00000000000E+00 0.  1.
<mgrwt>
<rscale>  2 0.29271677E+03</rscale>
<asrwt>0</asrwt>
<pdfrwt beam="1">  1       21 0.25617976E-01 0.29283301E+03</pdfrwt>
<pdfrwt beam="2">  1       21 0.27399696E+00 0.29283301E+03</pdfrwt>
<totfact> 0.62508674E+02</totfact>
</mgrwt>
</event>
<event>
12    1  0.1029207E-001  0.1793899E+03  0.7546771E-02  0.1170342E+00
         21   -1    0    0  501  502  0.00000000000E+00  0.00000000000E+00  0.30308645180E+02  0.30308645180E+02  0.00000000000E+00 0.  1.
         21   -1    0    0  502  503 -0.00000000000E+00 -0.00000000000E+00 -0.10665780004E+04  0.10665780004E+04  0.00000000000E+00 0.  1.
         -6    2    1    2    0  503 -0.47437455825E+02  0.13644909145E+01 -0.40970637341E+03  0.44725836251E+03  0.17299871785E+03 0.  0.
        -24    2    3    3    0    0 -0.41944026593E+01 -0.58316900547E+02 -0.17647757134E+03  0.20261659534E+03  0.80564865897E+02 0.  0.
          6    2    1    2  501    0  0.47437455825E+02 -0.13644909145E+01 -0.62656298180E+03  0.64962828305E+03  0.16487438227E+03 0.  0.
         24    2    5    5    0    0  0.88805465463E+02  0.19163414089E+02 -0.50026122269E+03  0.51506628448E+03  0.82330670746E+02 0.  0.
          5    1    5    5  501    0 -0.41368009638E+02 -0.20527905003E+02 -0.12630175910E+03  0.13456199856E+03  0.47000000000E+01 0. -1.
        -11    1    6    6    0    0  0.10821127254E+02 -0.12271422109E+02 -0.13834607107E+02  0.21426174400E+02  0.00000000000E+00 0.  1.
         12    1    6    6    0    0  0.77984338209E+02  0.31434836198E+02 -0.48642661559E+03  0.49364011008E+03  0.00000000000E+00 0. -1.
         -5    1    3    3    0  503 -0.43243053166E+02  0.59681391461E+02 -0.23322880206E+03  0.24464176717E+03  0.47000000000E+01 0.  1.
         11    1    4    4    0    0  0.17930902451E+02  0.10971027724E+02 -0.15974470461E+02  0.26401977549E+02  0.00000000000E+00 0. -1.
        -12    1    4    4    0    0 -0.22125305110E+02 -0.69287928271E+02 -0.16050310088E+03  0.17621461779E+03  0.00000000000E+00 0.  1.
<mgrwt>
<rscale>  2 0.17740172E+03</rscale>
<asrwt>0</asrwt>
<pdfrwt beam="1">  1       21 0.46628686E-02 0.17938988E+03</pdfrwt>
<pdfrwt beam="2">  1       21 0.16408892E+00 0.17938988E+03</pdfrwt>
<totfact> 0.71675002E+04</totfact>
</mgrwt>
</event>
<event>
11    1  0.1029207E-001  0.2144242E+03  0.7546771E-02  0.1138215E+00
         21   -1    0    0  501  502  0.00000000000E+00  0.00000000000E+00  0.70609434636E+03  0.70609434636E+03  0.00000000000E+00 0. -1.
         21   -1    0    0  502  503 -0.00000000000E+00 -0.00000000000E+00 -0.89704524307E+02  0.89704524307E+02  0.00000000000E+00 0. -1.
         -6    2    1    2    0  503  0.21239691240E+02 -0.12496142794E+03  0.98884666620E+02  0.23562986990E+03  0.17226948465E+03 0.  0.
        -24    2    3    3    0    0 -0.22296347789E+02 -0.14313859032E+03  0.68070581186E+02  0.17908436798E+03  0.80323244893E+02 0.  0.
          6    2    1    2  501    0 -0.21239691240E+02  0.12496142794E+03  0.51750515543E+03  0.56016900076E+03  0.17294866452E+03 0.  0.
          5    1    5    5  501    0  0.20463624735E+02  0.14619097250E+03  0.32712823370E+03  0.35892273774E+03  0.47000000000E+01 0. -1.
        -13    1    5    5    0    0 -0.27116973855E+02 -0.49065547412E+01  0.36059011406E+02  0.45383442510E+02  0.00000000000E+00 0.  1.
         14    1    5    5    0    0 -0.14586342119E+02 -0.16322989818E+02  0.15431791032E+03  0.15586282051E+03  0.00000000000E+00 0. -1.
         -5    1    3    3    0  503  0.43536039029E+02  0.18177162377E+02  0.30814085435E+02  0.56545501922E+02  0.47000000000E+01 0.  1.
         13    1    4    4    0    0 -0.10989055212E+02 -0.12415438005E+03  0.20074333439E+02  0.12624598324E+03  0.00000000000E+00 0. -1.
        -14    1    4    4    0    0 -0.11307292578E+02 -0.18984210266E+02  0.47996247747E+02  0.52838384747E+02  0.00000000000E+00 0.  1.
<mgrwt>
<rscale>  2 0.21428718E+03</rscale>
<asrwt>0</asrwt>
<pdfrwt beam="1">  1       21 0.10862990E+00 0.21442417E+03</pdfrwt>
<pdfrwt beam="2">  1       21 0.13800697E-01 0.21442417E+03</pdfrwt>
<totfact> 0.30342559E+04</totfact>
</mgrwt>
</event>
<event>
12    1  0.1029207E-001  0.2854470E+03  0.7546771E-02  0.1092786E+00
         21   -1    0    0  503  502  0.00000000000E+00  0.00000000000E+00  0.13203914281E+03  0.13203914281E+03  0.00000000000E+00 0. -1.
         21   -1    0    0  501  503 -0.00000000000E+00 -0.00000000000E+00 -0.95837907331E+03  0.95837907331E+03  0.00000000000E+00 0. -1.
          6    2    1    2  501    0 -0.18455804765E+03 -0.13198449046E+03 -0.73892498249E+03  0.79214272314E+03  0.17320041977E+03 0.  0.
         24    2    3    3    0    0 -0.49332882797E+02  0.63179175518E+00 -0.26753804921E+03  0.28410664728E+03  0.81889234733E+02 0.  0.
         -6    2    1    2    0  502  0.18455804765E+03  0.13198449046E+03 -0.87414948009E+02  0.29827549297E+03  0.17275797492E+03 0.  0.
        -24    2    5    5    0    0  0.13407514036E+03  0.17030953445E+02 -0.66531190230E+02  0.17091356404E+03  0.80739398457E+02 0.  0.
          5    1    3    3  501    0 -0.13522516485E+03 -0.13261628222E+03 -0.47138693328E+03  0.50803607587E+03  0.47000000000E+01 0. -1.
        -11    1    4    4    0    0  0.11001514100E+02  0.18779092395E+02 -0.23345392873E+02  0.31917001615E+02  0.00000000000E+00 0.  1.
         12    1    4    4    0    0 -0.60334396897E+02 -0.18147300640E+02 -0.24419265634E+03  0.25218964566E+03  0.00000000000E+00 0. -1.
         -5    1    5    5    0  502  0.50482907291E+02  0.11495353702E+03 -0.20883757778E+02  0.12736192893E+03  0.47000000000E+01 0.  1.
         13    1    6    6    0    0  0.82861073273E+02  0.45584342657E+02 -0.21510302011E+02  0.96987539674E+02  0.00000000000E+00 0. -1.
        -14    1    6    6    0    0  0.51214067084E+02 -0.28553389213E+02 -0.45020888220E+02  0.73926024368E+02  0.00000000000E+00 0.  1.
<mgrwt>
<rscale>  2 0.28537987E+03</rscale>
<asrwt>0</asrwt>
<pdfrwt beam="1">  1       21 0.20313714E-01 0.28544695E+03</pdfrwt>
<pdfrwt beam="2">  1       21 0.14744294E+00 0.28544695E+03</pdfrwt>
<totfact> 0.65865193E+03</totfact>
</mgrwt>
</event>
<event>
12    1  0.1029207E-001  0.1825814E+03  0.7546771E-02  0.1165379E+00
         21   -1    0    0  501  502  0.00000000000E+00  0.00000000000E+00  0.20098942133E+02  0.20098942133E+02  0.00000000000E+00 0. -1.
         21   -1    0    0  502  503 -0.00000000000E+00 -0.00000000000E+00 -0.16792832565E+04  0.16792832565E+04  0.00000000000E+00 0.  1.
         -6    2    1    2    0  503  0.12047729440E+02  0.56658642408E+02 -0.92778154285E+03  0.94553474773E+03  0.17292200082E+03 0.  0.
        -24    2    3    3    0    0  0.36584846595E+02 -0.29349248204E+02 -0.44078787746E+03  0.45037381682E+03  0.79641651126E+02 0.  0.
          6    2    1    2  501    0 -0.12047729440E+02 -0.56658642408E+02 -0.73140277150E+03  0.75384745089E+03  0.17314911350E+03 0.  0.
         24    2    5    5    0    0 -0.83570106722E+01  0.16159664484E+02 -0.57533863248E+03  0.58152730490E+03  0.82634677589E+02 0.  0.
          5    1    5    5  501    0 -0.36907187682E+01 -0.72818306892E+02 -0.15606413902E+03  0.17232014599E+03  0.47000000000E+01 0. -1.
        -13    1    6    6    0    0 -0.39419026613E+02 -0.61491734130E+01 -0.40438851605E+03  0.40635174899E+03  0.00000000000E+00 0.  1.
         14    1    6    6    0    0  0.31062015940E+02  0.22308837897E+02 -0.17095011642E+03  0.17517555591E+03  0.00000000000E+00 0. -1.
         -5    1    3    3    0  503 -0.24537117155E+02  0.86007890612E+02 -0.48699366539E+03  0.49516093091E+03  0.47000000000E+01 0.  1.
         11    1    4    4    0    0 -0.23226485362E+02  0.41421046215E+01 -0.98119499968E+02  0.10091611827E+03  0.00000000000E+00 0. -1.
        -12    1    4    4    0    0  0.59811331957E+02 -0.33491352826E+02 -0.34266837749E+03  0.34945769855E+03  0.00000000000E+00 0.  1.
<mgrwt>
<rscale>  2 0.18252753E+03</rscale>
<asrwt>0</asrwt>
<pdfrwt beam="1">  1       21 0.30921430E-02 0.18258139E+03</pdfrwt>
<pdfrwt beam="2">  1       21 0.25835144E+00 0.18258139E+03</pdfrwt>
<totfact> 0.36058342E+04</totfact>
</mgrwt>
</event>
<event>
12    1  0.1029207E-001  0.1970084E+03  0.7546771E-02  0.1152400E+00
         21   -1    0    0  503  502  0.00000000000E+00  0.00000000000E+00  0.25959456500E+03  0.25959456500E+03  0.00000000000E+00 0.  1.
         21   -1    0    0  501  503 -0.00000000000E+00 -0.00000000000E+00 -0.17801411789E+03  0.17801411789E+03  0.00000000000E+00 0.  1.
          6    2    1    2  501    0  0.79657868252E+02  0.45414239024E+02  0.12890268745E+03  0.23499647883E+03  0.17378035894E+03 0.  0.
         24    2    3    3    0    0  0.66950675930E+01 -0.33578743266E+02  0.69330016325E+02  0.11197430735E+03  0.80989125281E+02 0.  0.
         -6    2    1    2    0  502 -0.79657868252E+02 -0.45414239024E+02 -0.47322240344E+02  0.20261220405E+03  0.17436880948E+03 0.  0.
        -24    2    5    5    0    0  0.19155774298E+02 -0.35047761011E+02 -0.86568485988E+01  0.95894340790E+02  0.86749607071E+02 0.  0.
          5    1    3    3  501    0  0.72962800659E+02  0.78992982291E+02  0.59572671127E+02  0.12302217148E+03  0.47000000000E+01 0. -1.
        -13    1    4    4    0    0 -0.19432196356E+02  0.13264529407E+02  0.49467677759E+02  0.54777816116E+02  0.00000000000E+00 0.  1.
         14    1    4    4    0    0  0.26127263949E+02 -0.46843272674E+02  0.19862338566E+02  0.57196491235E+02  0.00000000000E+00 0. -1.
         -5    1    5    5    0  502 -0.98813642550E+02 -0.10366478013E+02 -0.38665391746E+02  0.10671786326E+03  0.47000000000E+01 0.  1.
         13    1    6    6    0    0  0.10047455854E+02  0.28055012960E+02  0.61800779869E+01  0.30434002124E+02  0.00000000000E+00 0. -1.
        -14    1    6    6    0    0  0.91083184434E+01 -0.63102773971E+02 -0.14836926586E+02  0.65460338666E+02  0.00000000000E+00 0.  1.
<mgrwt>
<rscale>  2 0.19687811E+03</rscale>
<asrwt>0</asrwt>
<pdfrwt beam="1">  1       21 0.39937626E-01 0.19700840E+03</pdfrwt>
<pdfrwt beam="2">  1       21 0.27386787E-01 0.19700840E+03</pdfrwt>
<totfact> 0.76692861E+04</totfact>
</mgrwt>
</event>
<event>
12    1  0.1029207E-001  0.2005405E+03  0.7546771E-02  0.1149844E+00
         21   -1    0    0  503  502  0.00000000000E+00  0.00000000000E+00  0.51677358705E+03  0.51677358705E+03  0.00000000000E+00 0.  1.
         21   -1    0    0  501  503 -0.00000000000E+00 -0.00000000000E+00 -0.16524131253E+03  0.16524131253E+03  0.00000000000E+00 0. -1.
          6    2    1    2  501    0  0.72405482092E+02  0.70807209794E+02 -0.73168348734E+02  0.21347150254E+03  0.17309032423E+03 0.  0.
         24    2    3    3    0    0  0.54674711310E+01  0.79585132573E+02 -0.89360458244E+02  0.14388685157E+03  0.79714791542E+02 0.  0.
         -6    2    1    2    0  502 -0.72405482092E+02 -0.70807209794E+02  0.42470062325E+03  0.46854339704E+03  0.17001788353E+03 0.  0.
        -24    2    5    5    0    0 -0.17254410304E+02  0.25369411164E+02  0.18513050124E+03  0.20452158639E+03  0.81329300448E+02 0.  0.
          5    1    3    3  501    0  0.66938010961E+02 -0.87779227789E+01  0.16192109510E+02  0.69584650966E+02  0.47000000000E+01 0. -1.
        -11    1    4    4    0    0  0.18721746366E+02 -0.55718589743E+01 -0.40137593942E+02  0.44638277821E+02  0.00000000000E+00 0.  1.
         12    1    4    4    0    0 -0.13254275235E+02  0.85156991547E+02 -0.49222864302E+02  0.99248573751E+02  0.00000000000E+00 0. -1.
         -5    1    5    5    0  502 -0.55151071788E+02 -0.96176620958E+02  0.23957012201E+03  0.26402181065E+03  0.47000000000E+01 0.  1.
         11    1    6    6    0    0  0.21754799038E+02 -0.18200349136E+02  0.64604070933E+02  0.70556431109E+02  0.00000000000E+00 0. -1.
        -12    1    6    6    0    0 -0.39009209341E+02  0.43569760300E+02  0.12052643031E+03  0.13396515528E+03  0.00000000000E+00 0.  1.
<mgrwt>
<rscale>  2 0.19987571E+03</rscale>
<asrwt>0</asrwt>
<pdfrwt beam="1">  1       21 0.79503628E-01 0.20054046E+03</pdfrwt>
<pdfrwt beam="2">  1       21 0.25421741E-01 0.20054046E+03</pdfrwt>
<totfact> 0.20364537E+04</totfact>
</mgrwt>
</event>
<event>
12    1  0.1029207E-001  0.2638765E+03  0.7546771E-02  0.1105340E+00
         21   -1    0    0  501  502  0.00000000000E+00  0.00000000000E+00  0.14763958216E+04  0.14763958216E+04  0.00000000000E+00 0.  1.
         21   -1    0    0  502  503 -0.00000000000E+00 -0.00000000000E+00 -0.66934567780E+02  0.66934567780E+02  0.00000000000E+00 0. -1.
         -6    2    1    2    0  503  0.15023494250E+03  0.12419324288E+03  0.28214827266E+03  0.38631392312E+03  0.17786596051E+03 0.  0.
        -24    2    3    3    0    0  0.10733332439E+03  0.15956067960E+03  0.22410664405E+03  0.30580103553E+03  0.79438230244E+02 0.  0.
          6    2    1    2  501    0 -0.15023494250E+03 -0.12419324288E+03  0.11273129812E+04  0.11570164663E+04  0.17279480945E+03 0.  0.
         24    2    5    5    0    0 -0.42303915576E+02 -0.38653607470E+02  0.73149723477E+03  0.73790033571E+03  0.78262240670E+02 0.  0.
          5    1    5    5  501    0 -0.10793102693E+03 -0.85539635410E+02  0.39581574643E+03  0.41911613059E+03  0.47000000000E+01 0. -1.
        -11    1    6    6    0    0 -0.20603365410E+02 -0.56388506185E+02  0.32929146511E+03  0.33471933211E+03  0.00000000000E+00 0.  1.
         12    1    6    6    0    0 -0.21700550165E+02  0.17734898715E+02  0.40220576966E+03  0.40318100359E+03  0.00000000000E+00 0. -1.
         -5    1    3    3    0  503  0.42901618108E+02 -0.35367436723E+02  0.58041628612E+02  0.80512887593E+02  0.47000000000E+01 0.  1.
         11    1    4    4    0    0  0.74592058498E+02  0.47937739199E+02  0.71441102249E+02  0.11386761226E+03  0.00000000000E+00 0. -1.
        -12    1    4    4    0    0  0.32741265896E+02  0.11162294040E+03  0.15266554180E+03  0.19193342327E+03  0.00000000000E+00 0.  1.
<mgrwt>
<rscale>  2 0.26302455E+03</rscale>
<asrwt>0</asrwt>
<pdfrwt beam="1">  1       21 0.22713780E+00 0.26387649E+03</pdfrwt>
<pdfrwt beam="2">  1       21 0.10297627E-01 0.26387649E+03</pdfrwt>
<totfact> 0.66125330E+03</totfact>
</mgrwt>
</event>
<event>
12    1  0.1029207E-001  0.1955870E+03  0.7546771E-02  0.1153612E+00
         21   -1    0    0  503  502  0.00000000000E+00  0.00000000000E+00  0.19030250427E+04  0.19030250427E+04  0.00000000000E+00 0.  1.
         21   -1    0    0  501  503 -0.00000000000E+00 -0.00000000000E+00 -0.22515292932E+02  0.22515292932E+02  0.00000000000E+00 0. -1.
          6    2    1    2  501    0 -0.91161964841E+02 -0.11432059271E+02  0.62305310375E+03  0.65303097836E+03  0.17266468310E+03 0.  0.
         24    2    3    3    0    0 -0.67782447313E+02 -0.36079631323E+02  0.60333849168E+03  0.61347265967E+03  0.80219503043E+02 0.  0.
         -6    2    1    2    0  502  0.91161964841E+02  0.11432059271E+02  0.12574566460E+04  0.12725093572E+04  0.17216751123E+03 0.  0.
        -24    2    5    5    0    0  0.51000258379E+02  0.27238434214E+02  0.11769451454E+04  0.11810380728E+04  0.79423519270E+02 0.  0.
          5    1    3    3  501    0 -0.23379517527E+02  0.24647572053E+02  0.19714612075E+02  0.39558318685E+02  0.47000000000E+01 0. -1.
        -11    1    4    4    0    0  0.14975638539E+01 -0.26204361244E+02  0.58000863737E+02  0.63663266017E+02  0.00000000000E+00 0.  1.
         12    1    4    4    0    0 -0.69280011167E+02 -0.98752700792E+01  0.54533762794E+03  0.54980939366E+03  0.00000000000E+00 0. -1.
         -5    1    5    5    0  502  0.40161706462E+02 -0.15806374943E+02  0.80511500563E+02  0.91471284443E+02  0.47000000000E+01 0.  1.
         11    1    6    6    0    0  0.73532615306E+01  0.39801744845E+01  0.99556402433E+01  0.13001039063E+02  0.00000000000E+00 0. -1.
        -12    1    6    6    0    0  0.43646996848E+02  0.23258259729E+02  0.11669895052E+04  0.11680370337E+04  0.00000000000E+00 0.  1.
<mgrwt>
<rscale>  2 0.19547725E+03</rscale>
<asrwt>0</asrwt>
<pdfrwt beam="1">  1       21 0.29277296E+00 0.19558704E+03</pdfrwt>
<pdfrwt beam="2">  1       21 0.34638927E-02 0.19558704E+03</pdfrwt>
<totfact> 0.18667473E+04</totfact>
</mgrwt>
</event>
<event>
12    1  0.1029207E-001  0.2160245E+03  0.7546771E-02  0.1137413E+00
         21   -1    0    0  501  502  0.00000000000E+00  0.00000000000E+00  0.28639126227E+03  0.28639126227E+03  0.00000000000E+00 0. -1.
         21   -1    0    0  502  503 -0.00000000000E+00 -0.00000000000E+00 -0.34002835248E+03  0.34002835248E+03  0.00000000000E+00 0. -1.
         -6    2    1    2    0  503 -0.11850366712E+03 -0.40518437525E+02 -0.25408524144E+03  0.33172311256E+03  0.17261532549E+03 0.  0.
        -24    2    3    3    0    0 -0.42843808519E+02  0.32916044020E+02 -0.17497572846E+03  0.19982374817E+03  0.79962284250E+02 0.  0.
          6    2    1    2  501    0  0.11850366712E+03  0.40518437525E+02  0.20044815123E+03  0.29469650219E+03  0.17601620429E+03 0.  0.
         24    2    5    5    0    0  0.43260124723E+02  0.83160934631E+02  0.15401140766E+03  0.19641916816E+03  0.77934565440E+02 0.  0.
          5    1    5    5  501    0  0.75243542394E+02 -0.42642497106E+02  0.46436743563E+02  0.98277334031E+02  0.47000000000E+01 0. -1.
        -13    1    6    6    0    0  0.33769539430E+02  0.85717557206E+02  0.80772859560E+02  0.12252402315E+03  0.00000000000E+00 0.  1.
         14    1    6    6    0    0  0.94905852935E+01 -0.25566225741E+01  0.73238548103E+02  0.73895145013E+02  0.00000000000E+00 0. -1.
         -5    1    3    3    0  503 -0.75659858598E+02 -0.73434481545E+02 -0.79109512983E+02  0.13189936439E+03  0.47000000000E+01 0.  1.
         11    1    4    4    0    0 -0.40420398040E+02  0.42607736506E+02 -0.58410607257E+02  0.82831315503E+02  0.00000000000E+00 0. -1.
        -12    1    4    4    0    0 -0.24234104797E+01 -0.96916924867E+01 -0.11656512120E+03  0.11699243267E+03  0.00000000000E+00 0.  1.
<mgrwt>
<rscale>  2 0.21533065E+03</rscale>
<asrwt>0</asrwt>
<pdfrwt beam="1">  1       21 0.44060194E-01 0.21602446E+03</pdfrwt>
<pdfrwt beam="2">  1       21 0.52312054E-01 0.21602446E+03</pdfrwt>
<totfact> 0.16911534E+04</totfact>
</mgrwt>
</event>
<event>
12    1  0.1029207E-001  0.1887332E+03  0.7546771E-02  0.1159782E+00
         21   -1    0    0  503  502  0.00000000000E+00  0.00000000000E+00  0.18700987954E+04  0.18700987954E+04  0.00000000000E+00 0. -1.
         21   -1    0    0  501  503 -0.00000000000E+00 -0.00000000000E+00 -0.30171657681E+02  0.30171657681E+02  0.00000000000E+00 0. -1.
          6    2    1    2  501    0 -0.68419705051E+02  0.32809420932E+02  0.34221628765E+03  0.39080966133E+03  0.17280766681E+03 0.  0.
         24    2    3    3    0    0 -0.20079955525E+02 -0.43771218913E+02  0.21126221636E+03  0.23152254768E+03  0.81558824213E+02 0.  0.
         -6    2    1    2    0  502  0.68419705051E+02 -0.32809420932E+02  0.14977108501E+04  0.15094607917E+04  0.17197783957E+03 0.  0.
        -24    2    5    5    0    0  0.41680495423E+02  0.45760165100E+02  0.95854077730E+03  0.96392012183E+03  0.80686573273E+02 0.  0.
          5    1    3    3  501    0 -0.48339749526E+02  0.76580639846E+02  0.13095407130E+03  0.15928711364E+03  0.47000000000E+01 0. -1.
        -11    1    4    4    0    0 -0.46646175177E+02 -0.36056376009E+02  0.18174393012E+03  0.19106748558E+03  0.00000000000E+00 0.  1.
         12    1    4    4    0    0  0.26566219652E+02 -0.77148429043E+01  0.29518286235E+02  0.40455062105E+02  0.00000000000E+00 0. -1.
         -5    1    5    5    0  502  0.26739209628E+02 -0.78569586032E+02  0.53917007276E+03  0.54554066992E+03  0.47000000000E+01 0.  1.
         13    1    6    6    0    0  0.51973150688E+02  0.35385193134E+02  0.37786068062E+03  0.38305615025E+03  0.00000000000E+00 0. -1.
        -14    1    6    6    0    0 -0.10292655265E+02  0.10374971966E+02  0.58068009668E+03  0.58086397157E+03  0.00000000000E+00 0.  1.
<mgrwt>
<rscale>  2 0.18854299E+03</rscale>
<asrwt>0</asrwt>
<pdfrwt beam="1">  1       21 0.28770742E+00 0.18873316E+03</pdfrwt>
<pdfrwt beam="2">  1       21 0.46417950E-02 0.18873316E+03</pdfrwt>
<totfact> 0.12305246E+04</totfact>
</mgrwt>
</event>
<event>
12    1  0.1029207E-001  0.2165856E+03  0.7546771E-02  0.1136680E+00
         21   -1    0    0  501  502  0.00000000000E+00  0.00000000000E+00  0.20109002976E+03  0.20109002976E+03  0.00000000000E+00 0. -1.
         21   -1    0    0  502  503 -0.00000000000E+00 -0.00000000000E+00 -0.79677214884E+03  0.79677214884E+03  0.00000000000E+00 0. -1.
         -6    2    1    2    0  503 -0.25535627041E+02 -0.12884797648E+03 -0.71766049330E+03  0.74929018227E+03  0.17072001731E+03 0.  0.
        -24    2    3    3    0    0 -0.52675819714E+02 -0.12764858384E+03 -0.40376447921E+03  0.43418571347E+03  0.80140976802E+02 0.  0.
          6    2    1    2  501    0  0.25535627041E+02  0.12884797648E+03  0.12197837422E+03  0.24857199633E+03  0.17220756165E+03 0.  0.
         24    2    5    5    0    0 -0.19499498246E+02  0.22017270720E+02  0.97053461648E+02  0.12989468818E+03  0.81168127718E+02 0.  0.
          5    1    5    5  501    0  0.45035125286E+02  0.10683070576E+03  0.24924912569E+02  0.11867730815E+03  0.47000000000E+01 0. -1.
        -11    1    6    6    0    0  0.52330810911E+01 -0.21833500841E+02  0.22647702502E+01  0.22565816648E+02  0.00000000000E+00 0.  1.
         12    1    6    6    0    0 -0.24732579337E+02  0.43850771561E+02  0.94788691398E+02  0.10732887153E+03  0.00000000000E+00 0. -1.
         -5    1    3    3    0  503  0.27140192673E+02 -0.11993926387E+01 -0.31389601408E+03  0.31510446880E+03  0.47000000000E+01 0.  1.
         11    1    4    4    0    0 -0.62835111557E+01 -0.59153653300E+02 -0.27333329511E+03  0.27973152741E+03  0.00000000000E+00 0. -1.
        -12    1    4    4    0    0 -0.46392308558E+02 -0.68494930542E+02 -0.13043118410E+03  0.15445418606E+03  0.00000000000E+00 0.  1.
<mgrwt>
<rscale>  2 0.21628976E+03</rscale>
<asrwt>0</asrwt>
<pdfrwt beam="1">  1       21 0.30936928E-01 0.21658558E+03</pdfrwt>
<pdfrwt beam="2">  1       21 0.12258033E+00 0.21658558E+03</pdfrwt>
<totfact> 0.49326312E+03</totfact>
</mgrwt>
</event>
<event>
12    1  0.1029207E-001  0.2305308E+03  0.7546771E-02  0.1126324E+00
         21   -1    0    0  501  502  0.00000000000E+00  0.00000000000E+00  0.21223120090E+03  0.21223120090E+03  0.00000000000E+00 0. -1.
         21   -1    0    0  502  503 -0.00000000000E+00 -0.00000000000E+00 -0.25037052858E+03  0.25037052858E+03  0.00000000000E+00 0. -1.
         -6    2    1    2    0  503  0.94475644271E+01  0.15215403759E+03 -0.10838653115E+02  0.23045998143E+03  0.17249411297E+03 0.  0.
        -24    2    3    3    0    0 -0.35061050283E+02  0.89048184025E+02  0.46797691136E+02  0.13398509498E+03  0.81259617615E+02 0.  0.
          6    2    1    2  501    0 -0.94475644271E+01 -0.15215403759E+03 -0.27300674566E+02  0.23214174805E+03  0.17292876200E+03 0.  0.
         24    2    5    5    0    0  0.57095805784E+02 -0.84722920534E+02 -0.40791982265E+02  0.13633422721E+03  0.80530313478E+02 0.  0.
          5    1    5    5  501    0 -0.66543370211E+02 -0.67431117055E+02  0.13491307698E+02  0.95807520841E+02  0.47000000000E+01 0. -1.
        -13    1    6    6    0    0  0.48006058388E+02 -0.56202057506E+02 -0.64538522733E+02  0.98124787014E+02  0.00000000000E+00 0.  1.
         14    1    6    6    0    0  0.90897473957E+01 -0.28520863028E+02  0.23746540469E+02  0.38209440192E+02  0.00000000000E+00 0. -1.
         -5    1    3    3    0  503  0.44508614710E+02  0.63105853564E+02 -0.57636344250E+02  0.96474886452E+02  0.47000000000E+01 0.  1.
         13    1    4    4    0    0  0.63982935517E+01  0.75058557276E+02  0.49511608771E+02  0.90145019739E+02  0.00000000000E+00 0. -1.
        -14    1    4    4    0    0 -0.41459343835E+02  0.13989626749E+02 -0.27139176354E+01  0.43840075236E+02  0.00000000000E+00 0.  1.
<mgrwt>
<rscale>  2 0.23044932E+03</rscale>
<asrwt>0</asrwt>
<pdfrwt beam="1">  1       21 0.32650954E-01 0.23053083E+03</pdfrwt>
<pdfrwt beam="2">  1       21 0.38518543E-01 0.23053083E+03</pdfrwt>
<totfact> 0.57690925E+04</totfact>
</mgrwt>
</event>
<event>
12    1  0.1029207E-001  0.2113829E+03  0.7546771E-02  0.1141154E+00
         21   -1    0    0  501  502  0.00000000000E+00  0.00000000000E+00  0.35298560186E+03  0.35298560186E+03  0.00000000000E+00 0. -1.
         21   -1    0    0  502  503 -0.00000000000E+00 -0.00000000000E+00 -0.13002803277E+03  0.13002803277E+03  0.00000000000E+00 0. -1.
         -6    2    1    2    0  503 -0.36836849860E+02  0.10850066095E+03  0.62745875895E+02  0.22049888975E+03  0.17763267860E+03 0.  0.
        -24    2    3    3    0    0 -0.84209165742E+02  0.46888160369E+02  0.66592022648E+02  0.14254300874E+03  0.81205472002E+02 0.  0.
          6    2    1    2  501    0  0.36836849860E+02 -0.10850066095E+03  0.16021169320E+03  0.26251474488E+03  0.17354209204E+03 0.  0.
         24    2    5    5    0    0 -0.30669110149E+02 -0.14433919132E+02  0.56233495952E+02  0.10682543229E+03  0.84264669809E+02 0.  0.
          5    1    5    5  501    0  0.67505960009E+02 -0.94066741814E+02  0.10397819725E+03  0.15568931259E+03  0.47000000000E+01 0. -1.
        -13    1    6    6    0    0 -0.52182192362E+02  0.34403297554E+01  0.58856419786E+02  0.78733063058E+02  0.00000000000E+00 0.  1.
         14    1    6    6    0    0  0.21513082213E+02 -0.17874248887E+02 -0.26229238343E+01  0.28092369231E+02  0.00000000000E+00 0. -1.
         -5    1    3    3    0  503  0.47372315882E+02  0.61612500577E+02 -0.38461467531E+01  0.77955881011E+02  0.47000000000E+01 0.  1.
         13    1    4    4    0    0 -0.62228300579E+02  0.61684875547E+02  0.21464576133E+02  0.90211492021E+02  0.00000000000E+00 0. -1.
        -14    1    4    4    0    0 -0.21980865164E+02 -0.14796715178E+02  0.45127446514E+02  0.52331516721E+02  0.00000000000E+00 0.  1.
<mgrwt>
<rscale>  2 0.21052120E+03</rscale>
<asrwt>0</asrwt>
<pdfrwt beam="1">  1       21 0.54305477E-01 0.21138286E+03</pdfrwt>
<pdfrwt beam="2">  1       21 0.20004313E-01 0.21138286E+03</pdfrwt>
<totfact> 0.73325702E+04</totfact>
</mgrwt>
</event>
<event>
12    1  0.1029207E-001  0.4280906E+03  0.7546771E-02  0.1034501E+00
         21   -1    0    0  503  502  0.00000000000E+00  0.00000000000E+00  0.54175267480E+03  0.54175267480E+03  0.00000000000E+00 0. -1.
         21   -1    0    0  501  503 -0.00000000000E+00 -0.00000000000E+00 -0.33882235714E+03  0.33882235714E+03  0.00000000000E+00 0.  1.
          6    2    1    2  501    0  0.38558631499E+03  0.60321893222E+02  0.12413484906E+03  0.44529322105E+03  0.17481720411E+03 0.  0.
         24    2    3    3    0    0  0.34399228234E+03  0.20265212494E+02  0.60322450537E+02  0.35910323655E+03  0.81086172158E+02 0.  0.
         -6    2    1    2    0  502 -0.38558631499E+03 -0.60321893222E+02  0.78795468603E+02  0.43528181089E+03  0.17591472908E+03 0.  0.
        -24    2    5    5    0    0 -0.14718151198E+03  0.99139420945E+01 -0.19165082793E+02  0.16809595368E+03  0.78283239134E+02 0.  0.
          5    1    3    3  501    0  0.41594032656E+02  0.40056680728E+02  0.63812398526E+02  0.86189984506E+02  0.47000000000E+01 0. -1.
        -11    1    4    4    0    0  0.54748447862E+02  0.17840587109E+02 -0.16353362005E+02  0.59859097392E+02  0.00000000000E+00 0.  1.
         12    1    4    4    0    0  0.28924383447E+03  0.24246253854E+01  0.76675812542E+02  0.29924413916E+03  0.00000000000E+00 0. -1.
         -5    1    5    5    0  502 -0.23840480301E+03 -0.70235835317E+02  0.97960551396E+02  0.26718585721E+03  0.47000000000E+01 0.  1.
         11    1    6    6    0    0 -0.72486740236E+02  0.27527698097E+02  0.22546740651E+02  0.80749347902E+02  0.00000000000E+00 0. -1.
        -12    1    6    6    0    0 -0.74694771746E+02 -0.17613756002E+02 -0.41711823444E+02  0.87346605782E+02  0.00000000000E+00 0.  1.
<mgrwt>
<rscale>  2 0.42797806E+03</rscale>
<asrwt>0</asrwt>
<pdfrwt beam="1">  1       21 0.83346565E-01 0.42809056E+03</pdfrwt>
<pdfrwt beam="2">  1       21 0.52126516E-01 0.42809056E+03</pdfrwt>
<totfact> 0.38587697E+03</totfact>
</mgrwt>
</event>
<event>
12    1  0.1029207E-001  0.2185843E+03  0.7546771E-02  0.1135691E+00
         21   -1    0    0  501  502  0.00000000000E+00  0.00000000000E+00  0.34140815722E+03  0.34140815722E+03  0.00000000000E+00 0.  1.
         21   -1    0    0  502  503 -0.00000000000E+00 -0.00000000000E+00 -0.62366202359E+03  0.62366202359E+03  0.00000000000E+00 0. -1.
         -6    2    1    2    0  503 -0.12370419199E+03 -0.23360983048E+02 -0.56746957048E+03  0.60811248395E+03  0.17869140176E+03 0.  0.
        -24    2    3    3    0    0 -0.53574005322E+02 -0.55668979540E+02 -0.47949554491E+03  0.49096484677E+03  0.71842145371E+02 0.  0.
          6    2    1    2  501    0  0.12370419199E+03  0.23360983048E+02  0.28521570411E+03  0.35695769686E+03  0.17384572709E+03 0.  0.
         24    2    5    5    0    0  0.19842246235E+02 -0.43074204656E+02  0.12272924572E+03  0.15293594041E+03  0.77960453261E+02 0.  0.
          5    1    5    5  501    0  0.10386194576E+03  0.66435187704E+02  0.16248645839E+03  0.20402175644E+03  0.47000000000E+01 0. -1.
        -13    1    6    6    0    0 -0.23727681283E+02 -0.34968918197E+02  0.35894315637E+02  0.55445739187E+02  0.00000000000E+00 0.  1.
         14    1    6    6    0    0  0.43569927518E+02 -0.81052864584E+01  0.86834930085E+02  0.97490201227E+02  0.00000000000E+00 0. -1.
         -5    1    3    3    0  503 -0.70130186668E+02  0.32307996492E+02 -0.87974025576E+02  0.11714763717E+03  0.47000000000E+01 0.  1.
         11    1    4    4    0    0 -0.96236133853E+01 -0.49775089612E+00 -0.26487194422E+03  0.26504718170E+03  0.00000000000E+00 0. -1.
        -12    1    4    4    0    0 -0.43950391937E+02 -0.55171228644E+02 -0.21462360069E+03  0.22591766508E+03  0.00000000000E+00 0.  1.
<mgrwt>
<rscale>  2 0.21759173E+03</rscale>
<asrwt>0</asrwt>
<pdfrwt beam="1">  1       21 0.52524332E-01 0.21858426E+03</pdfrwt>
<pdfrwt beam="2">  1       21 0.95948003E-01 0.21858426E+03</pdfrwt>
<totfact> 0.30450696E+03</totfact>
</mgrwt>
</event>
<event>
12    1  0.1029207E-001  0.1780056E+03  0.7546771E-02  0.1170540E+00
         21   -1    0    0  503  502  0.00000000000E+00  0.00000000000E+00  0.10806617658E+04  0.10806617658E+04  0.00000000000E+00 0. -1.
         21   -1    0    0  501  503 -0.00000000000E+00 -0.00000000000E+00 -0.28923307322E+02  0.28923307322E+02  0.00000000000E+00 0. -1.
          6    2    1    2  501    0  0.30374099465E+02 -0.88384198519E+01  0.55788700852E+03  0.58463244729E+03  0.17191998305E+03 0.  0.
         24    2    3    3    0    0  0.57563732576E+02 -0.18825965246E+02  0.54231023112E+03  0.55140966587E+03  0.79273151530E+02 0.  0.
         -6    2    1    2    0  502 -0.30374099465E+02  0.88384198519E+01  0.49385144996E+03  0.52495262583E+03  0.17517220429E+03 0.  0.
        -24    2    5    5    0    0 -0.50005988024E+02 -0.54047212279E+02  0.35732481762E+03  0.37328975919E+03  0.79009613604E+02 0.  0.
          5    1    3    3  501    0 -0.27189633111E+02  0.99875453942E+01  0.15576777395E+02  0.33222781427E+02  0.47000000000E+01 0. -1.
        -13    1    4    4    0    0  0.23399172411E+02  0.14753443088E+02  0.40573467840E+03  0.40667654790E+03  0.00000000000E+00 0.  1.
         14    1    4    4    0    0  0.34164560166E+02 -0.33579408335E+02  0.13657555272E+03  0.14473311797E+03  0.00000000000E+00 0. -1.
         -5    1    5    5    0  502  0.19631888559E+02  0.62885632131E+02  0.13652663234E+03  0.15166286663E+03  0.47000000000E+01 0.  1.
         11    1    6    6    0    0  0.54910064045E+01 -0.33002683915E+02  0.23451513617E+03  0.23688958903E+03  0.00000000000E+00 0. -1.
        -12    1    6    6    0    0 -0.55496994428E+02 -0.21044528364E+02  0.12280968145E+03  0.13640017017E+03  0.00000000000E+00 0.  1.
<mgrwt>
<rscale>  2 0.17720031E+03</rscale>
<asrwt>0</asrwt>
<pdfrwt beam="1">  1       21 0.16625562E+00 0.17800563E+03</pdfrwt>
<pdfrwt beam="2">  1       21 0.44497404E-02 0.17800563E+03</pdfrwt>
<totfact> 0.74896001E+04</totfact>
</mgrwt>
</event>
<event>
12    1  0.1029207E-001  0.3387029E+03  0.7546771E-02  0.1067383E+00
         21   -1    0    0  501  502  0.00000000000E+00  0.00000000000E+00  0.56525234653E+02  0.56525234653E+02  0.00000000000E+00 0.  1.
         21   -1    0    0  502  503 -0.00000000000E+00 -0.00000000000E+00 -0.22844283734E+04  0.22844283734E+04  0.00000000000E+00 0.  1.
         -6    2    1    2    0  503  0.17047501465E+01 -0.29110402929E+03 -0.72108961528E+03  0.79654219042E+03  0.17252468176E+03 0.  0.
        -24    2    3    3    0    0  0.26237402146E+02 -0.16571157512E+03 -0.56547145731E+03  0.59513658061E+03  0.79251833670E+02 0.  0.
          6    2    1    2  501    0 -0.17047501465E+01  0.29110402929E+03 -0.15068135234E+04  0.15444114176E+04  0.17313338894E+03 0.  0.
         24    2    5    5    0    0  0.80660402990E+01  0.55281436767E+02 -0.32593737893E+03  0.34016961374E+03  0.79743920612E+02 0.  0.
          5    1    5    5  501    0 -0.97707904455E+01  0.23582259252E+03 -0.11808761445E+04  0.12042418039E+04  0.47000000000E+01 0. -1.
        -11    1    6    6    0    0  0.36086507172E+01  0.51580324785E+02 -0.87311391024E+02  0.10147330323E+03  0.00000000000E+00 0.  1.
         12    1    6    6    0    0  0.44573895818E+01  0.37011119828E+01 -0.23862598790E+03  0.23869631052E+03  0.00000000000E+00 0. -1.
         -5    1    3    3    0  503 -0.24532652000E+02 -0.12539245417E+03 -0.15561815797E+03  0.20140560981E+03  0.47000000000E+01 0.  1.
         13    1    4    4    0    0 -0.20945889672E+02 -0.82332873438E+02 -0.33371762952E+03  0.34436156666E+03  0.00000000000E+00 0. -1.
        -14    1    4    4    0    0  0.47183291819E+02 -0.83378701685E+02 -0.23175382779E+03  0.25077501394E+03  0.00000000000E+00 0.  1.
<mgrwt>
<rscale>  2 0.33862515E+03</rscale>
<asrwt>0</asrwt>
<pdfrwt beam="1">  1       21 0.86961915E-02 0.33870287E+03</pdfrwt>
<pdfrwt beam="2">  1       21 0.35145046E+00 0.33870287E+03</pdfrwt>
<totfact> 0.15291445E+03</totfact>
</mgrwt>
</event>
<event>
12    1  0.1029207E-001  0.1749635E+03  0.7546771E-02  0.1172883E+00
         21   -1    0    0  503  502  0.00000000000E+00  0.00000000000E+00  0.10300863502E+03  0.10300863502E+03  0.00000000000E+00 0. -1.
         21   -1    0    0  501  503 -0.00000000000E+00 -0.00000000000E+00 -0.11092240040E+04  0.11092240040E+04  0.00000000000E+00 0. -1.
          6    2    1    2  501    0 -0.23750902186E+02  0.96426873241E+01 -0.10217834000E+04  0.10365778520E+04  0.17261297710E+03 0.  0.
         24    2    3    3    0    0  0.33536408788E+02 -0.26527096757E+02 -0.37321902177E+03  0.38446748400E+03  0.81819499299E+02 0.  0.
         -6    2    1    2    0  502  0.23750902186E+02 -0.96426873241E+01  0.15568031103E+02  0.17565478700E+03  0.17307557259E+03 0.  0.
        -24    2    5    5    0    0 -0.30528999017E+02  0.28768385441E+02  0.46778392692E+02  0.10204843635E+03  0.80411600878E+02 0.  0.
          5    1    3    3  501    0 -0.57287310974E+02  0.36169784081E+02 -0.64856437826E+03  0.65211036798E+03  0.47000000000E+01 0. -1.
        -13    1    4    4    0    0  0.48725300263E+02  0.55326957910E+01 -0.28822476975E+03  0.29236669356E+03  0.00000000000E+00 0.  1.
         14    1    4    4    0    0 -0.15188891474E+02 -0.32059792548E+02 -0.84994252023E+02  0.92100790438E+02  0.00000000000E+00 0. -1.
         -5    1    5    5    0  502  0.54279901203E+02 -0.38411072765E+02 -0.31210361589E+02  0.73606350650E+02  0.47000000000E+01 0.  1.
         13    1    6    6    0    0 -0.28852382659E+02  0.54756991912E+02  0.20880043670E+02  0.65320474371E+02  0.00000000000E+00 0. -1.
        -14    1    6    6    0    0 -0.16766163576E+01 -0.25988606471E+02  0.25898349022E+02  0.36727961975E+02  0.00000000000E+00 0.  1.
<mgrwt>
<rscale>  2 0.17484903E+03</rscale>
<asrwt>0</asrwt>
<pdfrwt beam="1">  1       21 0.15847482E-01 0.17496354E+03</pdfrwt>
<pdfrwt beam="2">  1       21 0.17064985E+00 0.17496354E+03</pdfrwt>
<totfact> 0.76057763E+03</totfact>
</mgrwt>
</event>
<event>
12    1  0.1029207E-001  0.1848179E+03  0.7546771E-02  0.1163253E+00
         21   -1    0    0  503  502  0.00000000000E+00  0.00000000000E+00  0.13550619118E+03  0.13550619118E+03  0.00000000000E+00 0.  1.
         21   -1    0    0  501  503 -0.00000000000E+00 -0.00000000000E+00 -0.55925950236E+03  0.55925950236E+03  0.00000000000E+00 0. -1.
          6    2    1    2  501    0 -0.38047561481E+02 -0.53337169188E+02 -0.46944942378E+03  0.50451998471E+03  0.17281545920E+03 0.  0.
         24    2    3    3    0    0 -0.90901291614E+02 -0.51631472892E+02 -0.34007805242E+03  0.36467911831E+03  0.80055754225E+02 0.  0.
         -6    2    1    2    0  502  0.38047561481E+02  0.53337169188E+02  0.45696112592E+02  0.19024570883E+03  0.17266390611E+03 0.  0.
        -24    2    5    5    0    0  0.82403497041E+02  0.53131982841E+02  0.61414368535E+02  0.14295253078E+03  0.83966406784E+02 0.  0.
          5    1    3    3  501    0  0.52853730133E+02 -0.17056962963E+01 -0.12937137136E+03  0.13984086640E+03  0.47000000000E+01 0. -1.
        -13    1    4    4    0    0 -0.33652903412E+02  0.20593021593E+02 -0.97054022106E+02  0.10476675834E+03  0.00000000000E+00 0.  1.
         14    1    4    4    0    0 -0.57248388202E+02 -0.72224494484E+02 -0.24302403031E+03  0.25991235997E+03  0.00000000000E+00 0. -1.
         -5    1    5    5    0  502 -0.44355935560E+02  0.20518634750E+00 -0.15718255943E+02  0.47293178057E+02  0.47000000000E+01 0.  1.
         11    1    6    6    0    0 -0.21832785223E+01  0.39868618456E+02  0.35682372266E+02  0.53549090872E+02  0.00000000000E+00 0. -1.
        -12    1    6    6    0    0  0.84586775563E+02  0.13263364384E+02  0.25731996269E+02  0.89403439906E+02  0.00000000000E+00 0.  1.
<mgrwt>
<rscale>  2 0.18478246E+03</rscale>
<asrwt>0</asrwt>
<pdfrwt beam="1">  1       21 0.20847106E-01 0.18481789E+03</pdfrwt>
<pdfrwt beam="2">  1       21 0.86039923E-01 0.18481789E+03</pdfrwt>
<totfact> 0.25002663E+04</totfact>
</mgrwt>
</event>
<event>
12    1  0.1029207E-001  0.2078172E+03  0.7546771E-02  0.1144941E+00
         21   -1    0    0  501  502  0.00000000000E+00  0.00000000000E+00  0.14450791037E+03  0.14450791037E+03  0.00000000000E+00 0.  1.
         21   -1    0    0  502  503 -0.00000000000E+00 -0.00000000000E+00 -0.28945239234E+03  0.28945239234E+03  0.00000000000E+00 0. -1.
         -6    2    1    2    0  503 -0.83851710328E+02 -0.45023343100E+02 -0.88872488884E+02  0.21871150798E+03  0.17572192150E+03 0.  0.
        -24    2    3    3    0    0 -0.80945553076E+02 -0.18301122534E+02  0.10034708854E+02  0.11610913673E+03  0.80582396357E+02 0.  0.
          6    2    1    2  501    0  0.83851710328E+02  0.45023343100E+02 -0.56071993089E+02  0.21524879472E+03  0.18474242737E+03 0.  0.
         24    2    5    5    0    0  0.71882766136E+02  0.18529967492E+02  0.39672727570E+02  0.11507746095E+03  0.78475505364E+02 0.  0.
          5    1    5    5  501    0  0.11968944191E+02  0.26493375608E+02 -0.95744720659E+02  0.10017133377E+03  0.47000000000E+01 0. -1.
        -11    1    6    6    0    0 -0.21179755553E+01  0.31675321852E+02  0.43882131323E+01  0.32047905538E+02  0.00000000000E+00 0.  1.
         12    1    6    6    0    0  0.74000741692E+02 -0.13145354359E+02  0.35284514438E+02  0.83029555408E+02  0.00000000000E+00 0. -1.
         -5    1    3    3    0  503 -0.29061572516E+01 -0.26722220566E+02 -0.98907197738E+02  0.10260237125E+03  0.47000000000E+01 0.  1.
         11    1    4    4    0    0 -0.40508753015E+02 -0.19590671096E+02 -0.33934655712E+02  0.56358799873E+02  0.00000000000E+00 0. -1.
        -12    1    4    4    0    0 -0.40436800061E+02  0.12895485618E+01  0.43969364566E+02  0.59750336861E+02  0.00000000000E+00 0.  1.
<mgrwt>
<rscale>  2 0.20579375E+03</rscale>
<asrwt>0</asrwt>
<pdfrwt beam="1">  1       21 0.22231986E-01 0.20781717E+03</pdfrwt>
<pdfrwt beam="2">  1       21 0.44531137E-01 0.20781717E+03</pdfrwt>
<totfact> 0.91055102E+04</totfact>
</mgrwt>
</event>
<event>
12    1  0.1029207E-001  0.1771813E+03  0.7546771E-02  0.1170636E+00
         21   -1    0    0  503  502  0.00000000000E+00  0.00000000000E+00  0.14791762150E+03  0.14791762150E+03  0.00000000000E+00 0. -1.
         21   -1    0    0  501  503 -0.00000000000E+00 -0.00000000000E+00 -0.22491990688E+03  0.22491990688E+03  0.00000000000E+00 0. -1.
          6    2    1    2  501    0  0.34940113090E+02 -0.57090548770E+01 -0.83450760100E+02  0.19585001087E+03  0.17360815818E+03 0.  0.
         24    2    3    3    0    0 -0.29768769977E+02  0.37470958248E+02 -0.69516109172E+02  0.11667919821E+03  0.80568563861E+02 0.  0.
         -6    2    1    2    0  502 -0.34940113090E+02  0.57090548770E+01  0.64484747184E+01  0.17698751750E+03  0.17329048940E+03 0.  0.
        -24    2    5    5    0    0 -0.68342721176E+02  0.49321244004E+02 -0.12232217519E+02  0.11877398360E+03  0.82790817043E+02 0.  0.
          5    1    3    3  501    0  0.64708883067E+02 -0.43180013125E+02 -0.13934650928E+02  0.79170812663E+02  0.47000000000E+01 0. -1.
        -11    1    4    4    0    0 -0.13891570601E+02  0.21478207079E+02  0.14698529069E+02  0.29501455386E+02  0.00000000000E+00 0.  1.
         12    1    4    4    0    0 -0.15877199375E+02  0.15992751169E+02 -0.84214638241E+02  0.87177742825E+02  0.00000000000E+00 0. -1.
         -5    1    5    5    0  502  0.33402608086E+02 -0.43612189127E+02  0.18680692238E+02  0.58213533906E+02  0.47000000000E+01 0.  1.
         11    1    6    6    0    0 -0.13802750303E+02  0.18486398937E+02 -0.43132806050E+02  0.48915251398E+02  0.00000000000E+00 0. -1.
        -12    1    6    6    0    0 -0.54539970873E+02  0.30834845067E+02  0.30900588531E+02  0.69858732201E+02  0.00000000000E+00 0.  1.
<mgrwt>
<rscale>  2 0.17710339E+03</rscale>
<asrwt>0</asrwt>
<pdfrwt beam="1">  1       21 0.22756557E-01 0.17718126E+03</pdfrwt>
<pdfrwt beam="2">  1       21 0.34603063E-01 0.17718126E+03</pdfrwt>
<totfact> 0.14650765E+05</totfact>
</mgrwt>
</event>
<event>
12    1  0.1029207E-001  0.1747802E+03  0.7546771E-02  0.1173030E+00
         21   -1    0    0  501  502  0.00000000000E+00  0.00000000000E+00  0.65383441819E+03  0.65383441819E+03  0.00000000000E+00 0.  1.
         21   -1    0    0  502  503 -0.00000000000E+00 -0.00000000000E+00 -0.60346200848E+02  0.60346200848E+02  0.00000000000E+00 0.  1.
         -6    2    1    2    0  503  0.19355429345E+02 -0.16453381459E+02  0.12635413063E+03  0.21541976498E+03  0.17261217341E+03 0.  0.
        -24    2    3    3    0    0 -0.11684371584E+02  0.39029477371E+02  0.12106991631E+03  0.15145235306E+03  0.81363787824E+02 0.  0.
          6    2    1    2  501    0 -0.19355429345E+02  0.16453381459E+02  0.46713408671E+03  0.49876085406E+03  0.17292422666E+03 0.  0.
         24    2    5    5    0    0 -0.47745682992E+02  0.46790036838E+02  0.43062733615E+03  0.44325272854E+03  0.81019262706E+02 0.  0.
          5    1    5    5  501    0  0.28390253647E+02 -0.30336655379E+02  0.36506750566E+02  0.55508125518E+02  0.47000000000E+01 0. -1.
        -11    1    6    6    0    0  0.83656421585E+00  0.14755726629E+02  0.29864737290E+03  0.29901285030E+03  0.00000000000E+00 0.  1.
         12    1    6    6    0    0 -0.48582247208E+02  0.32034310209E+02  0.13197996325E+03  0.14423987824E+03  0.00000000000E+00 0. -1.
         -5    1    3    3    0  503  0.31039800930E+02 -0.55482858830E+02  0.52842143109E+01  0.63967411911E+02  0.47000000000E+01 0.  1.
         11    1    4    4    0    0 -0.35689157376E+02  0.28316352275E+02  0.25240113545E+02  0.52082579545E+02  0.00000000000E+00 0. -1.
        -12    1    4    4    0    0  0.24004785792E+02  0.10713125096E+02  0.95829802770E+02  0.99369773519E+02  0.00000000000E+00 0.  1.
<mgrwt>
<rscale>  2 0.17470301E+03</rscale>
<asrwt>0</asrwt>
<pdfrwt beam="1">  1       21 0.10058991E+00 0.17478025E+03</pdfrwt>
<pdfrwt beam="2">  1       21 0.92840313E-02 0.17478025E+03</pdfrwt>
<totfact> 0.75487782E+04</totfact>
</mgrwt>
</event>
<event>
12    1  0.1029207E-001  0.2208038E+03  0.7546771E-02  0.1133737E+00
         21   -1    0    0  501  502  0.00000000000E+00  0.00000000000E+00  0.24365981765E+03  0.24365981765E+03  0.00000000000E+00 0.  1.
         21   -1    0    0  502  503 -0.00000000000E+00 -0.00000000000E+00 -0.32032958630E+03  0.32032958630E+03  0.00000000000E+00 0. -1.
         -6    2    1    2    0  503 -0.82551503874E+02 -0.10633514016E+03 -0.21253462514E+03  0.30473362861E+03  0.17195843887E+03 0.  0.
        -24    2    3    3    0    0 -0.10520577013E+03 -0.10698679872E+03 -0.22350271063E+03  0.27912055895E+03  0.73759037399E+02 0.  0.
          6    2    1    2  501    0  0.82551503874E+02  0.10633514016E+03  0.13586485649E+03  0.25925577534E+03  0.17502109871E+03 0.  0.
         24    2    5    5    0    0  0.42898954716E+02 -0.13255978402E+02  0.83867813070E+02  0.12287343477E+03  0.77769078847E+02 0.  0.
          5    1    5    5  501    0  0.39652549158E+02  0.11959111857E+03  0.51997043417E+02  0.13638234057E+03  0.47000000000E+01 0. -1.
        -11    1    6    6    0    0  0.30672135317E+02  0.31163535872E+02  0.41324577673E+02  0.60163664888E+02  0.00000000000E+00 0.  1.
         12    1    6    6    0    0  0.12226819399E+02 -0.44419514274E+02  0.42543235397E+02  0.62709769885E+02  0.00000000000E+00 0. -1.
         -5    1    3    3    0  503  0.22654266252E+02  0.65165855825E+00  0.10968085491E+02  0.25613069665E+02  0.47000000000E+01 0.  1.
         13    1    4    4    0    0 -0.17268811516E+02 -0.59435750153E+02 -0.53064541525E+02  0.81527086387E+02  0.00000000000E+00 0. -1.
        -14    1    4    4    0    0 -0.87936958610E+02 -0.47551048569E+02 -0.17043816911E+03  0.19759347256E+03  0.00000000000E+00 0.  1.
<mgrwt>
<rscale>  2 0.22019634E+03</rscale>
<asrwt>0</asrwt>
<pdfrwt beam="1">  1       21 0.37486126E-01 0.22080375E+03</pdfrwt>
<pdfrwt beam="2">  1       21 0.49281475E-01 0.22080375E+03</pdfrwt>
<totfact> 0.26540216E+04</totfact>
</mgrwt>
</event>
<event>
12    1  0.1029207E-001  0.1789248E+03  0.7546771E-02  0.1169200E+00
         21   -1    0    0  501  502  0.00000000000E+00  0.00000000000E+00  0.58164681127E+02  0.58164681127E+02  0.00000000000E+00 0.  1.
         21   -1    0    0  502  503 -0.00000000000E+00 -0.00000000000E+00 -0.70913331665E+03  0.70913331665E+03  0.00000000000E+00 0.  1.
         -6    2    1    2    0  503 -0.18339008122E+02 -0.43099423171E+02 -0.51051567983E+03  0.54096243106E+03  0.17268530037E+03 0.  0.
        -24    2    3    3    0    0 -0.51623813839E+02 -0.78061168216E+02 -0.42536985013E+03  0.44297210386E+03  0.80784969287E+02 0.  0.
          6    2    1    2  501    0  0.18339008122E+02  0.43099423171E+02 -0.14045295569E+03  0.22633556672E+03  0.17119251299E+03 0.  0.
         24    2    5    5    0    0  0.47754628634E+02  0.70045103960E+02 -0.48406411593E+02  0.12590646375E+03  0.79513745888E+02 0.  0.
          5    1    5    5  501    0 -0.29415620512E+02 -0.26945680789E+02 -0.92046544099E+02  0.10042910297E+03  0.47000000000E+01 0. -1.
        -13    1    6    6    0    0  0.10644089980E+02  0.67468573017E+02 -0.46310488860E+01  0.68459854004E+02  0.00000000000E+00 0.  1.
         14    1    6    6    0    0  0.37110538654E+02  0.25765309434E+01 -0.43775362707E+02  0.57446609743E+02  0.00000000000E+00 0. -1.
         -5    1    3    3    0  503  0.33284805716E+02  0.34961745045E+02 -0.85145829704E+02  0.97990327197E+02  0.47000000000E+01 0.  1.
         11    1    4    4    0    0 -0.40984362019E+02 -0.60117290640E+02 -0.14899516875E+03  0.16581123869E+03  0.00000000000E+00 0. -1.
        -12    1    4    4    0    0 -0.10639451820E+02 -0.17943877577E+02 -0.27637468138E+03  0.27716086517E+03  0.00000000000E+00 0.  1.
<mgrwt>
<rscale>  2 0.17856366E+03</rscale>
<asrwt>0</asrwt>
<pdfrwt beam="1">  1       21 0.89484121E-02 0.17892482E+03</pdfrwt>
<pdfrwt beam="2">  1       21 0.10909744E+00 0.17892482E+03</pdfrwt>
<totfact> 0.66169229E+04</totfact>
</mgrwt>
</event>
<event>
12    1  0.1029207E-001  0.1819124E+03  0.7546771E-02  0.1166118E+00
         21   -1    0    0  503  502  0.00000000000E+00  0.00000000000E+00  0.33628002515E+03  0.33628002515E+03  0.00000000000E+00 0.  1.
         21   -1    0    0  501  503 -0.00000000000E+00 -0.00000000000E+00 -0.19698238036E+03  0.19698238036E+03  0.00000000000E+00 0.  1.
          6    2    1    2  501    0 -0.36508156268E+01  0.54415431316E+02 -0.11936021447E+03  0.21704094129E+03  0.17287435258E+03 0.  0.
         24    2    3    3    0    0 -0.65879499529E+02  0.58081631396E+02 -0.86266207685E+02  0.14630796872E+03  0.79060601819E+02 0.  0.
         -6    2    1    2    0  502  0.36508156268E+01 -0.54415431316E+02  0.25865785926E+03  0.31622146423E+03  0.17354468780E+03 0.  0.
        -24    2    5    5    0    0  0.24989494755E+02 -0.99765504414E+02  0.21537558172E+03  0.24983310753E+03  0.73839756866E+02 0.  0.
          5    1    3    3  501    0  0.62228683902E+02 -0.36662000797E+01 -0.33094006781E+02  0.70732972566E+02  0.47000000000E+01 0. -1.
        -11    1    4    4    0    0 -0.19511869796E+02  0.54221823470E+02 -0.81108075420E+02  0.99494919980E+02  0.00000000000E+00 0.  1.
         12    1    4    4    0    0 -0.46367629733E+02  0.38598079260E+01 -0.51581322644E+01  0.46813048744E+02  0.00000000000E+00 0. -1.
         -5    1    5    5    0  502 -0.21338679128E+02  0.45350073098E+02  0.43282277533E+02  0.66388356701E+02  0.47000000000E+01 0.  1.
         11    1    6    6    0    0 -0.78032316905E+01 -0.39018391909E+02  0.24192179351E+02  0.46568088577E+02  0.00000000000E+00 0. -1.
        -12    1    6    6    0    0  0.32792726446E+02 -0.60747112506E+02  0.19118340237E+03  0.20326501895E+03  0.00000000000E+00 0.  1.
<mgrwt>
<rscale>  2 0.18175236E+03</rscale>
<asrwt>0</asrwt>
<pdfrwt beam="1">  1       21 0.51735388E-01 0.18191241E+03</pdfrwt>
<pdfrwt beam="2">  1       21 0.30304982E-01 0.18191241E+03</pdfrwt>
<totfact> 0.37274408E+04</totfact>
</mgrwt>
</event>
<event>
11    1  0.1029207E-001  0.1731481E+03  0.7546771E-02  0.1174686E+00
         21   -1    0    0  503  502  0.00000000000E+00  0.00000000000E+00  0.10319715331E+03  0.10319715331E+03  0.00000000000E+00 0.  1.
         21   -1    0    0  501  503 -0.00000000000E+00 -0.00000000000E+00 -0.36722837446E+03  0.36722837446E+03  0.00000000000E+00 0.  1.
          6    2    1    2  501    0  0.38065487119E+01 -0.52981729858E+01 -0.23999512817E+03  0.29593567624E+03  0.17302514984E+03 0.  0.
         24    2    3    3    0    0  0.28140281178E+02 -0.23268774216E+02 -0.45866199093E+02  0.99407805063E+02  0.80280086011E+02 0.  0.
         -6    2    1    2    0  502 -0.38065487119E+01  0.52981729858E+01 -0.24036092976E+02  0.17448985153E+03  0.17270325438E+03 0.  0.
          5    1    3    3  501    0 -0.24333732466E+02  0.17970601231E+02 -0.19412892908E+03  0.19652787118E+03  0.47000000000E+01 0. -1.
        -11    1    4    4    0    0  0.49731647576E+02  0.54381533894E+01 -0.15506810545E+02  0.52376248970E+02  0.00000000000E+00 0.  1.
         12    1    4    4    0    0 -0.21591366399E+02 -0.28706927606E+02 -0.30359388548E+02  0.47031556093E+02  0.00000000000E+00 0. -1.
         -5    1    5    5    0  502 -0.33208872961E+02  0.33450854739E+02  0.55113685341E+02  0.72673222289E+02  0.47000000000E+01 0.  1.
         13    1    5    5    0    0 -0.34215343625E+01 -0.14863533862E+02 -0.59280672298E+02  0.61211352251E+02  0.00000000000E+00 0. -1.
        -14    1    5    5    0    0  0.32823858611E+02 -0.13289147891E+02 -0.19869106019E+02  0.40605276994E+02  0.00000000000E+00 0.  1.
<mgrwt>
<rscale>  2 0.17306762E+03</rscale>
<asrwt>0</asrwt>
<pdfrwt beam="1">  1       21 0.15876485E-01 0.17314810E+03</pdfrwt>
<pdfrwt beam="2">  1       21 0.56496672E-01 0.17314810E+03</pdfrwt>
<totfact> 0.10498520E+05</totfact>
</mgrwt>
</event>
<event>
12    1  0.1029207E-001  0.1948564E+03  0.7546771E-02  0.1154483E+00
         21   -1    0    0  501  502  0.00000000000E+00  0.00000000000E+00  0.16947455823E+03  0.16947455823E+03  0.00000000000E+00 0. -1.
         21   -1    0    0  502  503 -0.00000000000E+00 -0.00000000000E+00 -0.27932806817E+03  0.27932806817E+03  0.00000000000E+00 0. -1.
         -6    2    1    2    0  503  0.86129866923E+02  0.34672444805E+02 -0.15648365008E+03  0.24991226430E+03  0.17131396529E+03 0.  0.
        -24    2    3    3    0    0  0.73849485114E+02 -0.28821251923E+02 -0.14519459555E+03  0.18409592854E+03  0.80780129435E+02 0.  0.
          6    2    1    2  501    0 -0.86129866923E+02 -0.34672444805E+02  0.46630140135E+02  0.19889036210E+03  0.16959502871E+03 0.  0.
         24    2    5    5    0    0 -0.16479457141E+02  0.28683493152E+02  0.55567594541E+02  0.10419547022E+03  0.81698366964E+02 0.  0.
          5    1    5    5  501    0 -0.69650409783E+02 -0.63355937957E+02 -0.89374544056E+01  0.94694891882E+02  0.47000000000E+01 0. -1.
        -13    1    6    6    0    0  0.18648458909E+02  0.51390226117E+01 -0.13233512098E+02  0.23437158862E+02  0.00000000000E+00 0.  1.
         14    1    6    6    0    0 -0.35127916049E+02  0.23544470540E+02  0.68801106639E+02  0.80758311360E+02  0.00000000000E+00 0. -1.
         -5    1    3    3    0  503  0.12280381809E+02  0.63493696728E+02 -0.11289054522E+02  0.65816335765E+02  0.47000000000E+01 0.  1.
         13    1    4    4    0    0  0.50355685985E+02 -0.11574983124E+02 -0.14606934373E+03  0.15493846690E+03  0.00000000000E+00 0. -1.
        -14    1    4    4    0    0  0.23493799129E+02 -0.17246268799E+02  0.87474817811E+00  0.29157461642E+02  0.00000000000E+00 0.  1.
<mgrwt>
<rscale>  2 0.19447789E+03</rscale>
<asrwt>0</asrwt>
<pdfrwt beam="1">  1       21 0.26073009E-01 0.19485638E+03</pdfrwt>
<pdfrwt beam="2">  1       21 0.42973549E-01 0.19485638E+03</pdfrwt>
<totfact> 0.72713790E+04</totfact>
</mgrwt>
</event>
<event>
12    1  0.1029207E-001  0.1892777E+03  0.7546771E-02  0.1159282E+00
         21   -1    0    0  501  502  0.00000000000E+00  0.00000000000E+00  0.50864904130E+03  0.50864904130E+03  0.00000000000E+00 0.  1.
         21   -1    0    0  502  503 -0.00000000000E+00 -0.00000000000E+00 -0.73781420020E+02  0.73781420020E+02  0.00000000000E+00 0. -1.
         -6    2    1    2    0  503 -0.76228479500E+02  0.85340465816E+01  0.15251460236E+03  0.24250505595E+03  0.17223352517E+03 0.  0.
        -24    2    3    3    0    0  0.16748885204E+02 -0.16152438699E+02  0.10856923499E+03  0.13663958370E+03  0.79634606891E+02 0.  0.
          6    2    1    2  501    0  0.76228479500E+02 -0.85340465816E+01  0.28235301892E+03  0.33992540537E+03  0.17303884791E+03 0.  0.
         24    2    5    5    0    0  0.59705381379E+02 -0.21431622935E+01  0.58881185946E+02  0.11570318010E+03  0.79692572527E+02 0.  0.
          5    1    5    5  501    0  0.16523098121E+02 -0.63908842881E+01  0.22347183297E+03  0.22422222527E+03  0.47000000000E+01 0. -1.
        -13    1    6    6    0    0  0.27542513192E+02  0.96764280099E+01  0.73016605485E+02  0.78636174681E+02  0.00000000000E+00 0.  1.
         14    1    6    6    0    0  0.32162868188E+02 -0.11819590303E+02 -0.14135419539E+02  0.37067005416E+02  0.00000000000E+00 0. -1.
         -5    1    3    3    0  503 -0.92977364704E+02  0.24686485281E+02  0.43945367373E+02  0.10586547226E+03  0.47000000000E+01 0.  1.
         13    1    4    4    0    0 -0.97671685815E+01  0.97646648384E+01 -0.68459725848E+01  0.15414720307E+02  0.00000000000E+00 0. -1.
        -14    1    4    4    0    0  0.26516053785E+02 -0.25917103537E+02  0.11541520758E+03  0.12122486339E+03  0.00000000000E+00 0.  1.
<mgrwt>
<rscale>  2 0.18909346E+03</rscale>
<asrwt>0</asrwt>
<pdfrwt beam="1">  1       21 0.78253696E-01 0.18927772E+03</pdfrwt>
<pdfrwt beam="2">  1       21 0.11350988E-01 0.18927772E+03</pdfrwt>
<totfact> 0.93809352E+04</totfact>
</mgrwt>
</event>
<event>
12    1  0.1029207E-001  0.3303863E+03  0.7546771E-02  0.1070991E+00
         21   -1    0    0  503  502  0.00000000000E+00  0.00000000000E+00  0.81887052367E+02  0.81887052367E+02  0.00000000000E+00 0.  1.
         21   -1    0    0  501  503 -0.00000000000E+00 -0.00000000000E+00 -0.13362039306E+04  0.13362039306E+04  0.00000000000E+00 0. -1.
          6    2    1    2  501    0  0.25920329145E+03  0.11234941053E+03 -0.58755041825E+03  0.67395885061E+03  0.17086925408E+03 0.  0.
         24    2    3    3    0    0  0.82377617163E+02  0.97342336442E+01 -0.28687304344E+03  0.31032968878E+03  0.84424792391E+02 0.  0.
         -6    2    1    2    0  502 -0.25920329145E+03 -0.11234941053E+03 -0.66676646002E+03  0.74413213239E+03  0.17130785710E+03 0.  0.
        -24    2    5    5    0    0 -0.11056324188E+03  0.12240463704E+02 -0.29310662778E+03  0.32310925733E+03  0.78192311095E+02 0.  0.
          5    1    3    3  501    0  0.17682567429E+03  0.10261517689E+03 -0.30067737481E+03  0.36362916183E+03  0.47000000000E+01 0. -1.
        -13    1    4    4    0    0  0.85196292893E+01 -0.91831570757E+01  0.96660192593E+00  0.12563788298E+02  0.00000000000E+00 0.  1.
         14    1    4    4    0    0  0.73857987874E+02  0.18917390720E+02 -0.28783964537E+03  0.29776590048E+03  0.00000000000E+00 0. -1.
         -5    1    5    5    0  502 -0.14864004957E+03 -0.12458987424E+03 -0.37365983224E+03  0.42102287507E+03  0.47000000000E+01 0.  1.
         11    1    6    6    0    0  0.11488331487E+02  0.32613986397E+01 -0.14336060791E+02  0.18658540148E+02  0.00000000000E+00 0. -1.
        -12    1    6    6    0    0 -0.12205157337E+03  0.89790650643E+01 -0.27877056699E+03  0.30445071718E+03  0.00000000000E+00 0.  1.
<mgrwt>
<rscale>  2 0.33032950E+03</rscale>
<asrwt>0</asrwt>
<pdfrwt beam="1">  1       21 0.12598008E-01 0.33038632E+03</pdfrwt>
<pdfrwt beam="2">  1       21 0.20556984E+00 0.33038632E+03</pdfrwt>
<totfact> 0.60450092E+03</totfact>
</mgrwt>
</event>
<event>
12    1  0.1029207E-001  0.2222194E+03  0.7546771E-02  0.1132459E+00
         21   -1    0    0  503  502  0.00000000000E+00  0.00000000000E+00  0.63524693904E+02  0.63524693904E+02  0.00000000000E+00 0.  1.
         21   -1    0    0  501  503 -0.00000000000E+00 -0.00000000000E+00 -0.10055747652E+04  0.10055747652E+04  0.00000000000E+00 0. -1.
          6    2    1    2  501    0 -0.90709027604E+02 -0.10524178865E+03 -0.72896614840E+03  0.76208471613E+03  0.17342868069E+03 0.  0.
         24    2    3    3    0    0 -0.15194214381E+02 -0.45150938862E+01 -0.16405840528E+03  0.18330047111E+03  0.80203816256E+02 0.  0.
         -6    2    1    2    0  502  0.90709027604E+02  0.10524178865E+03 -0.21308392285E+03  0.30701474293E+03  0.17189919263E+03 0.  0.
        -24    2    5    5    0    0  0.25367915786E+01  0.37733839939E+02 -0.16084294199E+03  0.18420238025E+03  0.81423503440E+02 0.  0.
          5    1    3    3  501    0 -0.75514813223E+02 -0.10072669477E+03 -0.56490774311E+03  0.57878424502E+03  0.47000000000E+01 0. -1.
        -11    1    4    4    0    0 -0.27930748054E+02 -0.31893822432E+02 -0.51208562117E+02  0.66480519179E+02  0.00000000000E+00 0.  1.
         12    1    4    4    0    0  0.12736533673E+02  0.27378728546E+02 -0.11284984317E+03  0.11681995193E+03  0.00000000000E+00 0. -1.
         -5    1    5    5    0  502  0.88172236025E+02  0.67507948715E+02 -0.52240980864E+02  0.12281236268E+03  0.47000000000E+01 0.  1.
         11    1    6    6    0    0  0.37825469387E+02  0.36676561145E+02 -0.11361737245E+03  0.12523914561E+03  0.00000000000E+00 0. -1.
        -12    1    6    6    0    0 -0.35288677809E+02  0.10572787947E+01 -0.47225569541E+02  0.58963234633E+02  0.00000000000E+00 0.  1.
<mgrwt>
<rscale>  2 0.22192091E+03</rscale>
<asrwt>0</asrwt>
<pdfrwt beam="1">  1       21 0.97730306E-02 0.22221942E+03</pdfrwt>
<pdfrwt beam="2">  1       21 0.15470380E+00 0.22221942E+03</pdfrwt>
<totfact> 0.22840193E+04</totfact>
</mgrwt>
</event>
<event>
12    1  0.1029207E-001  0.2153261E+03  0.7546771E-02  0.1137757E+00
         21   -1    0    0  501  502  0.00000000000E+00  0.00000000000E+00  0.25820417221E+03  0.25820417221E+03  0.00000000000E+00 0.  1.
         21   -1    0    0  502  503 -0.00000000000E+00 -0.00000000000E+00 -0.23028367433E+03  0.23028367433E+03  0.00000000000E+00 0. -1.
         -6    2    1    2    0  503  0.11555850201E+03  0.41291720961E+02 -0.10226775456E+03  0.23837785745E+03  0.17693653013E+03 0.  0.
        -24    2    3    3    0    0 -0.87141923601E+00 -0.68770873026E-02 -0.79305698438E+02  0.11263666776E+03  0.79980408235E+02 0.  0.
          6    2    1    2  501    0 -0.11555850201E+03 -0.41291720961E+02  0.13018825245E+03  0.25010998909E+03  0.17477772158E+03 0.  0.
         24    2    5    5    0    0 -0.12117363498E+03 -0.23982513809E+02  0.15814371438E+03  0.21642414307E+03  0.81066420428E+02 0.  0.
          5    1    5    5  501    0  0.56151329712E+01 -0.17309207152E+02 -0.27955461933E+02  0.33685846024E+02  0.47000000000E+01 0. -1.
        -11    1    6    6    0    0 -0.10532285972E+03 -0.50340584635E+02  0.11981058036E+03  0.16727717838E+03  0.00000000000E+00 0.  1.
         12    1    6    6    0    0 -0.15850775264E+02  0.26358070826E+02  0.38333134013E+02  0.49146964682E+02  0.00000000000E+00 0. -1.
         -5    1    3    3    0  503  0.11642992125E+03  0.41298598048E+02 -0.22962056121E+02  0.12574118969E+03  0.47000000000E+01 0.  1.
         13    1    4    4    0    0  0.36483110698E+02 -0.15367712462E+02 -0.40048145642E+02  0.56311969615E+02  0.00000000000E+00 0. -1.
        -14    1    4    4    0    0 -0.37354529934E+02  0.15360835375E+02 -0.39257552796E+02  0.56324698149E+02  0.00000000000E+00 0.  1.
<mgrwt>
<rscale>  2 0.21488209E+03</rscale>
<asrwt>0</asrwt>
<pdfrwt beam="1">  1       21 0.39723719E-01 0.21532605E+03</pdfrwt>
<pdfrwt beam="2">  1       21 0.35428258E-01 0.21532605E+03</pdfrwt>
<totfact> 0.46407681E+04</totfact>
</mgrwt>
</event>
<event>
12    1  0.1029207E-001  0.2187741E+03  0.7546771E-02  0.1134811E+00
         21   -1    0    0  501  502  0.00000000000E+00  0.00000000000E+00  0.27483701224E+03  0.27483701224E+03  0.00000000000E+00 0. -1.
         21   -1    0    0  502  503 -0.00000000000E+00 -0.00000000000E+00 -0.19054641244E+03  0.19054641244E+03  0.00000000000E+00 0. -1.
         -6    2    1    2    0  503  0.12601208769E+03 -0.39546832198E+02  0.11049874031E+03  0.24504508232E+03  0.17433910227E+03 0.  0.
        -24    2    3    3    0    0  0.11577195497E+03 -0.82251079109E+02  0.49076076607E+02  0.16939227908E+03  0.78210596112E+02 0.  0.
          6    2    1    2  501    0 -0.12601208769E+03  0.39546832198E+02 -0.26208140511E+02  0.22033834236E+03  0.17441078035E+03 0.  0.
         24    2    5    5    0    0  0.93444133795E+01  0.10492621861E+02 -0.14309585776E+02  0.81308866620E+02  0.78796918537E+02 0.  0.
          5    1    5    5  501    0 -0.13535650106E+03  0.29054210336E+02 -0.11898554735E+02  0.13902947574E+03  0.47000000000E+01 0. -1.
        -11    1    6    6    0    0  0.11385890635E+02  0.16858838173E+02 -0.45272058381E+02  0.49632833892E+02  0.00000000000E+00 0.  1.
         12    1    6    6    0    0 -0.20414772554E+01 -0.63662163118E+01  0.30962472605E+02  0.31676032728E+02  0.00000000000E+00 0. -1.
         -5    1    3    3    0  503  0.10240132716E+02  0.42704246911E+02  0.61422663703E+02  0.75652803244E+02  0.47000000000E+01 0.  1.
         11    1    4    4    0    0 -0.73938581178E+01 -0.18825736784E+02  0.18738983271E+02  0.27572214227E+02  0.00000000000E+00 0. -1.
        -12    1    4    4    0    0  0.12316581309E+03 -0.63425342325E+02  0.30337093336E+02  0.14182006485E+03  0.00000000000E+00 0.  1.
<mgrwt>
<rscale>  2 0.21875984E+03</rscale>
<asrwt>0</asrwt>
<pdfrwt beam="1">  1       21 0.42282617E-01 0.21877413E+03</pdfrwt>
<pdfrwt beam="2">  1       21 0.29314833E-01 0.21877413E+03</pdfrwt>
<totfact> 0.59284728E+04</totfact>
</mgrwt>
</event>
<event>
12    1  0.1029207E-001  0.1835269E+03  0.7546771E-02  0.1164739E+00
         21   -1    0    0  501  502  0.00000000000E+00  0.00000000000E+00  0.13527540997E+03  0.13527540997E+03  0.00000000000E+00 0. -1.
         21   -1    0    0  502  503 -0.00000000000E+00 -0.00000000000E+00 -0.24867025848E+03  0.24867025848E+03  0.00000000000E+00 0.  1.
         -6    2    1    2    0  503  0.42458789993E+02  0.36828702012E+02 -0.71072715334E+02  0.19560210563E+03  0.17334863923E+03 0.  0.
        -24    2    3    3    0    0  0.68533578628E+02  0.64084606985E+02 -0.29625974534E+01  0.11760302156E+03  0.70837881418E+02 0.  0.
          6    2    1    2  501    0 -0.42458789993E+02 -0.36828702012E+02 -0.42322133174E+02  0.18834356282E+03  0.17470842155E+03 0.  0.
         24    2    5    5    0    0  0.38483782714E+02 -0.46439832115E+02 -0.25887316104E+02  0.10505930795E+03  0.82034416633E+02 0.  0.
          5    1    5    5  501    0 -0.80942572707E+02  0.96111301036E+01 -0.16434817070E+02  0.83284254877E+02  0.47000000000E+01 0. -1.
        -13    1    6    6    0    0 -0.17747976946E+02 -0.38251741453E+02  0.10312011591E+01  0.42181154390E+02  0.00000000000E+00 0.  1.
         14    1    6    6    0    0  0.56231759659E+02 -0.81880906624E+01 -0.26918517263E+02  0.62878153557E+02  0.00000000000E+00 0. -1.
         -5    1    3    3    0  503 -0.26074788635E+02 -0.27255904974E+02 -0.68110117880E+02  0.77999084071E+02  0.47000000000E+01 0.  1.
         13    1    4    4    0    0 -0.34383914523E+01  0.23524633730E+02  0.20853809836E+02  0.31624552370E+02  0.00000000000E+00 0. -1.
        -14    1    4    4    0    0  0.71971970080E+02  0.40559973255E+02 -0.23816407290E+02  0.85978469188E+02  0.00000000000E+00 0.  1.
<mgrwt>
<rscale>  2 0.18320258E+03</rscale>
<asrwt>0</asrwt>
<pdfrwt beam="1">  1       21 0.20811602E-01 0.18352693E+03</pdfrwt>
<pdfrwt beam="2">  1       21 0.38256963E-01 0.18352693E+03</pdfrwt>
<totfact> 0.14160494E+05</totfact>
</mgrwt>
</event>
<event>
11    1  0.1029207E-001  0.2613650E+03  0.7546771E-02  0.1106643E+00
         21   -1    0    0  503  502  0.00000000000E+00  0.00000000000E+00  0.38212627703E+02  0.38212627703E+02  0.00000000000E+00 0. -1.
         21   -1    0    0  501  503 -0.00000000000E+00 -0.00000000000E+00 -0.21565412614E+04  0.21565412614E+04  0.00000000000E+00 0. -1.
          6    2    1    2  501    0 -0.19288979975E+03  0.25268033215E+02 -0.15253466289E+04  0.15475768142E+04  0.17454715440E+03 0.  0.
         24    2    3    3    0    0 -0.51145043321E+02 -0.41026854802E+02 -0.70578779772E+03  0.71319958778E+03  0.78855680377E+02 0.  0.
         -6    2    1    2    0  502  0.19288979975E+03 -0.25268033215E+02 -0.59298200475E+03  0.64717707489E+03  0.17136382334E+03 0.  0.
          5    1    3    3  501    0 -0.14174475643E+03  0.66294888016E+02 -0.81955883122E+03  0.83437722643E+03  0.47000000000E+01 0. -1.
        -13    1    4    4    0    0 -0.29933151053E+02 -0.63799784935E+02 -0.53197334490E+03  0.53662095167E+03  0.00000000000E+00 0.  1.
         14    1    4    4    0    0 -0.21211892268E+02  0.22772930134E+02 -0.17381445283E+03  0.17657863612E+03  0.00000000000E+00 0. -1.
         -5    1    5    5    0  502 -0.53747749223E+01  0.21105901169E+02 -0.33462440579E+01  0.22530748300E+02  0.47000000000E+01 0.  1.
         11    1    5    5    0    0  0.57677634083E+02 -0.20567991449E+02 -0.21913208419E+03  0.22752718973E+03  0.00000000000E+00 0. -1.
        -12    1    5    5    0    0  0.14058694059E+03 -0.25805942935E+02 -0.37050367650E+03  0.39711913686E+03  0.00000000000E+00 0.  1.
<mgrwt>
<rscale>  2 0.26083460E+03</rscale>
<asrwt>0</asrwt>
<pdfrwt beam="1">  1       21 0.58788654E-02 0.26136499E+03</pdfrwt>
<pdfrwt beam="2">  1       21 0.33177560E+00 0.26136499E+03</pdfrwt>
<totfact> 0.42414833E+03</totfact>
</mgrwt>
</event>
<event>
12    1  0.1029207E-001  0.2078057E+03  0.7546771E-02  0.1144457E+00
         21   -1    0    0  503  502  0.00000000000E+00  0.00000000000E+00  0.16536181700E+03  0.16536181700E+03  0.00000000000E+00 0. -1.
         21   -1    0    0  501  503 -0.00000000000E+00 -0.00000000000E+00 -0.31569202519E+03  0.31569202519E+03  0.00000000000E+00 0. -1.
          6    2    1    2  501    0 -0.41838681510E+02 -0.10755909402E+03 -0.18218454465E+03  0.27635921412E+03  0.17281137968E+03 0.  0.
         24    2    3    3    0    0  0.16378680791E+02 -0.13761017136E+02 -0.13165772044E+03  0.15485863608E+03  0.78675377606E+02 0.  0.
         -6    2    1    2    0  502  0.41838681510E+02  0.10755909402E+03  0.31854336455E+02  0.20469462807E+03  0.16602938907E+03 0.  0.
        -24    2    5    5    0    0  0.27931417924E+02  0.12721725073E+03  0.64155526910E+02  0.16413218225E+03  0.76544422569E+02 0.  0.
          5    1    3    3  501    0 -0.58217362301E+02 -0.93798076881E+02 -0.50526824211E+02  0.12150057804E+03  0.47000000000E+01 0. -1.
        -11    1    4    4    0    0  0.21877414061E+02  0.16031145009E+02 -0.90941156891E+01  0.28606324413E+02  0.00000000000E+00 0.  1.
         12    1    4    4    0    0 -0.54987332698E+01 -0.29792162145E+02 -0.12256360475E+03  0.12625231167E+03  0.00000000000E+00 0. -1.
         -5    1    5    5    0  502  0.13907263586E+02 -0.19658156716E+02 -0.32301190456E+02  0.40562445818E+02  0.47000000000E+01 0.  1.
         13    1    6    6    0    0  0.42669710697E+02  0.31621621581E+02  0.32937432526E+02  0.62494044707E+02  0.00000000000E+00 0. -1.
        -14    1    6    6    0    0 -0.14738292773E+02  0.95595629152E+02  0.31218094384E+02  0.10163813755E+03  0.00000000000E+00 0.  1.
<mgrwt>
<rscale>  2 0.20639009E+03</rscale>
<asrwt>0</asrwt>
<pdfrwt beam="1">  1       21 0.25440280E-01 0.20780570E+03</pdfrwt>
<pdfrwt beam="2">  1       21 0.48568004E-01 0.20780570E+03</pdfrwt>
<totfact> 0.58883828E+04</totfact>
</mgrwt>
</event>
<event>
12    1  0.1029207E-001  0.1983002E+03  0.7546771E-02  0.1151377E+00
         21   -1    0    0  501  502  0.00000000000E+00  0.00000000000E+00  0.56199896520E+03  0.56199896520E+03  0.00000000000E+00 0. -1.
         21   -1    0    0  502  503 -0.00000000000E+00 -0.00000000000E+00 -0.79585317593E+02  0.79585317593E+02  0.00000000000E+00 0. -1.
         -6    2    1    2    0  503  0.97069246555E+02  0.10427760844E+02  0.12735111918E+03  0.23489966135E+03  0.17154698052E+03 0.  0.
        -24    2    3    3    0    0 -0.14133475776E+02 -0.31448912275E+01  0.71125189937E+02  0.10946558521E+03  0.81940687233E+02 0.  0.
          6    2    1    2  501    0 -0.97069246555E+02 -0.10427760844E+02  0.35506252843E+03  0.40668462144E+03  0.17260302836E+03 0.  0.
         24    2    5    5    0    0 -0.56403569762E+02 -0.73071711010E+02  0.24335252485E+03  0.27222579257E+03  0.79784667432E+02 0.  0.
          5    1    5    5  501    0 -0.40665676794E+02  0.62643950166E+02  0.11171000358E+03  0.13445882887E+03  0.47000000000E+01 0. -1.
        -13    1    6    6    0    0  0.18140446240E+02 -0.79164411071E+01  0.68359187464E+02  0.71166876708E+02  0.00000000000E+00 0.  1.
         14    1    6    6    0    0 -0.74544016002E+02 -0.65155269903E+02  0.17499333739E+03  0.20105891587E+03  0.00000000000E+00 0. -1.
         -5    1    3    3    0  503  0.11120272233E+03  0.13572652072E+02  0.56225929239E+02  0.12543407614E+03  0.47000000000E+01 0.  1.
         13    1    4    4    0    0 -0.10911334788E+02  0.34890714607E+00 -0.17547158391E+02  0.20665955836E+02  0.00000000000E+00 0. -1.
        -14    1    4    4    0    0 -0.32221409881E+01 -0.34937983735E+01  0.88672348327E+02  0.88799629377E+02  0.00000000000E+00 0.  1.
<mgrwt>
<rscale>  2 0.19807020E+03</rscale>
<asrwt>0</asrwt>
<pdfrwt beam="1">  1       21 0.86461377E-01 0.19830023E+03</pdfrwt>
<pdfrwt beam="2">  1       21 0.12243895E-01 0.19830023E+03</pdfrwt>
<totfact> 0.65056001E+04</totfact>
</mgrwt>
</event>
<event>
12    1  0.1029207E-001  0.1733649E+03  0.7546771E-02  0.1174543E+00
         21   -1    0    0  501  502  0.00000000000E+00  0.00000000000E+00  0.41063154737E+03  0.41063154737E+03  0.00000000000E+00 0.  1.
         21   -1    0    0  502  503 -0.00000000000E+00 -0.00000000000E+00 -0.76000166479E+02  0.76000166479E+02  0.00000000000E+00 0.  1.
         -6    2    1    2    0  503 -0.25404466377E+01  0.21624208001E+00  0.11869630495E+03  0.21010517751E+03  0.17334610517E+03 0.  0.
        -24    2    3    3    0    0 -0.38485418581E+02 -0.56349778098E+02  0.59939148775E+02  0.12085133138E+03  0.79724010222E+02 0.  0.
          6    2    1    2  501    0  0.25404466377E+01 -0.21624208001E+00  0.21593507594E+03  0.27652653634E+03  0.17272077943E+03 0.  0.
         24    2    5    5    0    0  0.62745575562E+02  0.13769294274E+02  0.17326831865E+03  0.20127499181E+03  0.79769112845E+02 0.  0.
          5    1    5    5  501    0 -0.60205128924E+02 -0.13985536354E+02  0.42666757291E+02  0.75251544526E+02  0.47000000000E+01 0. -1.
        -11    1    6    6    0    0  0.14468365378E+01  0.24758077734E+02  0.10899167855E+03  0.11177764419E+03  0.00000000000E+00 0.  1.
         12    1    6    6    0    0  0.61298739024E+02 -0.10988783460E+02  0.64276640101E+02  0.89497347617E+02  0.00000000000E+00 0. -1.
         -5    1    3    3    0  503  0.35944971944E+02  0.56566020178E+02  0.58757156178E+02  0.89253846130E+02  0.47000000000E+01 0.  1.
         11    1    4    4    0    0  0.15715597562E+02 -0.25230377917E+02  0.49132875981E+02  0.57424659151E+02  0.00000000000E+00 0. -1.
        -12    1    4    4    0    0 -0.54201016143E+02 -0.31119400181E+02  0.10806272794E+02  0.63426672231E+02  0.00000000000E+00 0.  1.
<mgrwt>
<rscale>  2 0.17320833E+03</rscale>
<asrwt>0</asrwt>
<pdfrwt beam="1">  1       21 0.63174083E-01 0.17336485E+03</pdfrwt>
<pdfrwt beam="2">  1       21 0.11692334E-01 0.17336485E+03</pdfrwt>
<totfact> 0.14346714E+05</totfact>
</mgrwt>
</event>
<event>
12    1  0.1029207E-001  0.1833486E+03  0.7546771E-02  0.1164918E+00
         21   -1    0    0  501  502  0.00000000000E+00  0.00000000000E+00  0.97040025184E+02  0.97040025184E+02  0.00000000000E+00 0. -1.
         21   -1    0    0  502  503 -0.00000000000E+00 -0.00000000000E+00 -0.37262695202E+03  0.37262695202E+03  0.00000000000E+00 0.  1.
         -6    2    1    2    0  503 -0.16040217858E+02 -0.67158229345E+02 -0.73057741062E+02  0.19736805446E+03  0.16985051968E+03 0.  0.
        -24    2    3    3    0    0  0.92359873956E+01  0.23873036775E+02 -0.50251962594E+02  0.10006558021E+03  0.82659755929E+02 0.  0.
          6    2    1    2  501    0  0.16040217858E+02  0.67158229345E+02 -0.20252918577E+03  0.27229892275E+03  0.16840758855E+03 0.  0.
         24    2    5    5    0    0  0.58488806454E+02  0.87058614341E+02 -0.16450004276E+03  0.21174965591E+03  0.82325633284E+02 0.  0.
          5    1    5    5  501    0 -0.42448588596E+02 -0.19900384996E+02 -0.38029143012E+02  0.60549266841E+02  0.47000000000E+01 0. -1.
        -13    1    6    6    0    0  0.48709841109E+02  0.41736816352E+01 -0.48676602999E+02  0.68988984039E+02  0.00000000000E+00 0.  1.
         14    1    6    6    0    0  0.97789653450E+01  0.82884932706E+02 -0.11582343976E+03  0.14276067187E+03  0.00000000000E+00 0. -1.
         -5    1    3    3    0  503 -0.25276205253E+02 -0.91031266120E+02 -0.22805778468E+02  0.97302474249E+02  0.47000000000E+01 0.  1.
         13    1    4    4    0    0  0.28424432006E+02 -0.62354547233E+01 -0.56749790693E+02  0.63775920018E+02  0.00000000000E+00 0. -1.
        -14    1    4    4    0    0 -0.19188444610E+02  0.30108491498E+02  0.64978280984E+01  0.36289660192E+02  0.00000000000E+00 0.  1.
<mgrwt>
<rscale>  2 0.18301373E+03</rscale>
<asrwt>0</asrwt>
<pdfrwt beam="1">  1       21 0.14929235E-01 0.18334862E+03</pdfrwt>
<pdfrwt beam="2">  1       21 0.57327222E-01 0.18334862E+03</pdfrwt>
<totfact> 0.11340835E+05</totfact>
</mgrwt>
</event>
<event>
12    1  0.1029207E-001  0.1879888E+03  0.7546771E-02  0.1160487E+00
         21   -1    0    0  501  502  0.00000000000E+00  0.00000000000E+00  0.14072321248E+03  0.14072321248E+03  0.00000000000E+00 0. -1.
         21   -1    0    0  502  503 -0.00000000000E+00 -0.00000000000E+00 -0.37329796547E+03  0.37329796547E+03  0.00000000000E+00 0. -1.
         -6    2    1    2    0  503  0.68776086921E+02 -0.31107919157E+02 -0.26383104602E+03  0.32345164559E+03  0.17122001467E+03 0.  0.
        -24    2    3    3    0    0  0.59955184194E+02  0.13662466413E+02 -0.67819267688E+02  0.12214366514E+03  0.80859970090E+02 0.  0.
          6    2    1    2  501    0 -0.68776086921E+02  0.31107919157E+02  0.31256293035E+02  0.19056953237E+03  0.17216834217E+03 0.  0.
         24    2    5    5    0    0 -0.45511845202E+01 -0.30798953891E+02 -0.15814215926E+02  0.89599131590E+02  0.82514399440E+02 0.  0.
          5    1    5    5  501    0 -0.64224902401E+02  0.61906873048E+02  0.47070508961E+02  0.10097040078E+03  0.47000000000E+01 0. -1.
        -13    1    6    6    0    0  0.10996867400E+02 -0.20398393284E+02  0.31278220640E+02  0.38927530458E+02  0.00000000000E+00 0.  1.
         14    1    6    6    0    0 -0.15548051920E+02 -0.10400560607E+02 -0.47092436566E+02  0.50671601131E+02  0.00000000000E+00 0. -1.
         -5    1    3    3    0  503  0.88209027269E+01 -0.44770385570E+02 -0.19601177833E+03  0.20130798045E+03  0.47000000000E+01 0.  1.
         13    1    4    4    0    0 -0.16218241304E+02 -0.13038565994E+02 -0.15595782678E+02  0.26005076264E+02  0.00000000000E+00 0. -1.
        -14    1    4    4    0    0  0.76173425498E+02  0.26701032407E+02 -0.52223485010E+02  0.96138588872E+02  0.00000000000E+00 0.  1.
<mgrwt>
<rscale>  2 0.18777140E+03</rscale>
<asrwt>0</asrwt>
<pdfrwt beam="1">  1       21 0.21649725E-01 0.18798881E+03</pdfrwt>
<pdfrwt beam="2">  1       21 0.57430455E-01 0.18798881E+03</pdfrwt>
<totfact> 0.56734876E+04</totfact>
</mgrwt>
</event>
<event>
12    1  0.1029207E-001  0.1971896E+03  0.7546771E-02  0.1152177E+00
         21   -1    0    0  503  502  0.00000000000E+00  0.00000000000E+00  0.12998088355E+03  0.12998088355E+03  0.00000000000E+00 0. -1.
         21   -1    0    0  501  503 -0.00000000000E+00 -0.00000000000E+00 -0.41326949432E+03  0.41326949432E+03  0.00000000000E+00 0.  1.
          6    2    1    2  501    0 -0.91265392836E+02 -0.25758991418E+02 -0.28452513538E+03  0.34605685751E+03  0.17264964060E+03 0.  0.
         24    2    3    3    0    0 -0.69002310873E+02  0.50325170614E+02 -0.15704446538E+03  0.19586412881E+03  0.80036561302E+02 0.  0.
         -6    2    1    2    0  502  0.91265392836E+02  0.25758991418E+02  0.12365246138E+01  0.19719352035E+03  0.17288972759E+03 0.  0.
        -24    2    5    5    0    0  0.12952580995E+03  0.25335915602E+02  0.17594907723E+02  0.15531601793E+03  0.79966496634E+02 0.  0.
          5    1    3    3  501    0 -0.22263081963E+02 -0.76084162032E+02 -0.12748067001E+03  0.15019272871E+03  0.47000000000E+01 0. -1.
        -11    1    4    4    0    0 -0.53486842752E+02  0.50007034380E+02 -0.52315021579E+02  0.89991151331E+02  0.00000000000E+00 0.  1.
         12    1    4    4    0    0 -0.15515468121E+02  0.31813623422E+00 -0.10472944380E+03  0.10587297748E+03  0.00000000000E+00 0. -1.
         -5    1    5    5    0  502 -0.38260417118E+02  0.42307581506E+00 -0.16358383109E+02  0.41877502422E+02  0.47000000000E+01 0.  1.
         13    1    6    6    0    0  0.10852453330E+03  0.20459134326E+02 -0.19755806919E+02  0.11218931505E+03  0.00000000000E+00 0. -1.
        -14    1    6    6    0    0  0.21001276656E+02  0.48767812768E+01  0.37350714641E+02  0.43126702877E+02  0.00000000000E+00 0.  1.
<mgrwt>
<rscale>  2 0.19713701E+03</rscale>
<asrwt>0</asrwt>
<pdfrwt beam="1">  1       21 0.19997059E-01 0.19718964E+03</pdfrwt>
<pdfrwt beam="2">  1       21 0.63579921E-01 0.19718964E+03</pdfrwt>
<totfact> 0.52681404E+04</totfact>
</mgrwt>
</event>
<event>
12    1  0.1029207E-001  0.2323539E+03  0.7546771E-02  0.1125959E+00
         21   -1    0    0  501  502  0.00000000000E+00  0.00000000000E+00  0.18084185665E+03  0.18084185665E+03  0.00000000000E+00 0.  1.
         21   -1    0    0  502  503 -0.00000000000E+00 -0.00000000000E+00 -0.50419013415E+03  0.50419013415E+03  0.00000000000E+00 0. -1.
         -6    2    1    2    0  503  0.14858572940E+03  0.14666082712E+02 -0.38299579232E+03  0.44514415961E+03  0.17080612674E+03 0.  0.
        -24    2    3    3    0    0  0.12219549199E+03  0.23379186615E+02 -0.38904689794E+03  0.41631589761E+03  0.80517781760E+02 0.  0.
          6    2    1    2  501    0 -0.14858572940E+03 -0.14666082712E+02  0.59647514815E+02  0.23988783120E+03  0.17803239191E+03 0.  0.
         24    2    5    5    0    0 -0.48217271524E+02 -0.41587177142E+02 -0.28734514649E+02  0.10338857920E+03  0.76217631829E+02 0.  0.
          5    1    5    5  501    0 -0.10036845788E+03  0.26921094430E+02  0.88382029464E+02  0.13649925199E+03  0.47000000000E+01 0. -1.
        -13    1    6    6    0    0  0.46273806855E+01 -0.42701605606E+01  0.20913479358E+02  0.21840799941E+02  0.00000000000E+00 0.  1.
         14    1    6    6    0    0 -0.52844652210E+02 -0.37317016582E+02 -0.49647994007E+02  0.81547779262E+02  0.00000000000E+00 0. -1.
         -5    1    3    3    0  503  0.26390237412E+02 -0.87131039029E+01  0.60511056187E+01  0.28828261992E+02  0.47000000000E+01 0.  1.
         11    1    4    4    0    0  0.65978669272E+02 -0.25903970565E+02 -0.15107114048E+03  0.16687327520E+03  0.00000000000E+00 0. -1.
        -12    1    4    4    0    0  0.56216822718E+02  0.49283157180E+02 -0.23797575746E+03  0.24944262241E+03  0.00000000000E+00 0.  1.
<mgrwt>
<rscale>  2 0.23096926E+03</rscale>
<asrwt>0</asrwt>
<pdfrwt beam="1">  1       21 0.27821825E-01 0.23235392E+03</pdfrwt>
<pdfrwt beam="2">  1       21 0.77567711E-01 0.23235392E+03</pdfrwt>
<totfact> 0.17767662E+04</totfact>
</mgrwt>
</event>
<event>
12    1  0.1029207E-001  0.1770296E+03  0.7546771E-02  0.1172122E+00
         21   -1    0    0  501  502  0.00000000000E+00  0.00000000000E+00  0.72920764160E+03  0.72920764160E+03  0.00000000000E+00 0.  1.
         21   -1    0    0  502  503 -0.00000000000E+00 -0.00000000000E+00 -0.43114210322E+02  0.43114210322E+02  0.00000000000E+00 0.  1.
         -6    2    1    2    0  503  0.31834807659E+02  0.35189327417E+01  0.27661724722E+03  0.32841524607E+03  0.17410811160E+03 0.  0.
        -24    2    3    3    0    0 -0.38329403190E+02 -0.37938499319E+02  0.15421881508E+03  0.18129216376E+03  0.78580740879E+02 0.  0.
          6    2    1    2  501    0 -0.31834807659E+02 -0.35189327417E+01  0.40947618405E+03  0.44390660585E+03  0.16839385839E+03 0.  0.
         24    2    5    5    0    0 -0.51429097872E+02 -0.53194848365E+02  0.33173195328E+03  0.34947203474E+03  0.81301723459E+02 0.  0.
          5    1    5    5  501    0  0.19594290213E+02  0.49675915624E+02  0.77744230765E+02  0.94434571102E+02  0.47000000000E+01 0. -1.
        -11    1    6    6    0    0  0.45964130021E+01  0.17567968155E+02  0.80400257066E+02  0.82425492743E+02  0.00000000000E+00 0.  1.
         12    1    6    6    0    0 -0.56025510874E+02 -0.70762816521E+02  0.25133169622E+03  0.26704654200E+03  0.00000000000E+00 0. -1.
         -5    1    3    3    0  503  0.70164210850E+02  0.41457432060E+02  0.12239843215E+03  0.14712308231E+03  0.47000000000E+01 0.  1.
         13    1    4    4    0    0  0.54864104224E+01  0.15730512718E+02  0.71384417753E+02  0.73302693181E+02  0.00000000000E+00 0. -1.
        -14    1    4    4    0    0 -0.43815813613E+02 -0.53669012037E+02  0.82834397326E+02  0.10798947058E+03  0.00000000000E+00 0.  1.
<mgrwt>
<rscale>  2 0.17560835E+03</rscale>
<asrwt>0</asrwt>
<pdfrwt beam="1">  1       21 0.11218578E+00 0.17702958E+03</pdfrwt>
<pdfrwt beam="2">  1       21 0.66329560E-02 0.17702958E+03</pdfrwt>
<totfact> 0.10404182E+05</totfact>
</mgrwt>
</event>
<event>
12    1  0.1029207E-001  0.2072345E+03  0.7546771E-02  0.1144161E+00
         21   -1    0    0  503  502  0.00000000000E+00  0.00000000000E+00  0.54685975048E+02  0.54685975048E+02  0.00000000000E+00 0.  1.
         21   -1    0    0  501  503 -0.00000000000E+00 -0.00000000000E+00 -0.10546363361E+04  0.10546363361E+04  0.00000000000E+00 0. -1.
          6    2    1    2  501    0  0.10860475239E+03  0.15274637894E+02 -0.78228368158E+03  0.80878123584E+03  0.17358289712E+03 0.  0.
         24    2    3    3    0    0  0.74742959966E+02  0.66881467208E+02 -0.36563647875E+03  0.38756054850E+03  0.80333700514E+02 0.  0.
         -6    2    1    2    0  502 -0.10860475239E+03 -0.15274637894E+02 -0.21766667945E+03  0.30054107529E+03  0.17583471725E+03 0.  0.
        -24    2    5    5    0    0 -0.99990695132E+02  0.45175314059E+02 -0.18724222677E+03  0.23215879692E+03  0.82456700094E+02 0.  0.
          5    1    3    3  501    0  0.33861792420E+02 -0.51606829314E+02 -0.41664720282E+03  0.42122068734E+03  0.47000000000E+01 0. -1.
        -13    1    4    4    0    0  0.86054975269E+02  0.66549655876E+02 -0.35732979896E+03  0.37352228941E+03  0.00000000000E+00 0.  1.
         14    1    4    4    0    0 -0.11312015303E+02  0.33181133197E+00 -0.83066797984E+01  0.14038259089E+02  0.00000000000E+00 0. -1.
         -5    1    5    5    0  502 -0.86140572547E+01 -0.60449951953E+02 -0.30424452684E+02  0.68382278367E+02  0.47000000000E+01 0.  1.
         13    1    6    6    0    0 -0.16257172167E+02 -0.67538981405E+00 -0.10470162347E+03  0.10595839634E+03  0.00000000000E+00 0. -1.
        -14    1    6    6    0    0 -0.83733522965E+02  0.45850703873E+02 -0.82540603299E+02  0.12620040058E+03  0.00000000000E+00 0.  1.
<mgrwt>
<rscale>  2 0.20675609E+03</rscale>
<asrwt>0</asrwt>
<pdfrwt beam="1">  1       21 0.84132283E-02 0.20723454E+03</pdfrwt>
<pdfrwt beam="2">  1       21 0.16225172E+00 0.20723454E+03</pdfrwt>
<totfact> 0.26385987E+04</totfact>
</mgrwt>
</event>
<event>
12    1  0.1029207E-001  0.2432224E+03  0.7546771E-02  0.1117708E+00
         21   -1    0    0  503  502  0.00000000000E+00  0.00000000000E+00  0.24583783721E+03  0.24583783721E+03  0.00000000000E+00 0. -1.
         21   -1    0    0  501  503 -0.00000000000E+00 -0.00000000000E+00 -0.26417537984E+03  0.26417537984E+03  0.00000000000E+00 0.  1.
          6    2    1    2  501    0  0.71263058887E+02 -0.15658197312E+03  0.67373258293E+02  0.25238126513E+03  0.17193257164E+03 0.  0.
         24    2    3    3    0    0  0.10116178800E+03 -0.16616255701E+03  0.62126683869E+02  0.22020459450E+03  0.82381040803E+02 0.  0.
         -6    2    1    2    0  502 -0.71263058887E+02  0.15658197312E+03 -0.85710800924E+02  0.25763195192E+03  0.17155623973E+03 0.  0.
        -24    2    5    5    0    0 -0.63888177411E+02  0.18317587630E+03 -0.91116865288E+02  0.22911984757E+03  0.80984693232E+02 0.  0.
          5    1    3    3  501    0 -0.29898729111E+02  0.95805838936E+01  0.52465744246E+01  0.32176670639E+02  0.47000000000E+01 0. -1.
        -13    1    4    4    0    0  0.49279247597E+02 -0.14350429546E+03  0.61130554282E+02  0.16358139175E+03  0.00000000000E+00 0.  1.
         14    1    4    4    0    0  0.51882540401E+02 -0.22658261553E+02  0.99612958608E+00  0.56623202746E+02  0.00000000000E+00 0. -1.
         -5    1    5    5    0  502 -0.73748814765E+01 -0.26593903178E+02  0.54060643641E+01  0.28512104359E+02  0.47000000000E+01 0.  1.
         11    1    6    6    0    0  0.10697878579E+02  0.86957140834E+02 -0.48454480971E+02  0.10011905750E+03  0.00000000000E+00 0. -1.
        -12    1    6    6    0    0 -0.74586055990E+02  0.96218735465E+02 -0.42662384317E+02  0.12900079007E+03  0.00000000000E+00 0.  1.
<mgrwt>
<rscale>  2 0.24315593E+03</rscale>
<asrwt>0</asrwt>
<pdfrwt beam="1">  1       21 0.37821206E-01 0.24322242E+03</pdfrwt>
<pdfrwt beam="2">  1       21 0.40642366E-01 0.24322242E+03</pdfrwt>
<totfact> 0.38380995E+04</totfact>
</mgrwt>
</event>
<event>
12    1  0.1029207E-001  0.1984386E+03  0.7546771E-02  0.1152660E+00
         21   -1    0    0  501  502  0.00000000000E+00  0.00000000000E+00  0.17515512530E+03  0.17515512530E+03  0.00000000000E+00 0. -1.
         21   -1    0    0  502  503 -0.00000000000E+00 -0.00000000000E+00 -0.35360324054E+03  0.35360324054E+03  0.00000000000E+00 0. -1.
         -6    2    1    2    0  503  0.86980270404E+02 -0.18730396690E+02 -0.25481719939E+03  0.32297009402E+03  0.17737384622E+03 0.  0.
        -24    2    3    3    0    0  0.64149195186E+02 -0.67364866549E+02 -0.24079765503E+03  0.26724570727E+03  0.69163667476E+02 0.  0.
          6    2    1    2  501    0 -0.86980270404E+02  0.18730396690E+02  0.76369084150E+02  0.20578827182E+03  0.16911587922E+03 0.  0.
         24    2    5    5    0    0  0.10062850356E+02 -0.19270206252E+02  0.47892233489E+02  0.97647464835E+02  0.82272471421E+02 0.  0.
          5    1    5    5  501    0 -0.97043120760E+02  0.38000602943E+02  0.28476850660E+02  0.10814080698E+03  0.47000000000E+01 0. -1.
        -13    1    6    6    0    0 -0.27314124249E+02 -0.38206683324E+01 -0.79450601126E+01  0.28701617902E+02  0.00000000000E+00 0.  1.
         14    1    6    6    0    0  0.37376974604E+02 -0.15449537920E+02  0.55837293602E+02  0.68945846933E+02  0.00000000000E+00 0. -1.
         -5    1    3    3    0  503  0.22831075219E+02  0.48634469858E+02 -0.14019544359E+02  0.55724386745E+02  0.47000000000E+01 0.  1.
         13    1    4    4    0    0  0.67249552520E+02 -0.55483945152E+02 -0.13478307356E+03  0.16052242025E+03  0.00000000000E+00 0. -1.
        -14    1    4    4    0    0 -0.31003573341E+01 -0.11880921397E+02 -0.10601458147E+03  0.10672328703E+03  0.00000000000E+00 0.  1.
<mgrwt>
<rscale>  2 0.19657617E+03</rscale>
<asrwt>0</asrwt>
<pdfrwt beam="1">  1       21 0.26946942E-01 0.19843860E+03</pdfrwt>
<pdfrwt beam="2">  1       21 0.54400498E-01 0.19843860E+03</pdfrwt>
<totfact> 0.41755525E+04</totfact>
</mgrwt>
</event>
<event>
12    1  0.1029207E-001  0.2371597E+03  0.7546771E-02  0.1121796E+00
         21   -1    0    0  501  502  0.00000000000E+00  0.00000000000E+00  0.10687851431E+04  0.10687851431E+04  0.00000000000E+00 0.  1.
         21   -1    0    0  502  503 -0.00000000000E+00 -0.00000000000E+00 -0.53294707811E+02  0.53294707811E+02  0.00000000000E+00 0. -1.
         -6    2    1    2    0  503  0.97835055180E+02 -0.12934902437E+03  0.43859920213E+03  0.49834255948E+03  0.17225904435E+03 0.  0.
        -24    2    3    3    0    0  0.12328393086E+03 -0.53813415843E+02  0.29549981105E+03  0.33447432231E+03  0.80362445333E+02 0.  0.
          6    2    1    2  501    0 -0.97835055180E+02  0.12934902437E+03  0.57689123313E+03  0.62373729139E+03  0.17303712228E+03 0.  0.
         24    2    5    5    0    0  0.12096978178E+02  0.27402868888E+02  0.23681061549E+03  0.25204523193E+03  0.80933782965E+02 0.  0.
          5    1    5    5  501    0 -0.10993203336E+03  0.10194615548E+03  0.34008061764E+03  0.37169205946E+03  0.47000000000E+01 0. -1.
        -11    1    6    6    0    0  0.29422876206E+02  0.49438088124E+02  0.17397904865E+03  0.18324448032E+03  0.00000000000E+00 0.  1.
         12    1    6    6    0    0 -0.17325898028E+02 -0.22035219237E+02  0.62831566842E+02  0.68800751603E+02  0.00000000000E+00 0. -1.
         -5    1    3    3    0  503 -0.25448875679E+02 -0.75535608525E+02  0.14309939108E+03  0.16386823717E+03  0.47000000000E+01 0.  1.
         11    1    4    4    0    0  0.13001518248E+03 -0.57129089267E+02  0.24310737540E+03  0.28154728997E+03  0.00000000000E+00 0. -1.
        -12    1    4    4    0    0 -0.67312516219E+01  0.33156734244E+01  0.52392435650E+02  0.52927032337E+02  0.00000000000E+00 0.  1.
<mgrwt>
<rscale>  2 0.23701778E+03</rscale>
<asrwt>0</asrwt>
<pdfrwt beam="1">  1       21 0.16442847E+00 0.23715968E+03</pdfrwt>
<pdfrwt beam="2">  1       21 0.81991866E-02 0.23715968E+03</pdfrwt>
<totfact> 0.26141038E+04</totfact>
</mgrwt>
</event>
<event>
12    1  0.1029207E-001  0.2512629E+03  0.7546771E-02  0.1112518E+00
         21   -1    0    0  503  502  0.00000000000E+00  0.00000000000E+00  0.26775611998E+03  0.26775611998E+03  0.00000000000E+00 0. -1.
         21   -1    0    0  501  503 -0.00000000000E+00 -0.00000000000E+00 -0.40488036629E+03  0.40488036629E+03  0.00000000000E+00 0.  1.
          6    2    1    2  501    0 -0.16541551010E+03  0.77514088743E+02 -0.28593843821E+03  0.38061126684E+03  0.17243381649E+03 0.  0.
         24    2    3    3    0    0 -0.11029664921E+03 -0.24067449519E+01 -0.23177292350E+03  0.26933943093E+03  0.81571427221E+02 0.  0.
         -6    2    1    2    0  502  0.16541551010E+03 -0.77514088743E+02  0.14881419190E+03  0.29202521942E+03  0.17251765167E+03 0.  0.
        -24    2    5    5    0    0  0.10369949570E+03  0.16363137659E+02  0.10056186719E+03  0.16966437230E+03  0.87475553227E+02 0.  0.
          5    1    3    3  501    0 -0.55118860883E+02  0.79920833695E+02 -0.54165514716E+02  0.11127183592E+03  0.47000000000E+01 0. -1.
        -13    1    4    4    0    0 -0.25699104643E+02  0.10615124727E+02 -0.14430388126E+03  0.14695827639E+03  0.00000000000E+00 0.  1.
         14    1    4    4    0    0 -0.84597544569E+02 -0.13021869679E+02 -0.87469042235E+02  0.12238115454E+03  0.00000000000E+00 0. -1.
         -5    1    5    5    0  502  0.61716014398E+02 -0.93877226402E+02  0.48252324707E+02  0.12236084713E+03  0.47000000000E+01 0.  1.
         11    1    6    6    0    0  0.10950818931E+03  0.34972303096E+01  0.10788264138E+03  0.15376260422E+03  0.00000000000E+00 0. -1.
        -12    1    6    6    0    0 -0.58086936085E+01  0.12865907350E+02 -0.73207741883E+01  0.15901768080E+02  0.00000000000E+00 0.  1.
<mgrwt>
<rscale>  2 0.25124855E+03</rscale>
<asrwt>0</asrwt>
<pdfrwt beam="1">  1       21 0.41193249E-01 0.25126294E+03</pdfrwt>
<pdfrwt beam="2">  1       21 0.62289287E-01 0.25126294E+03</pdfrwt>
<totfact> 0.13104601E+04</totfact>
</mgrwt>
</event>
<event>
12    1  0.1029207E-001  0.2121435E+03  0.7546771E-02  0.1139926E+00
         21   -1    0    0  503  502  0.00000000000E+00  0.00000000000E+00  0.11183617795E+03  0.11183617795E+03  0.00000000000E+00 0. -1.
         21   -1    0    0  501  503 -0.00000000000E+00 -0.00000000000E+00 -0.60978479852E+03  0.60978479852E+03  0.00000000000E+00 0. -1.
          6    2    1    2  501    0 -0.84352753334E+02  0.89503529884E+02 -0.45951657687E+03  0.50602442545E+03  0.17256583055E+03 0.  0.
         24    2    3    3    0    0 -0.62918920986E+02  0.97139973705E+00 -0.34347132967E+03  0.35842382709E+03  0.80841519568E+02 0.  0.
         -6    2    1    2    0  502  0.84352753334E+02 -0.89503529884E+02 -0.38432043698E+02  0.21559655102E+03  0.17285422173E+03 0.  0.
        -24    2    5    5    0    0  0.27218592691E+02 -0.11185638624E+03 -0.55666844692E+02  0.15169748322E+03  0.81612657648E+02 0.  0.
          5    1    3    3  501    0 -0.21433832348E+02  0.88532130147E+02 -0.11604524720E+03  0.14760059836E+03  0.47000000000E+01 0. -1.
        -11    1    4    4    0    0  0.40630379965E+01  0.11379841624E+02 -0.47454003440E+01  0.12981829515E+02  0.00000000000E+00 0.  1.
         12    1    4    4    0    0 -0.66981958982E+02 -0.10408441887E+02 -0.33872592932E+03  0.34544199757E+03  0.00000000000E+00 0. -1.
         -5    1    5    5    0  502  0.57134160643E+02  0.22352856354E+02  0.17234800994E+02  0.63899067793E+02  0.47000000000E+01 0.  1.
         13    1    6    6    0    0  0.25698290533E+02 -0.32044975623E+02  0.16326567354E+02  0.44202255604E+02  0.00000000000E+00 0. -1.
        -14    1    6    6    0    0  0.15203021586E+01 -0.79811410616E+02 -0.71993412046E+02  0.10749522762E+03  0.00000000000E+00 0.  1.
<mgrwt>
<rscale>  2 0.21208471E+03</rscale>
<asrwt>0</asrwt>
<pdfrwt beam="1">  1       21 0.17205566E-01 0.21214347E+03</pdfrwt>
<pdfrwt beam="2">  1       21 0.93813046E-01 0.21214347E+03</pdfrwt>
<totfact> 0.28791187E+04</totfact>
</mgrwt>
</event>
<event>
12    1  0.1029207E-001  0.1821599E+03  0.7546771E-02  0.1166359E+00
         21   -1    0    0  503  502  0.00000000000E+00  0.00000000000E+00  0.99208034682E+02  0.99208034682E+02  0.00000000000E+00 0. -1.
         21   -1    0    0  501  503 -0.00000000000E+00 -0.00000000000E+00 -0.33705704535E+03  0.33705704535E+03  0.00000000000E+00 0. -1.
          6    2    1    2  501    0 -0.53077651547E+01  0.57204105467E+02 -0.15037109204E+03  0.23418927980E+03  0.17009606521E+03 0.  0.
         24    2    3    3    0    0 -0.21711484358E+02 -0.96144499244E+01 -0.14150484978E+03  0.16465869948E+03  0.80777711048E+02 0.  0.
         -6    2    1    2    0  502  0.53077651547E+01 -0.57204105467E+02 -0.87477918626E+02  0.20207580023E+03  0.17286341642E+03 0.  0.
        -24    2    5    5    0    0 -0.53661379487E+02 -0.50986718677E+02 -0.17948747738E+02  0.11057491759E+03  0.80159002773E+02 0.  0.
          5    1    3    3  501    0  0.16403719203E+02  0.66818555391E+02 -0.88662422554E+01  0.69530580322E+02  0.47000000000E+01 0. -1.
        -11    1    4    4    0    0 -0.26181628755E+01 -0.34591769278E+02 -0.21979111517E+02  0.41067342520E+02  0.00000000000E+00 0.  1.
         12    1    4    4    0    0 -0.19093321482E+02  0.24977319353E+02 -0.11952573827E+03  0.12359135696E+03  0.00000000000E+00 0. -1.
         -5    1    5    5    0  502  0.58969144642E+02 -0.62173867899E+01 -0.69529170888E+02  0.91500882633E+02  0.47000000000E+01 0.  1.
         11    1    6    6    0    0 -0.30793017392E+02 -0.79304809129E+00 -0.40586941964E+02  0.50952317939E+02  0.00000000000E+00 0. -1.
        -12    1    6    6    0    0 -0.22868362096E+02 -0.50193670585E+02  0.22638194226E+02  0.59622599655E+02  0.00000000000E+00 0.  1.
<mgrwt>
<rscale>  2 0.18150036E+03</rscale>
<asrwt>0</asrwt>
<pdfrwt beam="1">  1       21 0.15262774E-01 0.18215994E+03</pdfrwt>
<pdfrwt beam="2">  1       21 0.51854931E-01 0.18215994E+03</pdfrwt>
<totfact> 0.13467906E+05</totfact>
</mgrwt>
</event>
<event>
12    1  0.1029207E-001  0.2979749E+03  0.7546771E-02  0.1086263E+00
         21   -1    0    0  503  502  0.00000000000E+00  0.00000000000E+00  0.15657334089E+04  0.15657334089E+04  0.00000000000E+00 0. -1.
         21   -1    0    0  501  503 -0.00000000000E+00 -0.00000000000E+00 -0.57383904615E+02  0.57383904615E+02  0.00000000000E+00 0.  1.
          6    2    1    2  501    0  0.21322828818E+03 -0.11485670925E+03  0.66554611167E+03  0.72920549786E+03  0.17358186775E+03 0.  0.
         24    2    3    3    0    0  0.15407512471E+03 -0.10924217870E+03  0.62312419556E+03  0.65604588696E+03  0.80246152767E+02 0.  0.
         -6    2    1    2    0  502 -0.21322828818E+03  0.11485670925E+03  0.84280339259E+03  0.89391181563E+03  0.17350045829E+03 0.  0.
        -24    2    5    5    0    0 -0.50236151097E+02  0.73977272493E+02  0.46867649041E+03  0.48375258554E+03  0.79765930226E+02 0.  0.
          5    1    3    3  501    0  0.59153163463E+02 -0.56145305431E+01  0.42421916102E+02  0.73159610897E+02  0.47000000000E+01 0. -1.
        -11    1    4    4    0    0  0.90827695933E+00  0.73595923093E+01  0.58292621253E+01  0.94323307257E+01  0.00000000000E+00 0.  1.
         12    1    4    4    0    0  0.15316684775E+03 -0.11660177101E+03  0.61729493344E+03  0.64661355623E+03  0.00000000000E+00 0. -1.
         -5    1    5    5    0  502 -0.16299213708E+03  0.40879436755E+02  0.37412690217E+03  0.41015923009E+03  0.47000000000E+01 0.  1.
         11    1    6    6    0    0 -0.29438860351E+02  0.27684994672E+02  0.37535818482E+03  0.37752731337E+03  0.00000000000E+00 0. -1.
        -12    1    6    6    0    0 -0.20797290746E+02  0.46292277820E+02  0.93318305594E+02  0.10622527217E+03  0.00000000000E+00 0.  1.
<mgrwt>
<rscale>  2 0.29796303E+03</rscale>
<asrwt>0</asrwt>
<pdfrwt beam="1">  1       21 0.24088203E+00 0.29797488E+03</pdfrwt>
<pdfrwt beam="2">  1       21 0.88282942E-02 0.29797488E+03</pdfrwt>
<totfact> 0.70009324E+03</totfact>
</mgrwt>
</event>
<event>
12    1  0.1029207E-001  0.1873819E+03  0.7546771E-02  0.1160863E+00
         21   -1    0    0  503  502  0.00000000000E+00  0.00000000000E+00  0.93307782327E+03  0.93307782327E+03  0.00000000000E+00 0.  1.
         21   -1    0    0  501  503 -0.00000000000E+00 -0.00000000000E+00 -0.44857940401E+02  0.44857940401E+02  0.00000000000E+00 0.  1.
          6    2    1    2  501    0 -0.69261488092E+02 -0.36231473081E+02  0.24769143392E+03  0.31058497685E+03  0.17030005295E+03 0.  0.
         24    2    3    3    0    0 -0.43577261235E+01  0.10013016547E+02  0.20547274565E+03  0.22027684445E+03  0.78635797956E+02 0.  0.
         -6    2    1    2    0  502  0.69261488092E+02  0.36231473081E+02  0.64052844895E+03  0.66735078682E+03  0.17020724244E+03 0.  0.
        -24    2    5    5    0    0  0.66572044716E+02 -0.11699223947E+02  0.58227662080E+03  0.59172043375E+03  0.80735987043E+02 0.  0.
          5    1    3    3  501    0 -0.64903761969E+02 -0.46244489628E+02  0.42218688273E+02  0.90308132403E+02  0.47000000000E+01 0. -1.
        -11    1    4    4    0    0 -0.34594077843E+02 -0.21387089202E+01  0.46487354845E+02  0.57986191961E+02  0.00000000000E+00 0.  1.
         12    1    4    4    0    0  0.30236351719E+02  0.12151725467E+02  0.15898539080E+03  0.16229065249E+03  0.00000000000E+00 0. -1.
         -5    1    5    5    0  502  0.26894433765E+01  0.47930697027E+02  0.58251828151E+02  0.75630353075E+02  0.47000000000E+01 0.  1.
         13    1    6    6    0    0 -0.15663511507E+02 -0.14452157983E+02  0.82099554904E+02  0.84820677777E+02  0.00000000000E+00 0. -1.
        -14    1    6    6    0    0  0.82235556223E+02  0.27529340369E+01  0.50017706590E+03  0.50689975597E+03  0.00000000000E+00 0.  1.
<mgrwt>
<rscale>  2 0.18736082E+03</rscale>
<asrwt>0</asrwt>
<pdfrwt beam="1">  1       21 0.14355042E+00 0.18738191E+03</pdfrwt>
<pdfrwt beam="2">  1       21 0.69012223E-02 0.18738191E+03</pdfrwt>
<totfact> 0.52132878E+04</totfact>
</mgrwt>
</event>
<event>
12    1  0.1029207E-001  0.1744340E+03  0.7546771E-02  0.1173301E+00
         21   -1    0    0  501  502  0.00000000000E+00  0.00000000000E+00  0.50456381363E+03  0.50456381363E+03  0.00000000000E+00 0. -1.
         21   -1    0    0  502  503 -0.00000000000E+00 -0.00000000000E+00 -0.63565737008E+02  0.63565737008E+02  0.00000000000E+00 0. -1.
         -6    2    1    2    0  503 -0.32150318858E+01 -0.19405835378E+02  0.28484854749E+03  0.33401439772E+03  0.17332051234E+03 0.  0.
        -24    2    3    3    0    0 -0.12248892570E+01 -0.88023208371E+01  0.30198056637E+03  0.31322999831E+03  0.82715102419E+02 0.  0.
          6    2    1    2  501    0  0.32150318858E+01  0.19405835378E+02  0.15614952913E+03  0.23411515292E+03  0.17332139655E+03 0.  0.
         24    2    5    5    0    0  0.33409632446E+02  0.57879495470E+02  0.43898241489E+02  0.11158198190E+03  0.77828295251E+02 0.  0.
          5    1    5    5  501    0 -0.30194600560E+02 -0.38473660092E+02  0.11225128764E+03  0.12253317102E+03  0.47000000000E+01 0. -1.
        -13    1    6    6    0    0  0.25658343569E+02 -0.10737884747E+02  0.30430651999E+02  0.41227143299E+02  0.00000000000E+00 0.  1.
         14    1    6    6    0    0  0.77512888773E+01  0.68617380217E+02  0.13467589491E+02  0.70354838596E+02  0.00000000000E+00 0. -1.
         -5    1    3    3    0  503 -0.19901426288E+01 -0.10603514541E+02 -0.17132018876E+02  0.20784399416E+02  0.47000000000E+01 0.  1.
         13    1    4    4    0    0  0.26122853739E+02 -0.28096240840E+02  0.79801497915E+02  0.88544233614E+02  0.00000000000E+00 0. -1.
        -14    1    4    4    0    0 -0.27347742995E+02  0.19293920003E+02  0.22217906846E+03  0.22468576469E+03  0.00000000000E+00 0.  1.
<mgrwt>
<rscale>  2 0.17443381E+03</rscale>
<asrwt>0</asrwt>
<pdfrwt beam="1">  1       21 0.77625199E-01 0.17443403E+03</pdfrwt>
<pdfrwt beam="2">  1       21 0.97793445E-02 0.17443403E+03</pdfrwt>
<totfact> 0.12507978E+05</totfact>
</mgrwt>
</event>
<event>
12    1  0.1029207E-001  0.1794388E+03  0.7546771E-02  0.1169174E+00
         21   -1    0    0  503  502  0.00000000000E+00  0.00000000000E+00  0.12340263484E+04  0.12340263484E+04  0.00000000000E+00 0.  1.
         21   -1    0    0  501  503 -0.00000000000E+00 -0.00000000000E+00 -0.82009568969E+02  0.82009568969E+02  0.00000000000E+00 0.  1.
          6    2    1    2  501    0  0.31506386066E+02 -0.23825080243E+02  0.32006861708E+02  0.18227105108E+03  0.17503716764E+03 0.  0.
         24    2    3    3    0    0  0.11743176472E+02 -0.76531942458E+02 -0.10464240776E+02  0.11159939959E+03  0.79686167211E+02 0.  0.
         -6    2    1    2    0  502 -0.31506386066E+02  0.23825080243E+02  0.11200099177E+04  0.11337648662E+04  0.17158166981E+03 0.  0.
        -24    2    5    5    0    0 -0.94460145645E+00 -0.14215269194E+02  0.21215733787E+03  0.22458969746E+03  0.72296819038E+02 0.  0.
          5    1    3    3  501    0  0.19763209594E+02  0.52706862215E+02  0.42471102484E+02  0.70671651489E+02  0.47000000000E+01 0. -1.
        -11    1    4    4    0    0  0.22584120335E+02  0.46227262341E+01 -0.18183563711E+02  0.29360757455E+02  0.00000000000E+00 0.  1.
         12    1    4    4    0    0 -0.10840943862E+02 -0.81154668692E+02  0.77193229345E+01  0.82238642139E+02  0.00000000000E+00 0. -1.
         -5    1    5    5    0  502 -0.30561784610E+02  0.38040349437E+02  0.90785257981E+03  0.90917516879E+03  0.47000000000E+01 0.  1.
         11    1    6    6    0    0 -0.32810777141E+02 -0.10419473880E+02  0.60817279481E+02  0.69884576382E+02  0.00000000000E+00 0. -1.
        -12    1    6    6    0    0  0.31866175685E+02 -0.37957953143E+01  0.15134005839E+03  0.15470512108E+03  0.00000000000E+00 0.  1.
<mgrwt>
<rscale>  2 0.17859057E+03</rscale>
<asrwt>0</asrwt>
<pdfrwt beam="1">  1       21 0.18985019E+00 0.17943884E+03</pdfrwt>
<pdfrwt beam="2">  1       21 0.12616858E-01 0.17943884E+03</pdfrwt>
<totfact> 0.84811629E+03</totfact>
</mgrwt>
</event>
<event>
12    1  0.1029207E-001  0.2070354E+03  0.7546771E-02  0.1143991E+00
         21   -1    0    0  501  502  0.00000000000E+00  0.00000000000E+00  0.11793279376E+03  0.11793279376E+03  0.00000000000E+00 0. -1.
         21   -1    0    0  502  503 -0.00000000000E+00 -0.00000000000E+00 -0.37195316511E+03  0.37195316511E+03  0.00000000000E+00 0. -1.
         -6    2    1    2    0  503  0.96059540605E+02 -0.61306017079E+02 -0.16497697163E+03  0.26451434119E+03  0.17252412137E+03 0.  0.
        -24    2    3    3    0    0  0.86909616712E+02 -0.50308343852E+01 -0.39793990146E+02  0.12687900362E+03  0.83283426541E+02 0.  0.
          6    2    1    2  501    0 -0.96059540605E+02  0.61306017079E+02 -0.89043399728E+02  0.22537161768E+03  0.17285189021E+03 0.  0.
         24    2    5    5    0    0 -0.95322093693E+02 -0.14115885245E+02 -0.77358590333E+02  0.14890180698E+03  0.83077294496E+02 0.  0.
          5    1    5    5  501    0 -0.73744691171E+00  0.75421902324E+02 -0.11684809395E+02  0.76469810702E+02  0.47000000000E+01 0. -1.
        -13    1    6    6    0    0 -0.36801721662E+02 -0.43445667854E+02 -0.15907228754E+02  0.59117955811E+02  0.00000000000E+00 0.  1.
         14    1    6    6    0    0 -0.58520372031E+02  0.29329782609E+02 -0.61451361579E+02  0.89783851168E+02  0.00000000000E+00 0. -1.
         -5    1    3    3    0  503  0.91499238933E+01 -0.56275182694E+02 -0.12518298148E+03  0.13763533757E+03  0.47000000000E+01 0.  1.
         13    1    4    4    0    0  0.68341071139E+02 -0.39686458538E+02 -0.37556685748E+02  0.87498695076E+02  0.00000000000E+00 0. -1.
        -14    1    4    4    0    0  0.18568545573E+02  0.34655624153E+02 -0.22373043983E+01  0.39380308545E+02  0.00000000000E+00 0.  1.
<mgrwt>
<rscale>  2 0.20696693E+03</rscale>
<asrwt>0</asrwt>
<pdfrwt beam="1">  1       21 0.18143507E-01 0.20703536E+03</pdfrwt>
<pdfrwt beam="2">  1       21 0.57223563E-01 0.20703536E+03</pdfrwt>
<totfact> 0.78841165E+04</totfact>
</mgrwt>
</event>
<event>
12    1  0.1029207E-001  0.2476812E+03  0.7546771E-02  0.1114916E+00
         21   -1    0    0  503  502  0.00000000000E+00  0.00000000000E+00  0.14840800094E+03  0.14840800094E+03  0.00000000000E+00 0. -1.
         21   -1    0    0  501  503 -0.00000000000E+00 -0.00000000000E+00 -0.88698451744E+03  0.88698451744E+03  0.00000000000E+00 0. -1.
          6    2    1    2  501    0  0.16743967529E+03 -0.56348969803E+02 -0.74844924995E+03  0.78836682203E+03  0.17359353409E+03 0.  0.
         24    2    3    3    0    0  0.88659334065E+02 -0.27041463026E+02 -0.21199422562E+03  0.24534623748E+03  0.81618051387E+02 0.  0.
         -6    2    1    2    0  502 -0.16743967529E+03  0.56348969803E+02  0.98727334530E+01  0.24702569635E+03  0.17237451242E+03 0.  0.
        -24    2    5    5    0    0 -0.88886173897E+02  0.10011641487E+03 -0.12102928308E+01  0.15629992658E+03  0.80648334173E+02 0.  0.
          5    1    3    3  501    0  0.78780341224E+02 -0.29307506776E+02 -0.53645502433E+03  0.54302058455E+03  0.47000000000E+01 0. -1.
        -13    1    4    4    0    0  0.87726575628E+00  0.21876974834E+02 -0.26452733375E+02  0.34338298242E+02  0.00000000000E+00 0.  1.
         14    1    4    4    0    0  0.87782068309E+02 -0.48918437861E+02 -0.18554149224E+03  0.21100793924E+03  0.00000000000E+00 0. -1.
         -5    1    5    5    0  502 -0.78553501392E+02 -0.43767445065E+02  0.11083026284E+02  0.90725769768E+02  0.47000000000E+01 0.  1.
         13    1    6    6    0    0 -0.23950843568E+02  0.83687639010E+02  0.12469039379E+02  0.87936003854E+02  0.00000000000E+00 0. -1.
        -14    1    6    6    0    0 -0.64935330329E+02  0.16428775857E+02 -0.13679332210E+02  0.68363922728E+02  0.00000000000E+00 0.  1.
<mgrwt>
<rscale>  2 0.24746769E+03</rscale>
<asrwt>0</asrwt>
<pdfrwt beam="1">  1       21 0.22832001E-01 0.24768118E+03</pdfrwt>
<pdfrwt beam="2">  1       21 0.13645915E+00 0.24768118E+03</pdfrwt>
<totfact> 0.66129963E+03</totfact>
</mgrwt>
</event>
<event>
12    1  0.1029207E-001  0.2271833E+03  0.7546771E-02  0.1128761E+00
         21   -1    0    0  501  502  0.00000000000E+00  0.00000000000E+00  0.25229437223E+03  0.25229437223E+03  0.00000000000E+00 0. -1.
         21   -1    0    0  502  503 -0.00000000000E+00 -0.00000000000E+00 -0.26641440458E+03  0.26641440458E+03  0.00000000000E+00 0. -1.
         -6    2    1    2    0  503 -0.84692754382E+02 -0.11905538131E+03 -0.13263255651E+03  0.26247166644E+03  0.17306916010E+03 0.  0.
        -24    2    3    3    0    0 -0.24747696418E+02 -0.13076328389E+03 -0.12689219724E+03  0.20094503252E+03  0.81029571647E+02 0.  0.
          6    2    1    2  501    0  0.84692754382E+02  0.11905538131E+03  0.11851252416E+03  0.25623711036E+03  0.17396893941E+03 0.  0.
         24    2    5    5    0    0  0.25921837501E+02  0.13882369393E+03  0.60212683837E+02  0.17099763455E+03  0.75303811801E+02 0.  0.
          5    1    5    5  501    0  0.58770916881E+02 -0.19768312621E+02  0.58299840324E+02  0.85239475812E+02  0.47000000000E+01 0. -1.
        -13    1    6    6    0    0  0.26282851561E+02  0.80958912036E+01  0.10940446570E+01  0.27523238804E+02  0.00000000000E+00 0.  1.
         14    1    6    6    0    0 -0.36101405986E+00  0.13072780272E+03  0.59118639180E+02  0.14347439574E+03  0.00000000000E+00 0. -1.
         -5    1    3    3    0  503 -0.59945057964E+02  0.11707902589E+02 -0.57403592696E+01  0.61526633923E+02  0.47000000000E+01 0.  1.
         11    1    4    4    0    0  0.42970987867E+01 -0.72366572569E+02 -0.11300947853E+03  0.13426290672E+03  0.00000000000E+00 0. -1.
        -12    1    4    4    0    0 -0.29044795205E+02 -0.58396711326E+02 -0.13882718706E+02  0.66682125797E+02  0.00000000000E+00 0.  1.
<mgrwt>
<rscale>  2 0.22701100E+03</rscale>
<asrwt>0</asrwt>
<pdfrwt beam="1">  1       21 0.38814519E-01 0.22718327E+03</pdfrwt>
<pdfrwt beam="2">  1       21 0.40986831E-01 0.22718327E+03</pdfrwt>
<totfact> 0.36062772E+04</totfact>
</mgrwt>
</event>
<event>
12    1  0.1029207E-001  0.3604553E+03  0.7546771E-02  0.1058413E+00
         21   -1    0    0  503  502  0.00000000000E+00  0.00000000000E+00  0.44414656402E+03  0.44414656402E+03  0.00000000000E+00 0.  1.
         21   -1    0    0  501  503 -0.00000000000E+00 -0.00000000000E+00 -0.31756669661E+03  0.31756669661E+03  0.00000000000E+00 0.  1.
          6    2    1    2  501    0 -0.26285398426E+03  0.17570206263E+03 -0.43792102976E+02  0.36310571934E+03  0.17310281130E+03 0.  0.
         24    2    3    3    0    0 -0.52283236903E+02  0.25588633227E+02  0.81764263719E+01  0.99293476688E+02  0.80025155752E+02 0.  0.
         -6    2    1    2    0  502  0.26285398426E+03 -0.17570206263E+03  0.17037197039E+03  0.39860754129E+03  0.17291018428E+03 0.  0.
        -24    2    5    5    0    0  0.24299171175E+03 -0.16792634359E+03  0.97787856876E+02  0.32280836445E+03  0.86014803114E+02 0.  0.
          5    1    3    3  501    0 -0.21057074736E+03  0.15011342940E+03 -0.51968529348E+02  0.26381224265E+03  0.47000000000E+01 0. -1.
        -11    1    4    4    0    0 -0.65567361200E+02  0.71420128671E+01  0.25499784892E+02  0.70712984890E+02  0.00000000000E+00 0.  1.
         12    1    4    4    0    0  0.13284124296E+02  0.18446620360E+02 -0.17323358520E+02  0.28580491799E+02  0.00000000000E+00 0. -1.
         -5    1    5    5    0  502  0.19862272513E+02 -0.77757190362E+01  0.72584113514E+02  0.75799176845E+02  0.47000000000E+01 0.  1.
         11    1    6    6    0    0  0.48798927850E+02 -0.76323201929E+02  0.47484926839E+02  0.10228091117E+03  0.00000000000E+00 0. -1.
        -12    1    6    6    0    0  0.19419278390E+03 -0.91603141660E+02  0.50302930037E+02  0.22052745328E+03  0.00000000000E+00 0.  1.
<mgrwt>
<rscale>  2 0.36043217E+03</rscale>
<asrwt>0</asrwt>
<pdfrwt beam="1">  1       21 0.68330241E-01 0.36045529E+03</pdfrwt>
<pdfrwt beam="2">  1       21 0.48856415E-01 0.36045529E+03</pdfrwt>
<totfact> 0.71407704E+03</totfact>
</mgrwt>
</event>
<event>
12    1  0.1029207E-001  0.1994876E+03  0.7546771E-02  0.1150723E+00
         21   -1    0    0  503  502  0.00000000000E+00  0.00000000000E+00  0.23950418977E+04  0.23950418977E+04  0.00000000000E+00 0.  1.
         21   -1    0    0  501  503 -0.00000000000E+00 -0.00000000000E+00 -0.17072179396E+02  0.17072179396E+02  0.00000000000E+00 0.  1.
          6    2    1    2  501    0  0.67434134226E+02  0.64376311732E+02  0.94240463101E+03  0.96275476922E+03  0.17343178815E+03 0.  0.
         24    2    3    3    0    0  0.96492830526E+02 -0.11171837256E+00  0.56494375551E+03  0.57869498691E+03  0.80097204445E+02 0.  0.
         -6    2    1    2    0  502 -0.67434134226E+02 -0.64376311732E+02  0.14355650873E+04  0.14493593079E+04  0.17636216004E+03 0.  0.
        -24    2    5    5    0    0 -0.36878407678E+02 -0.28025711155E+02  0.13352406243E+04  0.13382642744E+04  0.77060274582E+02 0.  0.
          5    1    3    3  501    0 -0.29058696301E+02  0.64488030105E+02  0.37746087550E+03  0.38405978231E+03  0.47000000000E+01 0. -1.
        -13    1    4    4    0    0  0.75501011557E+02  0.13323533370E+02  0.22236410247E+03  0.23520993464E+03  0.00000000000E+00 0.  1.
         14    1    4    4    0    0  0.20991818970E+02 -0.13435251742E+02  0.34257965304E+03  0.34348505227E+03  0.00000000000E+00 0. -1.
         -5    1    5    5    0  502 -0.30555726548E+02 -0.36350600577E+02  0.10032446299E+03  0.11109503347E+03  0.47000000000E+01 0.  1.
         13    1    6    6    0    0  0.11358838062E+02 -0.34175515683E+02  0.35599329206E+03  0.35781030319E+03  0.00000000000E+00 0. -1.
        -14    1    6    6    0    0 -0.48237245740E+02  0.61498045279E+01  0.97924733228E+03  0.98045397125E+03  0.00000000000E+00 0.  1.
<mgrwt>
<rscale>  2 0.19883791E+03</rscale>
<asrwt>0</asrwt>
<pdfrwt beam="1">  1       21 0.36846772E+00 0.19948755E+03</pdfrwt>
<pdfrwt beam="2">  1       21 0.26264910E-02 0.19948755E+03</pdfrwt>
<totfact> 0.10610457E+04</totfact>
</mgrwt>
</event>
<event>
12    1  0.1029207E-001  0.2236471E+03  0.7546771E-02  0.1131274E+00
         21   -1    0    0  503  502  0.00000000000E+00  0.00000000000E+00  0.17620140893E+04  0.17620140893E+04  0.00000000000E+00 0.  1.
         21   -1    0    0  501  503 -0.00000000000E+00 -0.00000000000E+00 -0.77307877249E+02  0.77307877249E+02  0.00000000000E+00 0. -1.
          6    2    1    2  501    0 -0.13165990032E+03  0.53152737407E+02  0.11065569240E+03  0.24952499712E+03  0.17279611998E+03 0.  0.
         24    2    3    3    0    0 -0.12549909089E+03  0.15338527727E+01  0.12574672425E+03  0.19518998018E+03  0.80836348153E+02 0.  0.
         -6    2    1    2    0  502  0.13165990032E+03 -0.53152737407E+02  0.15740505196E+04  0.15897969694E+04  0.17222027392E+03 0.  0.
        -24    2    5    5    0    0  0.53551229048E+01 -0.52676251855E+02  0.70526696972E+03  0.71186754717E+03  0.80934796519E+02 0.  0.
          5    1    3    3  501    0 -0.61608094331E+01  0.51618884635E+02 -0.15091031852E+02  0.54335016943E+02  0.47000000000E+01 0. -1.
        -13    1    4    4    0    0 -0.34369124770E+02 -0.23115675430E+02  0.47042483528E+01  0.41685742654E+02  0.00000000000E+00 0.  1.
         14    1    4    4    0    0 -0.91129966118E+02  0.24649528202E+02  0.12104247590E+03  0.15350423752E+03  0.00000000000E+00 0. -1.
         -5    1    5    5    0  502  0.12630477742E+03 -0.47648555262E+00  0.86878354990E+03  0.87792942222E+03  0.47000000000E+01 0.  1.
         13    1    6    6    0    0  0.59181726514E+01 -0.67016450073E+02  0.35572458263E+03  0.36203067278E+03  0.00000000000E+00 0. -1.
        -14    1    6    6    0    0 -0.56304974661E+00  0.14340198218E+02  0.34954238709E+03  0.34983687439E+03  0.00000000000E+00 0.  1.
<mgrwt>
<rscale>  2 0.22353590E+03</rscale>
<asrwt>0</asrwt>
<pdfrwt beam="1">  1       21 0.27107906E+00 0.22364714E+03</pdfrwt>
<pdfrwt beam="2">  1       21 0.11893521E-01 0.22364714E+03</pdfrwt>
<totfact> 0.28887630E+03</totfact>
</mgrwt>
</event>
<event>
12    1  0.1029207E-001  0.2969080E+03  0.7546771E-02  0.1086852E+00
         21   -1    0    0  503  502  0.00000000000E+00  0.00000000000E+00  0.24895878321E+04  0.24895878321E+04  0.00000000000E+00 0.  1.
         21   -1    0    0  501  503 -0.00000000000E+00 -0.00000000000E+00 -0.63720923771E+02  0.63720923771E+02  0.00000000000E+00 0. -1.
          6    2    1    2  501    0  0.23962072350E+03 -0.25758028145E+02  0.36068332427E+03  0.46689135088E+03  0.17266587960E+03 0.  0.
         24    2    3    3    0    0  0.11418044652E+03 -0.79261925698E+02  0.19487630711E+03  0.25215433246E+03  0.79280546619E+02 0.  0.
         -6    2    1    2    0  502 -0.23962072350E+03  0.25758028145E+02  0.20651835840E+04  0.20864174049E+04  0.17341506513E+03 0.  0.
        -24    2    5    5    0    0 -0.21399490818E+03  0.70386165881E+02  0.18322754425E+04  0.18478453080E+04  0.80937950147E+02 0.  0.
          5    1    3    3  501    0  0.12544027698E+03  0.53503897552E+02  0.16580701716E+03  0.21473701842E+03  0.47000000000E+01 0. -1.
        -11    1    4    4    0    0 -0.48143125710E+01 -0.27226908462E+02  0.53210852433E+02  0.59965631545E+02  0.00000000000E+00 0.  1.
         12    1    4    4    0    0  0.11899475910E+03 -0.52035017235E+02  0.14166545468E+03  0.19218870092E+03  0.00000000000E+00 0. -1.
         -5    1    5    5    0  502 -0.25625815326E+02 -0.44628137736E+02  0.23290814147E+03  0.23857209697E+03  0.47000000000E+01 0.  1.
         13    1    6    6    0    0 -0.87625594350E+02  0.58052213142E+02  0.10603813434E+04  0.10655781987E+04  0.00000000000E+00 0. -1.
        -14    1    6    6    0    0 -0.12636931383E+03  0.12333952739E+02  0.77189409916E+03  0.78226710923E+03  0.00000000000E+00 0.  1.
<mgrwt>
<rscale>  2 0.29679869E+03</rscale>
<asrwt>0</asrwt>
<pdfrwt beam="1">  1       21 0.38301344E+00 0.29690799E+03</pdfrwt>
<pdfrwt beam="2">  1       21 0.98032210E-02 0.29690799E+03</pdfrwt>
<totfact> 0.82052606E+02</totfact>
</mgrwt>
</event>
<event>
12    1  0.1029207E-001  0.1821435E+03  0.7546771E-02  0.1167274E+00
         21   -1    0    0  503  502  0.00000000000E+00  0.00000000000E+00  0.12502691686E+03  0.12502691686E+03  0.00000000000E+00 0.  1.
         21   -1    0    0  501  503 -0.00000000000E+00 -0.00000000000E+00 -0.37181863370E+03  0.37181863370E+03  0.00000000000E+00 0.  1.
          6    2    1    2  501    0 -0.14640081226E+02  0.18296374305E+02 -0.26038044379E+03  0.31419589583E+03  0.17427563271E+03 0.  0.
         24    2    3    3    0    0 -0.15233633889E+02 -0.39774098868E+02 -0.23178563005E+03  0.24929377312E+03  0.81294307765E+02 0.  0.
         -6    2    1    2    0  502  0.14640081226E+02 -0.18296374305E+02  0.13588726947E+02  0.18264965473E+03  0.18062988010E+03 0.  0.
        -24    2    5    5    0    0 -0.35345517347E+01 -0.82101649085E+02 -0.19263309769E+01  0.11435443239E+03  0.79498752299E+02 0.  0.
          5    1    3    3  501    0  0.59355266250E+00  0.58070473173E+02 -0.28594813736E+02  0.64902122707E+02  0.47000000000E+01 0. -1.
        -13    1    4    4    0    0 -0.38510281586E+02 -0.99213566491E+01 -0.51448174020E+02  0.65026069507E+02  0.00000000000E+00 0.  1.
         14    1    4    4    0    0  0.23276647698E+02 -0.29852742219E+02 -0.18033745603E+03  0.18426770361E+03  0.00000000000E+00 0. -1.
         -5    1    5    5    0  502  0.18174632961E+02  0.63805274780E+02  0.15515057924E+02  0.68295222346E+02  0.47000000000E+01 0.  1.
         11    1    6    6    0    0  0.70711988406E+01 -0.42599457266E+02 -0.39715203425E+02  0.58668671329E+02  0.00000000000E+00 0. -1.
        -12    1    6    6    0    0 -0.10605750575E+02 -0.39502191818E+02  0.37788872448E+02  0.55685761058E+02  0.00000000000E+00 0.  1.
<mgrwt>
<rscale>  2 0.18054773E+03</rscale>
<asrwt>0</asrwt>
<pdfrwt beam="1">  1       21 0.19234910E-01 0.18214347E+03</pdfrwt>
<pdfrwt beam="2">  1       21 0.57202867E-01 0.18214347E+03</pdfrwt>
<totfact> 0.71558427E+04</totfact>
</mgrwt>
</event>
<event>
12    1  0.1029207E-001  0.2044180E+03  0.7546771E-02  0.1147450E+00
         21   -1    0    0  501  502  0.00000000000E+00  0.00000000000E+00  0.41749137366E+03  0.41749137366E+03  0.00000000000E+00 0. -1.
         21   -1    0    0  502  503 -0.00000000000E+00 -0.00000000000E+00 -0.11879091168E+03  0.11879091168E+03  0.00000000000E+00 0.  1.
         -6    2    1    2    0  503  0.96943862307E+02 -0.38461876863E+02  0.26655059690E+03  0.33591060419E+03  0.17581036628E+03 0.  0.
        -24    2    3    3    0    0  0.11575785092E+03 -0.45729523205E+02  0.27489178678E+03  0.31358460367E+03  0.85315531283E+02 0.  0.
          6    2    1    2  501    0 -0.96943862307E+02  0.38461876863E+02  0.32149865087E+02  0.20037168115E+03  0.16804097229E+03 0.  0.
         24    2    5    5    0    0 -0.10758995098E+03  0.29372783238E+02  0.74245716201E+02  0.15576112737E+03  0.79440194348E+02 0.  0.
          5    1    5    5  501    0  0.10646088675E+02  0.90890936249E+01 -0.42095851115E+02  0.44610553775E+02  0.47000000000E+01 0. -1.
        -11    1    6    6    0    0 -0.40430044040E+02  0.51272249005E+02  0.45035586065E+02  0.79319833531E+02  0.00000000000E+00 0.  1.
         12    1    6    6    0    0 -0.67159906942E+02 -0.21899465767E+02  0.29210130137E+02  0.76441293840E+02  0.00000000000E+00 0. -1.
         -5    1    3    3    0  503 -0.18813988611E+02  0.72676463414E+01 -0.83411898810E+01  0.22326000524E+02  0.47000000000E+01 0.  1.
         11    1    4    4    0    0  0.40704552747E+02  0.23710177964E+02  0.10853662582E+03  0.11831835149E+03  0.00000000000E+00 0. -1.
        -12    1    4    4    0    0  0.75053298171E+02 -0.69439701169E+02  0.16635516096E+03  0.19526625218E+03  0.00000000000E+00 0.  1.
<mgrwt>
<rscale>  2 0.20273677E+03</rscale>
<asrwt>0</asrwt>
<pdfrwt beam="1">  1       21 0.64229441E-01 0.20441799E+03</pdfrwt>
<pdfrwt beam="2">  1       21 0.18275525E-01 0.20441799E+03</pdfrwt>
<totfact> 0.60721780E+04</totfact>
</mgrwt>
</event>
<event>
12    1  0.1029207E-001  0.2073318E+03  0.7546771E-02  0.1144057E+00
         21   -1    0    0  503  502  0.00000000000E+00  0.00000000000E+00  0.16119659687E+03  0.16119659687E+03  0.00000000000E+00 0.  1.
         21   -1    0    0  501  503 -0.00000000000E+00 -0.00000000000E+00 -0.30853321598E+03  0.30853321598E+03  0.00000000000E+00 0. -1.
          6    2    1    2  501    0 -0.16981215699E+02  0.10932260036E+03 -0.16224122876E+03  0.26186296901E+03  0.17323453926E+03 0.  0.
         24    2    3    3    0    0  0.53011455904E+02  0.94250312672E+02 -0.10959487046E+03  0.17286927835E+03  0.78609260724E+02 0.  0.
         -6    2    1    2    0  502  0.16981215699E+02 -0.10932260036E+03  0.14904609653E+02  0.20786684384E+03  0.17534732603E+03 0.  0.
        -24    2    5    5    0    0 -0.44795112333E+02 -0.62211375668E+02 -0.31565278393E+02  0.11721739436E+03  0.82865513867E+02 0.  0.
          5    1    3    3  501    0 -0.69992671603E+02  0.15072287690E+02 -0.52646358295E+02  0.88993690653E+02  0.47000000000E+01 0. -1.
        -11    1    4    4    0    0 -0.52944687370E+00  0.41181389717E+02 -0.16642753429E+01  0.41218405906E+02  0.00000000000E+00 0.  1.
         12    1    4    4    0    0  0.53540902777E+02  0.53068922955E+02 -0.10793059512E+03  0.13165087245E+03  0.00000000000E+00 0. -1.
         -5    1    5    5    0  502  0.61776328033E+02 -0.47111224693E+02  0.46469888046E+02  0.90649449487E+02  0.47000000000E+01 0.  1.
         13    1    6    6    0    0  0.84231895060E+01 -0.10664883974E+02 -0.40379981935E+02  0.42605549083E+02  0.00000000000E+00 0. -1.
        -14    1    6    6    0    0 -0.53218301839E+02 -0.51546491695E+02  0.88147035419E+01  0.74611845274E+02  0.00000000000E+00 0.  1.
<mgrwt>
<rscale>  2 0.20688442E+03</rscale>
<asrwt>0</asrwt>
<pdfrwt beam="1">  1       21 0.24799477E-01 0.20733181E+03</pdfrwt>
<pdfrwt beam="2">  1       21 0.47466648E-01 0.20733181E+03</pdfrwt>
<totfact> 0.64859729E+04</totfact>
</mgrwt>
</event>
<event>
12    1  0.1029207E-001  0.2860714E+03  0.7546771E-02  0.1092469E+00
         21   -1    0    0  503  502  0.00000000000E+00  0.00000000000E+00  0.12749359032E+04  0.12749359032E+04  0.00000000000E+00 0.  1.
         21   -1    0    0  501  503 -0.00000000000E+00 -0.00000000000E+00 -0.12193356015E+03  0.12193356015E+03  0.00000000000E+00 0.  1.
          6    2    1    2  501    0  0.22182233365E+03 -0.51703008573E+02  0.95300003816E+02  0.30116371562E+03  0.17245041048E+03 0.  0.
         24    2    3    3    0    0  0.20458258686E+03  0.11673850996E+02  0.79350457163E+02  0.23341186519E+03  0.78703812575E+02 0.  0.
         -6    2    1    2    0  502 -0.22182233365E+03  0.51703008573E+02  0.10577023392E+04  0.10957057477E+04  0.17308523442E+03 0.  0.
        -24    2    5    5    0    0 -0.12023899381E+03 -0.18525713071E+02  0.38678589002E+03  0.41350180454E+03  0.81115966111E+02 0.  0.
          5    1    3    3  501    0  0.17239746788E+02 -0.63376859569E+02  0.15949546653E+02  0.67751850429E+02  0.47000000000E+01 0. -1.
        -13    1    4    4    0    0  0.10881632401E+03  0.13221947957E+02  0.92396370945E+00  0.10962055459E+03  0.00000000000E+00 0.  1.
         14    1    4    4    0    0  0.95766262852E+02 -0.15480969609E+01  0.78426493454E+02  0.12379131060E+03  0.00000000000E+00 0. -1.
         -5    1    5    5    0  502 -0.10158333984E+03  0.70228721645E+02  0.67091644920E+03  0.68220394317E+03  0.47000000000E+01 0.  1.
         11    1    6    6    0    0 -0.38341505303E+02  0.31635498163E+02  0.14809625058E+03  0.15621579693E+03  0.00000000000E+00 0. -1.
        -12    1    6    6    0    0 -0.81897488508E+02 -0.50161211234E+02  0.23868963944E+03  0.25728600761E+03  0.00000000000E+00 0.  1.
<mgrwt>
<rscale>  2 0.28597544E+03</rscale>
<asrwt>0</asrwt>
<pdfrwt beam="1">  1       21 0.19614398E+00 0.28607140E+03</pdfrwt>
<pdfrwt beam="2">  1       21 0.18759010E-01 0.28607140E+03</pdfrwt>
<totfact> 0.34318836E+03</totfact>
</mgrwt>
</event>
<event>
12    1  0.1029207E-001  0.2531167E+03  0.7546771E-02  0.1112159E+00
         21   -1    0    0  503  502  0.00000000000E+00  0.00000000000E+00  0.58579112277E+03  0.58579112277E+03  0.00000000000E+00 0. -1.
         21   -1    0    0  501  503 -0.00000000000E+00 -0.00000000000E+00 -0.24292477813E+03  0.24292477813E+03  0.00000000000E+00 0.  1.
          6    2    1    2  501    0 -0.23497994839E+02  0.17678274787E+03 -0.13910115610E+03  0.28432564098E+03  0.17230102374E+03 0.  0.
         24    2    3    3    0    0  0.18859111450E+02  0.14669161723E+03 -0.15600166904E+03  0.22948662262E+03  0.80333632853E+02 0.  0.
         -6    2    1    2    0  502  0.23497994839E+02 -0.17678274787E+03  0.48196750075E+03  0.54439025992E+03  0.17962123376E+03 0.  0.
        -24    2    5    5    0    0 -0.31948864700E+02 -0.12406262280E+03  0.42038051106E+03  0.44606013677E+03  0.76404235520E+02 0.  0.
          5    1    3    3  501    0 -0.42357106289E+02  0.30091130641E+02  0.16900512946E+02  0.54839018356E+02  0.47000000000E+01 0. -1.
        -11    1    4    4    0    0 -0.30897095214E+02  0.43348282272E+02 -0.42425017898E+02  0.68070450360E+02  0.00000000000E+00 0.  1.
         12    1    4    4    0    0  0.49756206664E+02  0.10334333496E+03 -0.11357665115E+03  0.16141617226E+03  0.00000000000E+00 0. -1.
         -5    1    5    5    0  502  0.55446859539E+02 -0.52720125073E+02  0.61586989686E+02  0.98330123152E+02  0.47000000000E+01 0.  1.
         13    1    6    6    0    0  0.23491452892E+02 -0.59912272338E+02  0.18531298633E+03  0.19616888550E+03  0.00000000000E+00 0. -1.
        -14    1    6    6    0    0 -0.55440317592E+02 -0.64150350459E+02  0.23506752473E+03  0.24989125127E+03  0.00000000000E+00 0.  1.
<mgrwt>
<rscale>  2 0.25182157E+03</rscale>
<asrwt>0</asrwt>
<pdfrwt beam="1">  1       21 0.90121711E-01 0.25311674E+03</pdfrwt>
<pdfrwt beam="2">  1       21 0.37373043E-01 0.25311674E+03</pdfrwt>
<totfact> 0.69455813E+03</totfact>
</mgrwt>
</event>
<event>
12    1  0.1029207E-001  0.2058922E+03  0.7546771E-02  0.1145194E+00
         21   -1    0    0  501  502  0.00000000000E+00  0.00000000000E+00  0.54138355592E+03  0.54138355592E+03  0.00000000000E+00 0.  1.
         21   -1    0    0  502  503 -0.00000000000E+00 -0.00000000000E+00 -0.95922220267E+02  0.95922220267E+02  0.00000000000E+00 0.  1.
         -6    2    1    2    0  503  0.34381727325E+02 -0.10379140677E+03  0.83063271920E+02  0.22050371358E+03  0.17253295705E+03 0.  0.
        -24    2    3    3    0    0 -0.29797739888E+02 -0.10923425015E+03  0.55407599599E+02  0.15025020999E+03  0.81762441257E+02 0.  0.
          6    2    1    2  501    0 -0.34381727325E+02  0.10379140677E+03  0.36239806373E+03  0.41680206260E+03  0.17446158173E+03 0.  0.
         24    2    5    5    0    0  0.45976867627E+02  0.71796496883E+02  0.18466094619E+03  0.21908066519E+03  0.81412919691E+02 0.  0.
          5    1    5    5  501    0 -0.80358594952E+02  0.31994909886E+02  0.17773711754E+03  0.19772139741E+03  0.47000000000E+01 0. -1.
        -13    1    6    6    0    0 -0.17162385586E+02  0.36119812697E+02  0.36588743316E+02  0.54202624344E+02  0.00000000000E+00 0.  1.
         14    1    6    6    0    0  0.63139253213E+02  0.35676684186E+02  0.14807220287E+03  0.16487804085E+03  0.00000000000E+00 0. -1.
         -5    1    3    3    0  503  0.64179467213E+02  0.54428433803E+01  0.27655672321E+02  0.70253503594E+02  0.47000000000E+01 0.  1.
         13    1    4    4    0    0  0.67234889245E+01  0.88920071111E+01 -0.54871127534E+01  0.12425035217E+02  0.00000000000E+00 0. -1.
        -14    1    4    4    0    0 -0.36521228813E+02 -0.11812625726E+03  0.60894712352E+02  0.13782517477E+03  0.00000000000E+00 0.  1.
<mgrwt>
<rscale>  2 0.20548308E+03</rscale>
<asrwt>0</asrwt>
<pdfrwt beam="1">  1       21 0.83289776E-01 0.20589221E+03</pdfrwt>
<pdfrwt beam="2">  1       21 0.14757265E-01 0.20589221E+03</pdfrwt>
<totfact> 0.50387782E+04</totfact>
</mgrwt>
</event>
<event>
12    1  0.1029207E-001  0.2188303E+03  0.7546771E-02  0.1134829E+00
         21   -1    0    0  503  502  0.00000000000E+00  0.00000000000E+00  0.14479488420E+04  0.14479488420E+04  0.00000000000E+00 0.  1.
         21   -1    0    0  501  503 -0.00000000000E+00 -0.00000000000E+00 -0.43301145957E+02  0.43301145957E+02  0.00000000000E+00 0.  1.
          6    2    1    2  501    0  0.10828979426E+02 -0.13347683664E+03  0.33937708462E+03  0.40381124558E+03  0.17307045899E+03 0.  0.
         24    2    3    3    0    0  0.33173512528E+02 -0.10643041133E+03  0.34117147780E+03  0.36836978498E+03  0.82887917308E+02 0.  0.
         -6    2    1    2    0  502 -0.10828979426E+02  0.13347683664E+03  0.10652706114E+04  0.10874387424E+04  0.17259261324E+03 0.  0.
        -24    2    5    5    0    0 -0.17038564691E+02  0.92652807159E+02  0.10104780751E+04  0.10186675829E+04  0.87993459688E+02 0.  0.
          5    1    3    3  501    0 -0.22344533102E+02 -0.27046425316E+02 -0.17943931849E+01  0.35441460591E+02  0.47000000000E+01 0. -1.
        -11    1    4    4    0    0  0.10301561069E+02 -0.98030719408E+02  0.17871302054E+03  0.20409431108E+03  0.00000000000E+00 0.  1.
         12    1    4    4    0    0  0.22871951459E+02 -0.83996919197E+01  0.16245845727E+03  0.16427547390E+03  0.00000000000E+00 0. -1.
         -5    1    5    5    0  502  0.62095852656E+01  0.40824029485E+02  0.54792536369E+02  0.68771159466E+02  0.47000000000E+01 0.  1.
         11    1    6    6    0    0 -0.96133374692E+01 -0.15930790454E+02  0.10091601233E+03  0.10261699609E+03  0.00000000000E+00 0. -1.
        -12    1    6    6    0    0 -0.74252272221E+01  0.10858359761E+03  0.90956206274E+03  0.91605058683E+03  0.00000000000E+00 0.  1.
<mgrwt>
<rscale>  2 0.21873584E+03</rscale>
<asrwt>0</asrwt>
<pdfrwt beam="1">  1       21 0.22276132E+00 0.21883034E+03</pdfrwt>
<pdfrwt beam="2">  1       21 0.66617159E-02 0.21883034E+03</pdfrwt>
<totfact> 0.15608486E+04</totfact>
</mgrwt>
</event>
<event>
12    1  0.1029207E-001  0.1974317E+03  0.7546771E-02  0.1154119E+00
         21   -1    0    0  501  502  0.00000000000E+00  0.00000000000E+00  0.14917004380E+04  0.14917004380E+04  0.00000000000E+00 0. -1.
         21   -1    0    0  502  503 -0.00000000000E+00 -0.00000000000E+00 -0.28013629505E+02  0.28013629505E+02  0.00000000000E+00 0. -1.
         -6    2    1    2    0  503 -0.88035842705E+02 -0.17221072283E+02  0.45898341163E+03  0.49579600971E+03  0.16462392342E+03 0.  0.
        -24    2    3    3    0    0 -0.38990835067E+02  0.35151964152E+02  0.13979150668E+03  0.16860507172E+03  0.78294693727E+02 0.  0.
          6    2    1    2  501    0  0.88035842705E+02  0.17221072283E+02  0.10047033969E+04  0.10239180578E+04  0.17587608841E+03 0.  0.
         24    2    5    5    0    0  0.33390023312E+02  0.50240193783E+02  0.30974493436E+03  0.32601707444E+03  0.81891621890E+02 0.  0.
          5    1    5    5  501    0  0.54645819393E+02 -0.33019121500E+02  0.69495846249E+03  0.69790098334E+03  0.47000000000E+01 0. -1.
        -13    1    6    6    0    0  0.33894645547E+02  0.68604652850E+02  0.28562400521E+03  0.29569666508E+03  0.00000000000E+00 0.  1.
         14    1    6    6    0    0 -0.50462223497E+00 -0.18364459067E+02  0.24120929154E+02  0.30320409359E+02  0.00000000000E+00 0. -1.
         -5    1    3    3    0  503 -0.49045007638E+02 -0.52373036435E+02  0.31919190495E+03  0.32719093799E+03  0.47000000000E+01 0.  1.
         11    1    4    4    0    0 -0.52291210193E+02  0.50988922851E+02  0.10093741876E+03  0.12458974044E+03  0.00000000000E+00 0. -1.
        -12    1    4    4    0    0  0.13300375126E+02 -0.15836958700E+02  0.38854087917E+02  0.44015331274E+02  0.00000000000E+00 0.  1.
<mgrwt>
<rscale>  2 0.19489473E+03</rscale>
<asrwt>0</asrwt>
<pdfrwt beam="1">  1       21 0.22949231E+00 0.19743169E+03</pdfrwt>
<pdfrwt beam="2">  1       21 0.43097903E-02 0.19743169E+03</pdfrwt>
<totfact> 0.30335161E+04</totfact>
</mgrwt>
</event>
<event>
12    1  0.1029207E-001  0.2664111E+03  0.7546771E-02  0.1103360E+00
         21   -1    0    0  501  502  0.00000000000E+00  0.00000000000E+00  0.33305010822E+03  0.33305010822E+03  0.00000000000E+00 0. -1.
         21   -1    0    0  502  503 -0.00000000000E+00 -0.00000000000E+00 -0.29403345418E+03  0.29403345418E+03  0.00000000000E+00 0. -1.
         -6    2    1    2    0  503  0.19057171030E+03  0.69127965917E+02 -0.14503003835E+03  0.30332915939E+03  0.17285431575E+03 0.  0.
        -24    2    3    3    0    0  0.14109512587E+03 -0.83476296842E+01 -0.13319621130E+03  0.21052544296E+03  0.81254008914E+02 0.  0.
          6    2    1    2  501    0 -0.19057171030E+03 -0.69127965917E+02  0.18404669239E+03  0.32375440301E+03  0.17276422098E+03 0.  0.
         24    2    5    5    0    0 -0.52237614322E+02 -0.71115814416E+02  0.45516128613E+02  0.12791497707E+03  0.80649215649E+02 0.  0.
          5    1    5    5  501    0 -0.13833409598E+03  0.19878484996E+01  0.13853056378E+03  0.19583942594E+03  0.47000000000E+01 0. -1.
        -11    1    6    6    0    0 -0.15051055607E+01 -0.47134916394E+02  0.53407127456E+02  0.71248066285E+02  0.00000000000E+00 0.  1.
         12    1    6    6    0    0 -0.50732508761E+02 -0.23980898022E+02 -0.78909988430E+01  0.56666910785E+02  0.00000000000E+00 0. -1.
         -5    1    3    3    0  503  0.49476584431E+02  0.77475595601E+02 -0.11833827055E+02  0.92803716431E+02  0.47000000000E+01 0.  1.
         13    1    4    4    0    0  0.59889744937E+02  0.19679488718E+02 -0.15685306716E+02  0.64962240352E+02  0.00000000000E+00 0. -1.
        -14    1    4    4    0    0  0.81205380931E+02 -0.28027118402E+02 -0.11751090458E+03  0.14556320261E+03  0.00000000000E+00 0.  1.
<mgrwt>
<rscale>  2 0.26639647E+03</rscale>
<asrwt>0</asrwt>
<pdfrwt beam="1">  1       21 0.51238478E-01 0.26641109E+03</pdfrwt>
<pdfrwt beam="2">  1       21 0.45235916E-01 0.26641109E+03</pdfrwt>
<totfact> 0.16300528E+04</totfact>
</mgrwt>
</event>
<event>
12    1  0.1029207E-001  0.1932009E+03  0.7546771E-02  0.1155613E+00
         21   -1    0    0  503  502  0.00000000000E+00  0.00000000000E+00  0.28493472440E+03  0.28493472440E+03  0.00000000000E+00 0.  1.
         21   -1    0    0  501  503 -0.00000000000E+00 -0.00000000000E+00 -0.18482565726E+03  0.18482565726E+03  0.00000000000E+00 0.  1.
          6    2    1    2  501    0 -0.48268499123E+02  0.72250374324E+02 -0.76727684136E+02  0.20784849476E+03  0.17252215702E+03 0.  0.
         24    2    3    3    0    0 -0.77539216186E+02  0.89439547943E+02 -0.92401147467E+02  0.17016573981E+03  0.80041515294E+02 0.  0.
         -6    2    1    2    0  502  0.48268499123E+02 -0.72250374324E+02  0.17683675128E+03  0.26191188690E+03  0.17255907771E+03 0.  0.
        -24    2    5    5    0    0  0.43507901487E+02  0.18185699591E+02  0.47503369549E+02  0.10395442306E+03  0.79538008482E+02 0.  0.
          5    1    3    3  501    0  0.29270717063E+02 -0.17189173620E+02  0.15673463330E+02  0.37682754940E+02  0.47000000000E+01 0. -1.
        -11    1    4    4    0    0  0.75818080052E+01  0.25332513662E+02 -0.47841946805E+02  0.54663259464E+02  0.00000000000E+00 0.  1.
         12    1    4    4    0    0 -0.85121024191E+02  0.64107034281E+02 -0.44559200661E+02  0.11550248035E+03  0.00000000000E+00 0. -1.
         -5    1    5    5    0  502  0.47605976365E+01 -0.90436073915E+02  0.12933338173E+03  0.15795746384E+03  0.47000000000E+01 0.  1.
         11    1    6    6    0    0 -0.19148834211E+02 -0.83072014851E+01 -0.18958889877E+00  0.20873988409E+02  0.00000000000E+00 0. -1.
        -12    1    6    6    0    0  0.62656735698E+02  0.26492901076E+02  0.47692958448E+02  0.83080434648E+02  0.00000000000E+00 0.  1.
<mgrwt>
<rscale>  2 0.19319269E+03</rscale>
<asrwt>0</asrwt>
<pdfrwt beam="1">  1       21 0.43836111E-01 0.19320093E+03</pdfrwt>
<pdfrwt beam="2">  1       21 0.28434717E-01 0.19320093E+03</pdfrwt>
<totfact> 0.59119194E+04</totfact>
</mgrwt>
</event>
<event>
12    1  0.1029207E-001  0.1780245E+03  0.7546771E-02  0.1170352E+00
         21   -1    0    0  503  502  0.00000000000E+00  0.00000000000E+00  0.22903202496E+02  0.22903202496E+02  0.00000000000E+00 0.  1.
         21   -1    0    0  501  503 -0.00000000000E+00 -0.00000000000E+00 -0.14779361995E+04  0.14779361995E+04  0.00000000000E+00 0. -1.
          6    2    1    2  501    0 -0.23117508993E+02  0.15405235684E+02 -0.93085762043E+03  0.94725782236E+03  0.17329088840E+03 0.  0.
         24    2    3    3    0    0 -0.73368866961E+01 -0.44560719642E+02 -0.74532376307E+03  0.75157990827E+03  0.85588311521E+02 0.  0.
         -6    2    1    2    0  502  0.23117508993E+02 -0.15405235684E+02 -0.52417537658E+03  0.55358157964E+03  0.17584367887E+03 0.  0.
        -24    2    5    5    0    0 -0.25075988645E+02 -0.13677412372E+02 -0.48119933411E+03  0.48881562551E+03  0.81068118149E+02 0.  0.
          5    1    3    3  501    0 -0.15780622297E+02  0.59965955326E+02 -0.18553385736E+03  0.19567791409E+03  0.47000000000E+01 0. -1.
        -13    1    4    4    0    0  0.13387820170E+01 -0.72375069975E+01 -0.25070818985E+01  0.77755581455E+01  0.00000000000E+00 0.  1.
         14    1    4    4    0    0 -0.86756687131E+01 -0.37323212644E+02 -0.74281668118E+03  0.74380435012E+03  0.00000000000E+00 0. -1.
         -5    1    5    5    0  502  0.48193497638E+02 -0.17278233127E+01 -0.42976042468E+02  0.64765954128E+02  0.47000000000E+01 0.  1.
         11    1    6    6    0    0  0.16300966725E+02  0.75512203326E+01 -0.33315111853E+03  0.33363514536E+03  0.00000000000E+00 0. -1.
        -12    1    6    6    0    0 -0.41376955370E+02 -0.21228632704E+02 -0.14804821559E+03  0.15518048015E+03  0.00000000000E+00 0.  1.
<mgrwt>
<rscale>  2 0.17739091E+03</rscale>
<asrwt>0</asrwt>
<pdfrwt beam="1">  1       21 0.35235701E-02 0.17802455E+03</pdfrwt>
<pdfrwt beam="2">  1       21 0.22737477E+00 0.17802455E+03</pdfrwt>
<totfact> 0.44418022E+04</totfact>
</mgrwt>
</event>
<event>
12    1  0.1029207E-001  0.2088939E+03  0.7546771E-02  0.1142468E+00
         21   -1    0    0  501  502  0.00000000000E+00  0.00000000000E+00  0.35013303316E+03  0.35013303316E+03  0.00000000000E+00 0. -1.
         21   -1    0    0  502  503 -0.00000000000E+00 -0.00000000000E+00 -0.12766341104E+03  0.12766341104E+03  0.00000000000E+00 0. -1.
         -6    2    1    2    0  503 -0.48681521001E+02  0.10597870739E+03  0.14846241748E+03  0.25618025471E+03  0.17316424744E+03 0.  0.
        -24    2    3    3    0    0 -0.44024707201E+02 -0.91797044613E+01  0.49562626412E+02  0.10423814597E+03  0.79916802487E+02 0.  0.
          6    2    1    2  501    0  0.48681521001E+02 -0.10597870739E+03  0.74007204641E+02  0.22161618949E+03  0.17330693061E+03 0.  0.
         24    2    5    5    0    0 -0.36994851685E+01 -0.59276193708E+01 -0.11494189879E+02  0.79889097916E+02  0.78748515560E+02 0.  0.
          5    1    5    5  501    0  0.52381006170E+02 -0.10005108802E+03  0.85501394520E+02  0.14172709158E+03  0.47000000000E+01 0. -1.
        -11    1    6    6    0    0  0.18914342547E+02  0.26102497339E+02  0.11748403686E+02  0.34309149078E+02  0.00000000000E+00 0.  1.
         12    1    6    6    0    0 -0.22613827716E+02 -0.32030116709E+02 -0.23242593565E+02  0.45579948837E+02  0.00000000000E+00 0. -1.
         -5    1    3    3    0  503 -0.46568137998E+01  0.11515841185E+03  0.98899791072E+02  0.15194210874E+03  0.47000000000E+01 0.  1.
         11    1    4    4    0    0  0.17759220875E+02 -0.20270388820E+02  0.25226859178E+02  0.36914401160E+02  0.00000000000E+00 0. -1.
        -12    1    4    4    0    0 -0.61783928076E+02  0.11090684359E+02  0.24335767233E+02  0.67323744808E+02  0.00000000000E+00 0.  1.
<mgrwt>
<rscale>  2 0.20886432E+03</rscale>
<asrwt>0</asrwt>
<pdfrwt beam="1">  1       21 0.53866620E-01 0.20889392E+03</pdfrwt>
<pdfrwt beam="2">  1       21 0.19640525E-01 0.20889392E+03</pdfrwt>
<totfact> 0.77281032E+04</totfact>
</mgrwt>
</event>
<event>
12    1  0.1029207E-001  0.2218477E+03  0.7546771E-02  0.1133158E+00
         21   -1    0    0  503  502  0.00000000000E+00  0.00000000000E+00  0.43231901703E+03  0.43231901703E+03  0.00000000000E+00 0.  1.
         21   -1    0    0  501  503 -0.00000000000E+00 -0.00000000000E+00 -0.43582387976E+03  0.43582387976E+03  0.00000000000E+00 0.  1.
          6    2    1    2  501    0  0.10608794916E+03  0.82564095792E+02 -0.37587459832E+03  0.43646091400E+03  0.17647927048E+03 0.  0.
         24    2    3    3    0    0  0.10366019837E+03 -0.69450987707E+01 -0.20271133280E+03  0.24145989756E+03  0.80108217807E+02 0.  0.
         -6    2    1    2    0  502 -0.10608794916E+03 -0.82564095792E+02  0.37236973559E+03  0.43168198279E+03  0.17210064327E+03 0.  0.
        -24    2    5    5    0    0 -0.11629694185E+03 -0.22137926691E+02  0.32146998826E+03  0.35187960361E+03  0.80381811419E+02 0.  0.
          5    1    3    3  501    0  0.24277507881E+01  0.89509194563E+02 -0.17316326552E+03  0.19500101643E+03  0.47000000000E+01 0. -1.
        -11    1    4    4    0    0  0.27603442877E+02  0.34459923194E+02 -0.59310379067E+02  0.73940228768E+02  0.00000000000E+00 0.  1.
         12    1    4    4    0    0  0.76056755490E+02 -0.41405021965E+02 -0.14340095374E+03  0.16751966879E+03  0.00000000000E+00 0. -1.
         -5    1    5    5    0  502  0.10208992691E+02 -0.60426169101E+02  0.50899747330E+02  0.79802379177E+02  0.47000000000E+01 0.  1.
         13    1    6    6    0    0 -0.95380618126E+01  0.14990831239E+02  0.11616811247E+03  0.11751906228E+03  0.00000000000E+00 0. -1.
        -14    1    6    6    0    0 -0.10675888003E+03 -0.37128757930E+02  0.20530187579E+03  0.23436054133E+03  0.00000000000E+00 0.  1.
<mgrwt>
<rscale>  2 0.22097584E+03</rscale>
<asrwt>0</asrwt>
<pdfrwt beam="1">  1       21 0.66510618E-01 0.22184773E+03</pdfrwt>
<pdfrwt beam="2">  1       21 0.67049828E-01 0.22184773E+03</pdfrwt>
<totfact> 0.41278718E+03</totfact>
</mgrwt>
</event>
<event>
12    1  0.1029207E-001  0.2086511E+03  0.7546771E-02  0.1144155E+00
         21   -1    0    0  501  502  0.00000000000E+00  0.00000000000E+00  0.56676730790E+03  0.56676730790E+03  0.00000000000E+00 0.  1.
         21   -1    0    0  502  503 -0.00000000000E+00 -0.00000000000E+00 -0.87115637222E+02  0.87115637222E+02  0.00000000000E+00 0. -1.
         -6    2    1    2    0  503  0.93336761439E+02 -0.70353487660E+02  0.11715479483E+03  0.23929172798E+03  0.17284073845E+03 0.  0.
        -24    2    3    3    0    0  0.20019892439E+02 -0.29704817789E+02 -0.70275288395E+01  0.89388368596E+02  0.81594864946E+02 0.  0.
          6    2    1    2  501    0 -0.93336761439E+02  0.70353487660E+02  0.36249687585E+03  0.41459121715E+03  0.16376974101E+03 0.  0.
         24    2    5    5    0    0 -0.56006547077E+02  0.96609620444E+02  0.18685735512E+03  0.23305813295E+03  0.83248243806E+02 0.  0.
          5    1    5    5  501    0 -0.37330214362E+02 -0.26256132784E+02  0.17563952073E+03  0.18153308419E+03  0.47000000000E+01 0. -1.
        -13    1    6    6    0    0 -0.20828143618E+02  0.10162579147E+03  0.14055999329E+03  0.17469609260E+03  0.00000000000E+00 0.  1.
         14    1    6    6    0    0 -0.35178403459E+02 -0.50161710214E+01  0.46297361831E+02  0.58362040353E+02  0.00000000000E+00 0. -1.
         -5    1    3    3    0  503  0.73316869000E+02 -0.40648669871E+02  0.12418232367E+03  0.14990335939E+03  0.47000000000E+01 0.  1.
         13    1    4    4    0    0  0.27504638098E+02 -0.43377429877E+02 -0.31588532256E+02  0.60298772042E+02  0.00000000000E+00 0. -1.
        -14    1    4    4    0    0 -0.74847456592E+01  0.13672612088E+02  0.24561003416E+02  0.29089596555E+02  0.00000000000E+00 0.  1.
<mgrwt>
<rscale>  2 0.20676314E+03</rscale>
<asrwt>0</asrwt>
<pdfrwt beam="1">  1       21 0.87194968E-01 0.20865111E+03</pdfrwt>
<pdfrwt beam="2">  1       21 0.13402406E-01 0.20865111E+03</pdfrwt>
<totfact> 0.53951149E+04</totfact>
</mgrwt>
</event>
<event>
12    1  0.1029207E-001  0.2602956E+03  0.7546771E-02  0.1107030E+00
         21   -1    0    0  503  502  0.00000000000E+00  0.00000000000E+00  0.81014557016E+03  0.81014557016E+03  0.00000000000E+00 0. -1.
         21   -1    0    0  501  503 -0.00000000000E+00 -0.00000000000E+00 -0.86606215152E+02  0.86606215152E+02  0.00000000000E+00 0.  1.
          6    2    1    2  501    0  0.16575775540E+03  0.10100507936E+03  0.27705553965E+03  0.38014942419E+03  0.17342477659E+03 0.  0.
         24    2    3    3    0    0  0.15721864691E+03  0.58965152333E+02  0.13710963162E+03  0.23370073348E+03  0.87306297705E+02 0.  0.
         -6    2    1    2    0  502 -0.16575775540E+03 -0.10100507936E+03  0.44648381537E+03  0.51660236112E+03  0.17277888356E+03 0.  0.
        -24    2    5    5    0    0 -0.46932850837E+02 -0.67713244367E+02  0.31822308118E+03  0.33855570950E+03  0.81032481674E+02 0.  0.
          5    1    3    3  501    0  0.85391084871E+01  0.42039927032E+02  0.13994590803E+03  0.14644869072E+03  0.47000000000E+01 0. -1.
        -13    1    4    4    0    0  0.48705681194E+02 -0.12278253433E+02  0.84539231641E+01  0.50935917630E+02  0.00000000000E+00 0.  1.
         14    1    4    4    0    0  0.10851296572E+03  0.71243405765E+02  0.12865570845E+03  0.18276481585E+03  0.00000000000E+00 0. -1.
         -5    1    5    5    0  502 -0.11882490456E+03 -0.33291834998E+02  0.12826073418E+03  0.17804665162E+03  0.47000000000E+01 0.  1.
         13    1    6    6    0    0  0.13143102822E+02  0.94462999083E+01  0.28511600611E+02  0.32785440414E+02  0.00000000000E+00 0. -1.
        -14    1    6    6    0    0 -0.60075953659E+02 -0.77159544275E+02  0.28971148057E+03  0.30577026909E+03  0.00000000000E+00 0.  1.
<mgrwt>
<rscale>  2 0.26018809E+03</rscale>
<asrwt>0</asrwt>
<pdfrwt beam="1">  1       21 0.12463777E+00 0.26029563E+03</pdfrwt>
<pdfrwt beam="2">  1       21 0.13324034E-01 0.26029563E+03</pdfrwt>
<totfact> 0.22497554E+04</totfact>
</mgrwt>
</event>
<event>
12    1  0.1029207E-001  0.2063702E+03  0.7546771E-02  0.1144516E+00
         21   -1    0    0  503  502  0.00000000000E+00  0.00000000000E+00  0.57018696362E+03  0.57018696362E+03  0.00000000000E+00 0. -1.
         21   -1    0    0  501  503 -0.00000000000E+00 -0.00000000000E+00 -0.77904045531E+02  0.77904045531E+02  0.00000000000E+00 0. -1.
          6    2    1    2  501    0  0.99010039930E+02  0.52073266945E+02  0.17943741226E+03  0.27330978190E+03  0.17316419615E+03 0.  0.
         24    2    3    3    0    0  0.88162163743E+02  0.98793562604E+02  0.11685320818E+03  0.19432032030E+03  0.81073913760E+02 0.  0.
         -6    2    1    2    0  502 -0.99010039930E+02 -0.52073266945E+02  0.31284550584E+03  0.37478122725E+03  0.17341869750E+03 0.  0.
        -24    2    5    5    0    0 -0.34241106203E+02  0.24078926466E+02  0.22395012934E+03  0.24092066809E+03  0.78338112225E+02 0.  0.
          5    1    3    3  501    0  0.10847876187E+02 -0.46720295659E+02  0.62584204072E+02  0.78989461598E+02  0.47000000000E+01 0. -1.
        -13    1    4    4    0    0  0.13354627955E+02  0.24103098951E+02  0.76255710816E+02  0.81081680415E+02  0.00000000000E+00 0.  1.
         14    1    4    4    0    0  0.74807535787E+02  0.74690463653E+02  0.40597497368E+02  0.11323863989E+03  0.00000000000E+00 0. -1.
         -5    1    5    5    0  502 -0.64768933727E+02 -0.76152193411E+02  0.88895376497E+02  0.13386055917E+03  0.47000000000E+01 0.  1.
         11    1    6    6    0    0 -0.29836544190E+02  0.69490249324E+01  0.22084912974E+03  0.22296377828E+03  0.00000000000E+00 0. -1.
        -12    1    6    6    0    0 -0.44045620136E+01  0.17129901534E+02  0.31009995969E+01  0.17956889808E+02  0.00000000000E+00 0.  1.
<mgrwt>
<rscale>  2 0.20631672E+03</rscale>
<asrwt>0</asrwt>
<pdfrwt beam="1">  1       21 0.87721069E-01 0.20637020E+03</pdfrwt>
<pdfrwt beam="2">  1       21 0.11985238E-01 0.20637020E+03</pdfrwt>
<totfact> 0.65131936E+04</totfact>
</mgrwt>
</event>
<event>
12    1  0.1029207E-001  0.2782124E+03  0.7546771E-02  0.1096986E+00
         21   -1    0    0  503  502  0.00000000000E+00  0.00000000000E+00  0.16651887515E+04  0.16651887515E+04  0.00000000000E+00 0.  1.
         21   -1    0    0  501  503 -0.00000000000E+00 -0.00000000000E+00 -0.49506078880E+02  0.49506078880E+02  0.00000000000E+00 0. -1.
          6    2    1    2  501    0 -0.20658585902E+03  0.59749702011E+02  0.10357860975E+04  0.10724994174E+04  0.17650613746E+03 0.  0.
         24    2    3    3    0    0 -0.14616476486E+03  0.10552097423E+03  0.82810245092E+03  0.85136528384E+03  0.81057774554E+02 0.  0.
         -6    2    1    2    0  502  0.20658585902E+03 -0.59749702011E+02  0.57989657508E+03  0.64219541292E+03  0.17287905178E+03 0.  0.
        -24    2    5    5    0    0  0.99775287321E+02 -0.12542013114E+02  0.15877962596E+03  0.20516150239E+03  0.82267018841E+02 0.  0.
          5    1    3    3  501    0 -0.60421094163E+02 -0.45771272216E+02  0.20768364659E+03  0.22113413360E+03  0.47000000000E+01 0. -1.
        -13    1    4    4    0    0 -0.48863910374E+01  0.18463886392E+02  0.22621958497E+03  0.22702443159E+03  0.00000000000E+00 0.  1.
         14    1    4    4    0    0 -0.14127837382E+03  0.87057087834E+02  0.60188286595E+03  0.62434085224E+03  0.00000000000E+00 0. -1.
         -5    1    5    5    0  502  0.10681057170E+03 -0.47207688897E+02  0.42111694912E+03  0.43703391053E+03  0.47000000000E+01 0.  1.
         13    1    6    6    0    0  0.10644395080E+03 -0.22110053539E+02  0.10867956585E+03  0.15372188251E+03  0.00000000000E+00 0. -1.
        -14    1    6    6    0    0 -0.66686634757E+01  0.95680404246E+01  0.50100060116E+02  0.51439619883E+02  0.00000000000E+00 0.  1.
<mgrwt>
<rscale>  2 0.27763895E+03</rscale>
<asrwt>0</asrwt>
<pdfrwt beam="1">  1       21 0.25618284E+00 0.27821244E+03</pdfrwt>
<pdfrwt beam="2">  1       21 0.76163211E-02 0.27821244E+03</pdfrwt>
<totfact> 0.74385449E+03</totfact>
</mgrwt>
</event>
<event>
12    1  0.1029207E-001  0.1932619E+03  0.7546771E-02  0.1155698E+00
         21   -1    0    0  503  502  0.00000000000E+00  0.00000000000E+00  0.45287610456E+03  0.45287610456E+03  0.00000000000E+00 0. -1.
         21   -1    0    0  501  503 -0.00000000000E+00 -0.00000000000E+00 -0.16276984455E+03  0.16276984455E+03  0.00000000000E+00 0. -1.
          6    2    1    2  501    0  0.16678000713E+01 -0.83416908125E+02 -0.71404340338E+02  0.20603095216E+03  0.17432444267E+03 0.  0.
         24    2    3    3    0    0  0.21334446160E+01 -0.21523018657E+02 -0.10630776811E+03  0.13481712171E+03  0.80040757287E+02 0.  0.
         -6    2    1    2    0  502 -0.16678000713E+01  0.83416908125E+02  0.36151060036E+03  0.40961499695E+03  0.17358965820E+03 0.  0.
        -24    2    5    5    0    0  0.78596379380E+00  0.33842332093E+02  0.72972044561E+02  0.11680063984E+03  0.84684998669E+02 0.  0.
          5    1    3    3  501    0 -0.46564454465E+00 -0.61893889468E+02  0.34903427768E+02  0.71213830457E+02  0.47000000000E+01 0. -1.
        -13    1    4    4    0    0 -0.38258202899E+02 -0.27962322613E+01 -0.47409788224E+02  0.60985219713E+02  0.00000000000E+00 0.  1.
         14    1    4    4    0    0  0.40391647515E+02 -0.18726786395E+02 -0.58897979882E+02  0.73831901993E+02  0.00000000000E+00 0. -1.
         -5    1    5    5    0  502 -0.24537638651E+01  0.49574576032E+02  0.28853855579E+03  0.29281435710E+03  0.47000000000E+01 0.  1.
         13    1    6    6    0    0  0.33161108309E+02  0.56398401759E+00  0.36485837489E+01  0.33365990853E+02  0.00000000000E+00 0. -1.
        -14    1    6    6    0    0 -0.32375144515E+02  0.33278348075E+02  0.69323460812E+02  0.83434648989E+02  0.00000000000E+00 0.  1.
<mgrwt>
<rscale>  2 0.19309609E+03</rscale>
<asrwt>0</asrwt>
<pdfrwt beam="1">  1       21 0.69673246E-01 0.19326193E+03</pdfrwt>
<pdfrwt beam="2">  1       21 0.25041515E-01 0.19326193E+03</pdfrwt>
<totfact> 0.28259164E+04</totfact>
</mgrwt>
</event>
<event>
12    1  0.1029207E-001  0.1884495E+03  0.7546771E-02  0.1160197E+00
         21   -1    0    0  503  502  0.00000000000E+00  0.00000000000E+00  0.80509755466E+03  0.80509755466E+03  0.00000000000E+00 0.  1.
         21   -1    0    0  501  503 -0.00000000000E+00 -0.00000000000E+00 -0.45427874133E+02  0.45427874133E+02  0.00000000000E+00 0. -1.
          6    2    1    2  501    0 -0.16035357780E+02 -0.67066976798E+02  0.30008559549E+03  0.35435094160E+03  0.17537991080E+03 0.  0.
         24    2    3    3    0    0 -0.41819419784E+02 -0.79050368986E+02  0.30318092499E+03  0.32536662504E+03  0.77116423030E+02 0.  0.
         -6    2    1    2    0  502  0.16035357780E+02  0.67066976798E+02  0.45958408503E+03  0.49617448719E+03  0.17382887693E+03 0.  0.
        -24    2    5    5    0    0  0.37368356867E+02  0.96449317061E+02  0.42928437457E+03  0.44864995434E+03  0.79390442871E+02 0.  0.
          5    1    3    3  501    0  0.25784062004E+02  0.11983392188E+02 -0.30953294979E+01  0.28984316560E+02  0.47000000000E+01 0. -1.
        -13    1    4    4    0    0  0.21368443999E+02 -0.29383046257E+02  0.11877158679E+03  0.12420412085E+03  0.00000000000E+00 0.  1.
         14    1    4    4    0    0 -0.63187863783E+02 -0.49667322729E+02  0.18440933820E+03  0.20116250419E+03  0.00000000000E+00 0. -1.
         -5    1    5    5    0  502 -0.21332999087E+02 -0.29382340263E+02  0.30299710460E+02  0.47524532858E+02  0.47000000000E+01 0.  1.
         13    1    6    6    0    0  0.11612112663E+02  0.10301971425E+03  0.33310781871E+03  0.34886777090E+03  0.00000000000E+00 0. -1.
        -14    1    6    6    0    0  0.25756244204E+02 -0.65703971907E+01  0.96176555859E+02  0.99782183438E+02  0.00000000000E+00 0.  1.
<mgrwt>
<rscale>  2 0.18808784E+03</rscale>
<asrwt>0</asrwt>
<pdfrwt beam="1">  1       21 0.12386115E+00 0.18844953E+03</pdfrwt>
<pdfrwt beam="2">  1       21 0.69889043E-02 0.18844953E+03</pdfrwt>
<totfact> 0.74177996E+04</totfact>
</mgrwt>
</event>
<event>
12    1  0.1029207E-001  0.1845731E+03  0.7546771E-02  0.1163828E+00
         21   -1    0    0  503  502  0.00000000000E+00  0.00000000000E+00  0.89601589540E+03  0.89601589540E+03  0.00000000000E+00 0. -1.
         21   -1    0    0  501  503 -0.00000000000E+00 -0.00000000000E+00 -0.46014619956E+02  0.46014619956E+02  0.00000000000E+00 0. -1.
          6    2    1    2  501    0 -0.22130054845E+02  0.44317898023E+02  0.22618662901E+03  0.29193769718E+03  0.17780160989E+03 0.  0.
         24    2    3    3    0    0  0.58545005619E+02  0.25706619294E+02  0.11120763250E+03  0.15017343964E+03  0.78080576904E+02 0.  0.
         -6    2    1    2    0  502  0.22130054845E+02 -0.44317898023E+02  0.62381464643E+03  0.65009281817E+03  0.17613104134E+03 0.  0.
        -24    2    5    5    0    0 -0.70239177293E+01  0.44884783171E+02  0.30888387896E+03  0.32144323160E+03  0.76501773078E+02 0.  0.
          5    1    3    3  501    0 -0.80675060464E+02  0.18611278729E+02  0.11497899651E+03  0.14176425754E+03  0.47000000000E+01 0. -1.
        -13    1    4    4    0    0  0.66935555850E+01 -0.26031949884E+02  0.21914847362E+02  0.34680349423E+02  0.00000000000E+00 0.  1.
         14    1    4    4    0    0  0.51851450034E+02  0.51738569178E+02  0.89292785134E+02  0.11549309022E+03  0.00000000000E+00 0. -1.
         -5    1    5    5    0  502  0.29153972574E+02 -0.89202681195E+02  0.31493076748E+03  0.32864958657E+03  0.47000000000E+01 0.  1.
         13    1    6    6    0    0 -0.12603172813E+02  0.23673892923E+02  0.29333458592E+03  0.29455809693E+03  0.00000000000E+00 0. -1.
        -14    1    6    6    0    0  0.55792550836E+01  0.21210890248E+02  0.15549293036E+02  0.26885134671E+02  0.00000000000E+00 0.  1.
<mgrwt>
<rscale>  2 0.18416959E+03</rscale>
<asrwt>0</asrwt>
<pdfrwt beam="1">  1       21 0.13784859E+00 0.18457310E+03</pdfrwt>
<pdfrwt beam="2">  1       21 0.70791729E-02 0.18457310E+03</pdfrwt>
<totfact> 0.55484777E+04</totfact>
</mgrwt>
</event>
<event>
12    1  0.1029207E-001  0.2052261E+03  0.7546771E-02  0.1145420E+00
         21   -1    0    0  503  502  0.00000000000E+00  0.00000000000E+00  0.87578352152E+03  0.87578352152E+03  0.00000000000E+00 0. -1.
         21   -1    0    0  501  503 -0.00000000000E+00 -0.00000000000E+00 -0.90802933390E+02  0.90802933390E+02  0.00000000000E+00 0. -1.
          6    2    1    2  501    0 -0.84867624345E+02  0.75470912810E+02  0.60915129500E+02  0.21399856695E+03  0.17084016305E+03 0.  0.
         24    2    3    3    0    0 -0.67207139257E+02 -0.13347515844E+02  0.66569412655E+02  0.12314336941E+03  0.77703584097E+02 0.  0.
         -6    2    1    2    0  502  0.84867624345E+02 -0.75470912810E+02  0.72406545863E+03  0.75258788796E+03  0.17093673796E+03 0.  0.
        -24    2    5    5    0    0  0.11765134126E+03 -0.77317588766E+02  0.49220268858E+03  0.51836445523E+03  0.81353390604E+02 0.  0.
          5    1    3    3  501    0 -0.17660485088E+02  0.88818428654E+02 -0.56542831556E+01  0.90855197541E+02  0.47000000000E+01 0. -1.
        -11    1    4    4    0    0 -0.67895909911E+02  0.14706566021E+02  0.64838987200E+02  0.95027532473E+02  0.00000000000E+00 0.  1.
         12    1    4    4    0    0  0.68877065429E+00 -0.28054081865E+02  0.17304254556E+01  0.28115836935E+02  0.00000000000E+00 0. -1.
         -5    1    5    5    0  502 -0.32783716919E+02  0.18466759558E+01  0.23186277005E+03  0.23422343273E+03  0.47000000000E+01 0.  1.
         13    1    6    6    0    0  0.23330125773E+02 -0.57325933569E+02  0.13742794038E+03  0.15072158513E+03  0.00000000000E+00 0. -1.
        -14    1    6    6    0    0  0.94321215491E+02 -0.19991655196E+02  0.35477474821E+03  0.36764287010E+03  0.00000000000E+00 0.  1.
<mgrwt>
<rscale>  2 0.20520596E+03</rscale>
<asrwt>0</asrwt>
<pdfrwt beam="1">  1       21 0.13473592E+00 0.20522607E+03</pdfrwt>
<pdfrwt beam="2">  1       21 0.13969683E-01 0.20522607E+03</pdfrwt>
<totfact> 0.17476049E+04</totfact>
</mgrwt>
</event>
<event>
12    1  0.1029207E-001  0.2271288E+03  0.7546771E-02  0.1128800E+00
         21   -1    0    0  501  502  0.00000000000E+00  0.00000000000E+00  0.23780241692E+03  0.23780241692E+03  0.00000000000E+00 0.  1.
         21   -1    0    0  502  503 -0.00000000000E+00 -0.00000000000E+00 -0.41708696407E+03  0.41708696407E+03  0.00000000000E+00 0.  1.
         -6    2    1    2    0  503  0.58476632576E+02 -0.13435059145E+03 -0.31691721356E+03  0.38990256209E+03  0.17354506531E+03 0.  0.
        -24    2    3    3    0    0 -0.19267246147E+02 -0.59567663114E+02 -0.78033378848E+02  0.12774960381E+03  0.79443185961E+02 0.  0.
          6    2    1    2  501    0 -0.58476632576E+02  0.13435059145E+03  0.13763266641E+03  0.26498681891E+03  0.17264317348E+03 0.  0.
         24    2    5    5    0    0 -0.25776113584E+02  0.11742240776E+03  0.16117967832E+03  0.22102730213E+03  0.91770091574E+02 0.  0.
          5    1    5    5  501    0 -0.32700518991E+02  0.16928183689E+02 -0.23547011910E+02  0.43959516776E+02  0.47000000000E+01 0. -1.
        -11    1    6    6    0    0 -0.20503830173E+01  0.37981723002E+02  0.12483785031E+03  0.13050403910E+03  0.00000000000E+00 0.  1.
         12    1    6    6    0    0 -0.23725730567E+02  0.79440684759E+02  0.36341828014E+02  0.90523263028E+02  0.00000000000E+00 0. -1.
         -5    1    3    3    0  503  0.77743878723E+02 -0.74782928335E+02 -0.23888383471E+03  0.26215295828E+03  0.47000000000E+01 0.  1.
         13    1    4    4    0    0  0.37989033467E+01  0.17583932584E+02 -0.41440153012E+01  0.18460747942E+02  0.00000000000E+00 0. -1.
        -14    1    4    4    0    0 -0.23066149494E+02 -0.77151595698E+02 -0.73889363547E+02  0.10928885587E+03  0.00000000000E+00 0.  1.
<mgrwt>
<rscale>  2 0.22695650E+03</rscale>
<asrwt>0</asrwt>
<pdfrwt beam="1">  1       21 0.36584988E-01 0.22712879E+03</pdfrwt>
<pdfrwt beam="2">  1       21 0.64167224E-01 0.22712879E+03</pdfrwt>
<totfact> 0.15818132E+04</totfact>
</mgrwt>
</event>
<event>
12    1  0.1029207E-001  0.1874205E+03  0.7546771E-02  0.1161269E+00
         21   -1    0    0  501  502  0.00000000000E+00  0.00000000000E+00  0.31665703557E+03  0.31665703557E+03  0.00000000000E+00 0. -1.
         21   -1    0    0  502  503 -0.00000000000E+00 -0.00000000000E+00 -0.11993521117E+03  0.11993521117E+03  0.00000000000E+00 0. -1.
         -6    2    1    2    0  503 -0.21362234109E+02  0.67366695855E+02  0.34275327962E+02  0.18856943796E+03  0.17143225504E+03 0.  0.
        -24    2    3    3    0    0 -0.68340043487E+01  0.81760791321E+02 -0.31911023762E+02  0.11913614192E+03  0.80271889607E+02 0.  0.
          6    2    1    2  501    0  0.21362234109E+02 -0.67366695855E+02  0.16244649644E+03  0.24802280878E+03  0.17358523184E+03 0.  0.
         24    2    5    5    0    0  0.26628239808E+02  0.26109989561E+02  0.46962391615E+02  0.99280447635E+02  0.79122350485E+02 0.  0.
          5    1    5    5  501    0 -0.52660056992E+01 -0.93476685416E+02  0.11548410482E+03  0.14874236115E+03  0.47000000000E+01 0. -1.
        -13    1    6    6    0    0 -0.26275176172E+02  0.10961215477E+02  0.25855675921E+01  0.28587030055E+02  0.00000000000E+00 0.  1.
         14    1    6    6    0    0  0.52903415981E+02  0.15148774085E+02  0.44376824023E+02  0.70693417579E+02  0.00000000000E+00 0. -1.
         -5    1    3    3    0  503 -0.14528229760E+02 -0.14394095466E+02  0.66186351724E+02  0.69433296038E+02  0.47000000000E+01 0.  1.
         13    1    4    4    0    0 -0.41950114251E+02  0.43835944937E+02 -0.50427174729E+01  0.60883751147E+02  0.00000000000E+00 0. -1.
        -14    1    4    4    0    0  0.35116109902E+02  0.37924846383E+02 -0.26868306289E+02  0.58252390773E+02  0.00000000000E+00 0.  1.
<mgrwt>
<rscale>  2 0.18692045E+03</rscale>
<asrwt>0</asrwt>
<pdfrwt beam="1">  1       21 0.48716467E-01 0.18742052E+03</pdfrwt>
<pdfrwt beam="2">  1       21 0.18451571E-01 0.18742052E+03</pdfrwt>
<totfact> 0.10807560E+05</totfact>
</mgrwt>
</event>
<event>
12    1  0.1029207E-001  0.1946848E+03  0.7546771E-02  0.1154421E+00
         21   -1    0    0  503  502  0.00000000000E+00  0.00000000000E+00  0.44636930783E+02  0.44636930783E+02  0.00000000000E+00 0.  1.
         21   -1    0    0  501  503 -0.00000000000E+00 -0.00000000000E+00 -0.11235877142E+04  0.11235877142E+04  0.00000000000E+00 0.  1.
          6    2    1    2  501    0  0.77455369423E+02 -0.45856745278E+02 -0.82883916993E+03  0.85127358963E+03  0.17201796256E+03 0.  0.
         24    2    3    3    0    0  0.84744538203E+02 -0.73382949656E+02 -0.43155931541E+03  0.45294684345E+03  0.79691318351E+02 0.  0.
         -6    2    1    2    0  502 -0.77455369423E+02  0.45856745278E+02 -0.25011161348E+03  0.31695105535E+03  0.17262669826E+03 0.  0.
        -24    2    5    5    0    0 -0.85557628280E+01 -0.28399250835E+02 -0.14639319219E+03  0.17189689422E+03  0.85075595772E+02 0.  0.
          5    1    3    3  501    0 -0.72891687806E+01  0.27526204378E+02 -0.39727985452E+03  0.39832674617E+03  0.47000000000E+01 0. -1.
        -13    1    4    4    0    0  0.25694894680E+02 -0.72873674764E+02 -0.27391447707E+03  0.28460488547E+03  0.00000000000E+00 0.  1.
         14    1    4    4    0    0  0.59049643524E+02 -0.50927489252E+00 -0.15764483834E+03  0.16834195798E+03  0.00000000000E+00 0. -1.
         -5    1    5    5    0  502 -0.68899606595E+02  0.74255996113E+02 -0.10371842129E+03  0.14505416113E+03  0.47000000000E+01 0.  1.
         13    1    6    6    0    0 -0.10753661607E+02 -0.18506433929E+02 -0.15628001262E+03  0.15773893520E+03  0.00000000000E+00 0. -1.
        -14    1    6    6    0    0  0.21978987790E+01 -0.98928169058E+01  0.98868204258E+01  0.14157959016E+02  0.00000000000E+00 0.  1.
<mgrwt>
<rscale>  2 0.19454972E+03</rscale>
<asrwt>0</asrwt>
<pdfrwt beam="1">  1       21 0.68672203E-02 0.19468475E+03</pdfrwt>
<pdfrwt beam="2">  1       21 0.17285964E+00 0.19468475E+03</pdfrwt>
<totfact> 0.31819231E+04</totfact>
</mgrwt>
</event>
<event>
12    1  0.1029207E-001  0.1772148E+03  0.7546771E-02  0.1170621E+00
         21   -1    0    0  501  502  0.00000000000E+00  0.00000000000E+00  0.26073940985E+02  0.26073940985E+02  0.00000000000E+00 0. -1.
         21   -1    0    0  502  503 -0.00000000000E+00 -0.00000000000E+00 -0.12505771454E+04  0.12505771454E+04  0.00000000000E+00 0. -1.
         -6    2    1    2    0  503  0.84281389170E+01  0.37930604144E+02 -0.48563820016E+03  0.51683100052E+03  0.17251103554E+03 0.  0.
        -24    2    3    3    0    0 -0.62089999145E+02  0.22249400307E+02 -0.29963223489E+03  0.31723386360E+03  0.80669970997E+02 0.  0.
          6    2    1    2  501    0 -0.84281389170E+01 -0.37930604144E+02 -0.73886500422E+03  0.75982008584E+03  0.17290258564E+03 0.  0.
         24    2    5    5    0    0 -0.13680628387E+02  0.37791871749E+02 -0.26765005626E+03  0.28250771518E+03  0.80985624375E+02 0.  0.
          5    1    5    5  501    0  0.52524894700E+01 -0.75722475893E+02 -0.47121494796E+03  0.47731237066E+03  0.47000000000E+01 0. -1.
        -13    1    6    6    0    0 -0.19856100394E+02  0.55479071075E+02 -0.24971245181E+03  0.25657065428E+03  0.00000000000E+00 0.  1.
         14    1    6    6    0    0  0.61754720071E+01 -0.17687199326E+02 -0.17937604455E+02  0.25937060899E+02  0.00000000000E+00 0. -1.
         -5    1    3    3    0  503  0.70518138062E+02  0.15681203836E+02 -0.18600596527E+03  0.19959713692E+03  0.47000000000E+01 0.  1.
         11    1    4    4    0    0 -0.12506534337E+02  0.15585727962E+02 -0.83019379592E+01  0.21639096356E+02  0.00000000000E+00 0. -1.
        -12    1    4    4    0    0 -0.49583464808E+02  0.66636723455E+01 -0.29133029693E+03  0.29559476724E+03  0.00000000000E+00 0.  1.
<mgrwt>
<rscale>  2 0.17711917E+03</rscale>
<asrwt>0</asrwt>
<pdfrwt beam="1">  1       21 0.40113751E-02 0.17721475E+03</pdfrwt>
<pdfrwt beam="2">  1       21 0.19239651E+00 0.17721475E+03</pdfrwt>
<totfact> 0.59231430E+04</totfact>
</mgrwt>
</event>
<event>
12    1  0.1029207E-001  0.2159534E+03  0.7546771E-02  0.1137212E+00
         21   -1    0    0  503  502  0.00000000000E+00  0.00000000000E+00  0.11176091894E+03  0.11176091894E+03  0.00000000000E+00 0. -1.
         21   -1    0    0  501  503 -0.00000000000E+00 -0.00000000000E+00 -0.48131040266E+03  0.48131040266E+03  0.00000000000E+00 0.  1.
          6    2    1    2  501    0  0.10421412315E+03 -0.73051636202E+02 -0.29577508774E+03  0.36622227587E+03  0.17446698198E+03 0.  0.
         24    2    3    3    0    0  0.99841656057E+02 -0.10058657809E+03 -0.16750156259E+03  0.23486977780E+03  0.83791545388E+02 0.  0.
         -6    2    1    2    0  502 -0.10421412315E+03  0.73051636202E+02 -0.73774395979E+02  0.22684904573E+03  0.17268671932E+03 0.  0.
        -24    2    5    5    0    0 -0.80609147797E+02  0.10914595447E+03 -0.24276197148E+02  0.16102992723E+03  0.83250403174E+02 0.  0.
          5    1    3    3  501    0  0.43724670879E+01  0.27534941892E+02 -0.12827352515E+03  0.13135249807E+03  0.47000000000E+01 0. -1.
        -11    1    4    4    0    0  0.70655087477E+02 -0.14043967889E+02 -0.59536349224E+02  0.93455611386E+02  0.00000000000E+00 0.  1.
         12    1    4    4    0    0  0.29186568580E+02 -0.86542610205E+02 -0.10796521336E+03  0.14141416642E+03  0.00000000000E+00 0. -1.
         -5    1    5    5    0  502 -0.23604975348E+02 -0.36094318270E+02 -0.49498198830E+02  0.65819118499E+02  0.47000000000E+01 0.  1.
         11    1    6    6    0    0 -0.16702804644E+02  0.71920956110E+02  0.17787225768E+02  0.75947304174E+02  0.00000000000E+00 0. -1.
        -12    1    6    6    0    0 -0.63906343153E+02  0.37224998362E+02 -0.42063422916E+02  0.85082623054E+02  0.00000000000E+00 0.  1.
<mgrwt>
<rscale>  2 0.21559354E+03</rscale>
<asrwt>0</asrwt>
<pdfrwt beam="1">  1       21 0.17193988E-01 0.21595336E+03</pdfrwt>
<pdfrwt beam="2">  1       21 0.74047753E-01 0.21595336E+03</pdfrwt>
<totfact> 0.49415029E+04</totfact>
</mgrwt>
</event>
<event>
12    1  0.1029207E-001  0.1960567E+03  0.7546771E-02  0.1157669E+00
         21   -1    0    0  501  502  0.00000000000E+00  0.00000000000E+00  0.13450963689E+04  0.13450963689E+04  0.00000000000E+00 0.  1.
         21   -1    0    0  502  503 -0.00000000000E+00 -0.00000000000E+00 -0.28913720132E+02  0.28913720132E+02  0.00000000000E+00 0.  1.
         -6    2    1    2    0  503  0.41558733284E+02  0.36731161867E+00  0.91638689691E+03  0.93712494498E+03  0.19160102938E+03 0.  0.
        -24    2    3    3    0    0  0.19218769938E+02  0.71593682775E+02  0.38009971219E+03  0.39564705587E+03  0.81029532137E+02 0.  0.
          6    2    1    2  501    0 -0.41558733284E+02 -0.36731161867E+00  0.39979575190E+03  0.43688514409E+03  0.17118622216E+03 0.  0.
         24    2    5    5    0    0 -0.47161305621E+02 -0.49444720524E+02  0.35355556398E+03  0.36906017921E+03  0.80838789725E+02 0.  0.
          5    1    5    5  501    0  0.56025723372E+01  0.49077408905E+02  0.46240187927E+02  0.67824964881E+02  0.47000000000E+01 0. -1.
        -11    1    6    6    0    0 -0.53578956009E+02 -0.36743098660E+01  0.12785924152E+03  0.13868017423E+03  0.00000000000E+00 0.  1.
         12    1    6    6    0    0  0.64176503877E+01 -0.45770410658E+02  0.22569632245E+03  0.23038000499E+03  0.00000000000E+00 0. -1.
         -5    1    3    3    0  503  0.22339963346E+02 -0.71226371156E+02  0.53628718471E+03  0.54147788911E+03  0.47000000000E+01 0.  1.
         11    1    4    4    0    0 -0.20598648355E+02  0.11683781823E+01  0.30598332400E+02  0.36904300120E+02  0.00000000000E+00 0. -1.
        -12    1    4    4    0    0  0.39817418294E+02  0.70425304593E+02  0.34950137979E+03  0.35874275575E+03  0.00000000000E+00 0.  1.
<mgrwt>
<rscale>  2 0.19088087E+03</rscale>
<asrwt>0</asrwt>
<pdfrwt beam="1">  1       21 0.20693785E+00 0.19605667E+03</pdfrwt>
<pdfrwt beam="2">  1       21 0.44482657E-02 0.19605667E+03</pdfrwt>
<totfact> 0.39663755E+04</totfact>
</mgrwt>
</event>
<event>
12    1  0.1029207E-001  0.2556927E+03  0.7546771E-02  0.1109854E+00
         21   -1    0    0  503  502  0.00000000000E+00  0.00000000000E+00  0.34190552980E+03  0.34190552980E+03  0.00000000000E+00 0. -1.
         21   -1    0    0  501  503 -0.00000000000E+00 -0.00000000000E+00 -0.19889061564E+03  0.19889061564E+03  0.00000000000E+00 0.  1.
          6    2    1    2  501    0  0.11378297153E+03  0.14886302662E+03  0.16906707589E+02  0.25625106588E+03  0.17398852461E+03 0.  0.
         24    2    3    3    0    0  0.11150076856E+03  0.17385532438E+03 -0.29341222342E+01  0.22391576124E+03  0.86438208302E+02 0.  0.
         -6    2    1    2    0  502 -0.11378297153E+03 -0.14886302662E+03  0.12610820658E+03  0.28454507956E+03  0.17307760465E+03 0.  0.
        -24    2    5    5    0    0 -0.41700075761E+02 -0.95668330589E+02  0.13755343683E+01  0.13090280327E+03  0.79008392036E+02 0.  0.
          5    1    3    3  501    0  0.22822029765E+01 -0.24992297760E+02  0.19840829823E+02  0.32335304634E+02  0.47000000000E+01 0. -1.
        -11    1    4    4    0    0  0.59239218945E+02  0.34802414751E+02 -0.26245755613E+02  0.73548166676E+02  0.00000000000E+00 0.  1.
         12    1    4    4    0    0  0.52261549613E+02  0.13905290963E+03  0.23311633379E+02  0.15036759457E+03  0.00000000000E+00 0. -1.
         -5    1    5    5    0  502 -0.72082895773E+02 -0.53194696034E+02  0.12473267221E+03  0.15364227630E+03  0.47000000000E+01 0.  1.
         13    1    6    6    0    0 -0.37370247558E+02 -0.30136365565E+02  0.32754074666E+02  0.58116824924E+02  0.00000000000E+00 0. -1.
        -14    1    6    6    0    0 -0.43298282033E+01 -0.65531965023E+02 -0.31378540298E+02  0.72785978343E+02  0.00000000000E+00 0.  1.
<mgrwt>
<rscale>  2 0.25553785E+03</rscale>
<asrwt>0</asrwt>
<pdfrwt beam="1">  1       21 0.52600851E-01 0.25569273E+03</pdfrwt>
<pdfrwt beam="2">  1       21 0.30598556E-01 0.25569273E+03</pdfrwt>
<totfact> 0.34085521E+04</totfact>
</mgrwt>
</event>
<event>
12    1  0.1029207E-001  0.1667898E+03  0.7546771E-02  0.1184839E+00
         21   -1    0    0  501  502  0.00000000000E+00  0.00000000000E+00  0.23342682394E+02  0.23342682394E+02  0.00000000000E+00 0. -1.
         21   -1    0    0  502  503 -0.00000000000E+00 -0.00000000000E+00 -0.11494584454E+04  0.11494584454E+04  0.00000000000E+00 0. -1.
         -6    2    1    2    0  503 -0.11234693589E+02  0.14428523444E+02 -0.66124183459E+03  0.67891184677E+03  0.15279440840E+03 0.  0.
        -24    2    3    3    0    0  0.22969348586E+02  0.44825077915E+00 -0.21287276990E+03  0.22899821873E+03  0.81225464674E+02 0.  0.
          6    2    1    2  501    0  0.11234693589E+02 -0.14428523444E+02 -0.46487392839E+03  0.49388928100E+03  0.16578435380E+03 0.  0.
         24    2    5    5    0    0  0.24068328444E+02  0.84177125717E+01 -0.10928260466E+03  0.13730278071E+03  0.79115255095E+02 0.  0.
          5    1    5    5  501    0 -0.12833634855E+02 -0.22846236016E+02 -0.35559132373E+03  0.35658650030E+03  0.47000000000E+01 0. -1.
        -11    1    6    6    0    0  0.27122563432E+02 -0.32297930499E+02 -0.51886135280E+02  0.66865243557E+02  0.00000000000E+00 0.  1.
         12    1    6    6    0    0 -0.30542349881E+01  0.40715643071E+02 -0.57396469381E+02  0.70437537148E+02  0.00000000000E+00 0. -1.
         -5    1    3    3    0  503 -0.34204042175E+02  0.13980272665E+02 -0.44836906469E+03  0.44991362804E+03  0.47000000000E+01 0.  1.
         11    1    4    4    0    0  0.25052717857E+02  0.22650471387E+02 -0.20083844377E+03  0.20365844697E+03  0.00000000000E+00 0. -1.
        -12    1    4    4    0    0 -0.20833692714E+01 -0.22202220607E+02 -0.12034326136E+02  0.25339771762E+02  0.00000000000E+00 0.  1.
<mgrwt>
<rscale>  2 0.16346551E+03</rscale>
<asrwt>0</asrwt>
<pdfrwt beam="1">  1       21 0.35911822E-02 0.16678985E+03</pdfrwt>
<pdfrwt beam="2">  1       21 0.17683975E+00 0.16678985E+03</pdfrwt>
<totfact> 0.91039710E+04</totfact>
</mgrwt>
</event>
<event>
12    1  0.1029207E-001  0.2465099E+03  0.7546771E-02  0.1115749E+00
         21   -1    0    0  503  502  0.00000000000E+00  0.00000000000E+00  0.24733462695E+03  0.24733462695E+03  0.00000000000E+00 0.  1.
         21   -1    0    0  501  503 -0.00000000000E+00 -0.00000000000E+00 -0.40222827666E+03  0.40222827666E+03  0.00000000000E+00 0.  1.
          6    2    1    2  501    0 -0.13578777068E+03 -0.11149653467E+03 -0.28080132088E+03  0.37275993063E+03  0.17097013823E+03 0.  0.
         24    2    3    3    0    0 -0.12128882961E+03 -0.10348040793E+03 -0.29941330435E+03  0.34740300832E+03  0.74975651759E+02 0.  0.
         -6    2    1    2    0  502  0.13578777068E+03  0.11149653467E+03  0.12590767117E+03  0.27680297299E+03  0.17290849686E+03 0.  0.
        -24    2    5    5    0    0  0.83032438901E+02 -0.41155039187E+01  0.89481835185E+02  0.14452221088E+03  0.77255079616E+02 0.  0.
          5    1    3    3  501    0 -0.14498941070E+02 -0.80161267446E+01  0.18611983472E+02  0.25356922307E+02  0.47000000000E+01 0. -1.
        -13    1    4    4    0    0 -0.85014935952E+02 -0.30800234410E+02 -0.11822787092E+03  0.14884227637E+03  0.00000000000E+00 0.  1.
         14    1    4    4    0    0 -0.36273893657E+02 -0.72680173515E+02 -0.18118543343E+03  0.19856073195E+03  0.00000000000E+00 0. -1.
         -5    1    5    5    0  502  0.52755331778E+02  0.11561203859E+03  0.36425835981E+02  0.13228076211E+03  0.47000000000E+01 0.  1.
         11    1    6    6    0    0  0.65611648677E+02  0.25420514787E+02  0.31353725153E+02  0.77033415446E+02  0.00000000000E+00 0. -1.
        -12    1    6    6    0    0  0.17420790223E+02 -0.29536018706E+02  0.58128110031E+02  0.67488795432E+02  0.00000000000E+00 0.  1.
<mgrwt>
<rscale>  2 0.24617030E+03</rscale>
<asrwt>0</asrwt>
<pdfrwt beam="1">  1       21 0.38051481E-01 0.24650993E+03</pdfrwt>
<pdfrwt beam="2">  1       21 0.61881273E-01 0.24650993E+03</pdfrwt>
<totfact> 0.15654063E+04</totfact>
</mgrwt>
</event>
<event>
12    1  0.1029207E-001  0.3352863E+03  0.7546771E-02  0.1068896E+00
         21   -1    0    0  503  502  0.00000000000E+00  0.00000000000E+00  0.20012560390E+03  0.20012560390E+03  0.00000000000E+00 0.  1.
         21   -1    0    0  501  503 -0.00000000000E+00 -0.00000000000E+00 -0.62588158187E+03  0.62588158187E+03  0.00000000000E+00 0. -1.
          6    2    1    2  501    0 -0.10241696577E+03  0.26841261599E+03 -0.34607816996E+03  0.48138355689E+03  0.17153851410E+03 0.  0.
         24    2    3    3    0    0 -0.79664340774E+02  0.70371105766E+02 -0.11008111558E+03  0.17242592000E+03  0.79462860270E+02 0.  0.
         -6    2    1    2    0  502  0.10241696577E+03 -0.26841261599E+03 -0.79677808004E+02  0.34462362888E+03  0.17286504909E+03 0.  0.
        -24    2    5    5    0    0  0.87670799492E+02 -0.17471070973E+03  0.13318037652E+02  0.21170329949E+03  0.80192990406E+02 0.  0.
          5    1    3    3  501    0 -0.22752624996E+02  0.19804151022E+03 -0.23599705438E+03  0.30895763689E+03  0.47000000000E+01 0. -1.
        -11    1    4    4    0    0 -0.21465060192E+02  0.38227834842E+02 -0.94447252093E+02  0.10412684377E+03  0.00000000000E+00 0.  1.
         12    1    4    4    0    0 -0.58199280582E+02  0.32143270924E+02 -0.15633863486E+02  0.68299076227E+02  0.00000000000E+00 0. -1.
         -5    1    5    5    0  502  0.14746166278E+02 -0.93701906254E+02 -0.92995845656E+02  0.13292032939E+03  0.47000000000E+01 0.  1.
         13    1    6    6    0    0  0.23857576204E+02 -0.14171938204E+01  0.12632220812E+02  0.27032672515E+02  0.00000000000E+00 0. -1.
        -14    1    6    6    0    0  0.63813223288E+02 -0.17329351591E+03  0.68581684073E+00  0.18467062698E+03  0.00000000000E+00 0.  1.
<mgrwt>
<rscale>  2 0.33511565E+03</rscale>
<asrwt>0</asrwt>
<pdfrwt beam="1">  1       21 0.30788555E-01 0.33528628E+03</pdfrwt>
<pdfrwt beam="2">  1       21 0.96289474E-01 0.33528628E+03</pdfrwt>
<totfact> 0.84007706E+03</totfact>
</mgrwt>
</event>
<event>
12    1  0.1029207E-001  0.2066789E+03  0.7546771E-02  0.1145675E+00
         21   -1    0    0  501  502  0.00000000000E+00  0.00000000000E+00  0.18287336838E+03  0.18287336838E+03  0.00000000000E+00 0. -1.
         21   -1    0    0  502  503 -0.00000000000E+00 -0.00000000000E+00 -0.36940150120E+03  0.36940150120E+03  0.00000000000E+00 0. -1.
         -6    2    1    2    0  503 -0.89748459297E+02  0.67079969443E+02 -0.26647449969E+03  0.33723112795E+03  0.17367114449E+03 0.  0.
        -24    2    3    3    0    0 -0.63351032692E+02  0.10035555176E+03 -0.25538848440E+03  0.29308276168E+03  0.81176579828E+02 0.  0.
          6    2    1    2  501    0  0.89748459297E+02 -0.67079969443E+02  0.79946366876E+02  0.21504374162E+03  0.16522070387E+03 0.  0.
         24    2    5    5    0    0  0.95875869195E+01  0.50815213705E+01  0.71257992863E+02  0.10673573610E+03  0.78721484568E+02 0.  0.
          5    1    5    5  501    0  0.80160872378E+02 -0.72161490813E+02  0.86883740131E+01  0.10830800552E+03  0.47000000000E+01 0. -1.
        -13    1    6    6    0    0  0.36257890224E+02  0.25945358078E+02  0.48818594113E+02  0.66113926978E+02  0.00000000000E+00 0.  1.
         14    1    6    6    0    0 -0.26670303304E+02 -0.20863836707E+02  0.22439398750E+02  0.40621809127E+02  0.00000000000E+00 0. -1.
         -5    1    3    3    0  503 -0.26397426605E+02 -0.33275582321E+02 -0.11086015288E+02  0.44148366280E+02  0.47000000000E+01 0.  1.
         11    1    4    4    0    0 -0.83062876027E+02  0.83154902773E+02 -0.21279751913E+03  0.24309867005E+03  0.00000000000E+00 0. -1.
        -12    1    4    4    0    0  0.19711843335E+02  0.17200648991E+02 -0.42590965271E+02  0.49984091630E+02  0.00000000000E+00 0.  1.
<mgrwt>
<rscale>  2 0.20489385E+03</rscale>
<asrwt>0</asrwt>
<pdfrwt beam="1">  1       21 0.28134364E-01 0.20667892E+03</pdfrwt>
<pdfrwt beam="2">  1       21 0.56831000E-01 0.20667892E+03</pdfrwt>
<totfact> 0.34864816E+04</totfact>
</mgrwt>
</event>
<event>
12    1  0.1029207E-001  0.2338773E+03  0.7546771E-02  0.1124502E+00
         21   -1    0    0  501  502  0.00000000000E+00  0.00000000000E+00  0.39337269021E+03  0.39337269021E+03  0.00000000000E+00 0. -1.
         21   -1    0    0  502  503 -0.00000000000E+00 -0.00000000000E+00 -0.34095835577E+03  0.34095835577E+03  0.00000000000E+00 0.  1.
         -6    2    1    2    0  503  0.22221772629E+02 -0.15035638062E+03 -0.25760222416E+03  0.34793320529E+03  0.17775759077E+03 0.  0.
        -24    2    3    3    0    0 -0.90905817675E+01 -0.39456124658E+02 -0.32613064758E+02  0.95106105951E+02  0.79637522226E+02 0.  0.
          6    2    1    2  501    0 -0.22221772629E+02  0.15035638062E+03  0.31001655860E+03  0.38639784069E+03  0.17347096678E+03 0.  0.
         24    2    5    5    0    0 -0.31950957897E+02  0.20581363371E+02  0.19617569577E+03  0.21342950776E+03  0.74985298185E+02 0.  0.
          5    1    5    5  501    0  0.97291852689E+01  0.12977501725E+03  0.11384086283E+03  0.17296833293E+03  0.47000000000E+01 0. -1.
        -11    1    6    6    0    0 -0.54330809327E+02  0.70086073149E+01  0.10318065747E+03  0.11682125447E+03  0.00000000000E+00 0.  1.
         12    1    6    6    0    0  0.22379851429E+02  0.13572756056E+02  0.92995038296E+02  0.96608253294E+02  0.00000000000E+00 0. -1.
         -5    1    3    3    0  503  0.31312354396E+02 -0.11090025596E+03 -0.22498915940E+03  0.25282709934E+03  0.47000000000E+01 0.  1.
         13    1    4    4    0    0  0.33988487765E+02 -0.56209628267E+01 -0.10288396547E+02  0.35953631627E+02  0.00000000000E+00 0. -1.
        -14    1    4    4    0    0 -0.43079069532E+02 -0.33835161831E+02 -0.22324668211E+02  0.59152474324E+02  0.00000000000E+00 0.  1.
<mgrwt>
<rscale>  2 0.23306279E+03</rscale>
<asrwt>0</asrwt>
<pdfrwt beam="1">  1       21 0.60518876E-01 0.23387734E+03</pdfrwt>
<pdfrwt beam="2">  1       21 0.52455132E-01 0.23387734E+03</pdfrwt>
<totfact> 0.85301444E+03</totfact>
</mgrwt>
</event>
<event>
12    1  0.1029207E-001  0.1757408E+03  0.7546771E-02  0.1172494E+00
         21   -1    0    0  503  502  0.00000000000E+00  0.00000000000E+00  0.16514843026E+03  0.16514843026E+03  0.00000000000E+00 0.  1.
         21   -1    0    0  501  503 -0.00000000000E+00 -0.00000000000E+00 -0.26232737936E+03  0.26232737936E+03  0.00000000000E+00 0.  1.
          6    2    1    2  501    0  0.22667036759E+02 -0.14113707842E+02  0.67345471083E+02  0.18820268229E+03  0.17370044860E+03 0.  0.
         24    2    3    3    0    0  0.67469096823E+02 -0.18520190946E+02  0.97225155763E+02  0.13396683404E+03  0.59994209811E+02 0.  0.
         -6    2    1    2    0  502 -0.22667036759E+02  0.14113707842E+02 -0.16452442018E+03  0.23927312733E+03  0.17166931386E+03 0.  0.
        -24    2    5    5    0    0 -0.60190726235E+02 -0.32719801481E+02 -0.13729309756E+03  0.17320467950E+03  0.80355195400E+02 0.  0.
          5    1    3    3  501    0 -0.44802060064E+02  0.44064831039E+01 -0.29879684680E+02  0.54235848254E+02  0.47000000000E+01 0. -1.
        -11    1    4    4    0    0 -0.46896276236E+01  0.10910664028E+02  0.25166131128E+02  0.27827492749E+02  0.00000000000E+00 0.  1.
         12    1    4    4    0    0  0.72158724446E+02 -0.29430854974E+02  0.72059024635E+02  0.10613934129E+03  0.00000000000E+00 0. -1.
         -5    1    5    5    0  502  0.37523689476E+02  0.46833509323E+02 -0.27231322621E+02  0.66068447833E+02  0.47000000000E+01 0.  1.
         11    1    6    6    0    0 -0.65526162806E+02  0.89449590623E+00 -0.11548312602E+03  0.13278113771E+03  0.00000000000E+00 0. -1.
        -12    1    6    6    0    0  0.53354365714E+01 -0.33614297388E+02 -0.21809971542E+02  0.40423541791E+02  0.00000000000E+00 0.  1.
<mgrwt>
<rscale>  2 0.17523684E+03</rscale>
<asrwt>0</asrwt>
<pdfrwt beam="1">  1       21 0.25407451E-01 0.17574082E+03</pdfrwt>
<pdfrwt beam="2">  1       21 0.40358058E-01 0.17574082E+03</pdfrwt>
<totfact> 0.87467994E+04</totfact>
</mgrwt>
</event>
<event>
12    1  0.1029207E-001  0.2206801E+03  0.7546771E-02  0.1133725E+00
         21   -1    0    0  503  502  0.00000000000E+00  0.00000000000E+00  0.10573305883E+04  0.10573305883E+04  0.00000000000E+00 0. -1.
         21   -1    0    0  501  503 -0.00000000000E+00 -0.00000000000E+00 -0.57449018824E+02  0.57449018824E+02  0.00000000000E+00 0. -1.
          6    2    1    2  501    0  0.13020147681E+03  0.44213557509E+02  0.24924313253E+03  0.33289913824E+03  0.17260484901E+03 0.  0.
         24    2    3    3    0    0  0.11921347424E+02 -0.19231018226E+02  0.12179353742E+03  0.14774813908E+03  0.80522644383E+02 0.  0.
         -6    2    1    2    0  502 -0.13020147681E+03 -0.44213557509E+02  0.75063843694E+03  0.78188046887E+03  0.17021087321E+03 0.  0.
        -24    2    5    5    0    0 -0.71792689597E+02 -0.77653818398E+01  0.65558577000E+03  0.66441917556E+03  0.80284790559E+02 0.  0.
          5    1    3    3  501    0  0.11828012939E+03  0.63444575736E+02  0.12744959511E+03  0.18515099916E+03  0.47000000000E+01 0. -1.
        -11    1    4    4    0    0  0.28064946950E+02  0.78299107199E+00  0.11855213597E+03  0.12183129018E+03  0.00000000000E+00 0.  1.
         12    1    4    4    0    0 -0.16143599527E+02 -0.20014009298E+02  0.32414014477E+01  0.25916848906E+02  0.00000000000E+00 0. -1.
         -5    1    5    5    0  502 -0.58408787212E+02 -0.36448175670E+02  0.95052666943E+02  0.11746129331E+03  0.47000000000E+01 0.  1.
         13    1    6    6    0    0 -0.14834646349E+02 -0.39904334413E+02  0.26287623597E+03  0.26630121681E+03  0.00000000000E+00 0. -1.
        -14    1    6    6    0    0 -0.56958043248E+02  0.32138952573E+02  0.39270953403E+03  0.39811795876E+03  0.00000000000E+00 0.  1.
<mgrwt>
<rscale>  2 0.22021175E+03</rscale>
<asrwt>0</asrwt>
<pdfrwt beam="1">  1       21 0.16266623E+00 0.22068008E+03</pdfrwt>
<pdfrwt beam="2">  1       21 0.88383114E-02 0.22068008E+03</pdfrwt>
<totfact> 0.23832176E+04</totfact>
</mgrwt>
</event>
<event>
12    1  0.1029207E-001  0.2580647E+03  0.7546771E-02  0.1108497E+00
         21   -1    0    0  501  502  0.00000000000E+00  0.00000000000E+00  0.34710270256E+03  0.34710270256E+03  0.00000000000E+00 0. -1.
         21   -1    0    0  502  503 -0.00000000000E+00 -0.00000000000E+00 -0.13434382771E+04  0.13434382771E+04  0.00000000000E+00 0. -1.
         -6    2    1    2    0  503 -0.11619624565E+03 -0.15063789226E+03 -0.12812291738E+04  0.13069604324E+04  0.17436752544E+03 0.  0.
        -24    2    3    3    0    0 -0.15190973820E+03 -0.11476568475E+03 -0.99321278228E+03  0.10144919715E+04  0.80464889317E+02 0.  0.
          6    2    1    2  501    0  0.11619624565E+03  0.15063789226E+03  0.28489359927E+03  0.38358054727E+03  0.17255819671E+03 0.  0.
         24    2    5    5    0    0  0.51796072804E+02  0.16302936379E+03  0.18695206682E+03  0.26561629587E+03  0.79621195218E+02 0.  0.
          5    1    5    5  501    0  0.64400172844E+02 -0.12391471536E+02  0.97941532447E+02  0.11796425140E+03  0.47000000000E+01 0. -1.
        -11    1    6    6    0    0 -0.10097448521E+01  0.10763905857E+03  0.80053381591E+02  0.13414816591E+03  0.00000000000E+00 0.  1.
         12    1    6    6    0    0  0.52805817656E+02  0.55390305229E+02  0.10689868523E+03  0.13146812996E+03  0.00000000000E+00 0. -1.
         -5    1    3    3    0  503  0.35713492552E+02 -0.35872207508E+02 -0.28801639157E+03  0.29246846092E+03  0.47000000000E+01 0.  1.
         11    1    4    4    0    0 -0.70825808906E+02 -0.72173094609E+02 -0.70116357351E+03  0.70841767878E+03  0.00000000000E+00 0. -1.
        -12    1    4    4    0    0 -0.81083929294E+02 -0.42592590141E+02 -0.29204920877E+03  0.30607429273E+03  0.00000000000E+00 0.  1.
<mgrwt>
<rscale>  2 0.25775937E+03</rscale>
<asrwt>0</asrwt>
<pdfrwt beam="1">  1       21 0.53400416E-01 0.25806467E+03</pdfrwt>
<pdfrwt beam="2">  1       21 0.20668281E+00 0.25806467E+03</pdfrwt>
<totfact> 0.37611262E+02</totfact>
</mgrwt>
</event>
<event>
12    1  0.1029207E-001  0.2378189E+03  0.7546771E-02  0.1121353E+00
         21   -1    0    0  503  502  0.00000000000E+00  0.00000000000E+00  0.11904724983E+03  0.11904724983E+03  0.00000000000E+00 0. -1.
         21   -1    0    0  501  503 -0.00000000000E+00 -0.00000000000E+00 -0.50294250338E+03  0.50294250338E+03  0.00000000000E+00 0.  1.
          6    2    1    2  501    0 -0.54216226559E+02 -0.15309156594E+03 -0.26686765047E+03  0.35745790877E+03  0.17372791051E+03 0.  0.
         24    2    3    3    0    0 -0.19635766692E+02 -0.73572358922E+02 -0.44609152307E+02  0.11883678126E+03  0.79584852699E+02 0.  0.
         -6    2    1    2    0  502  0.54216226559E+02  0.15309156594E+03 -0.11702760308E+03  0.26453184444E+03  0.17293122927E+03 0.  0.
        -24    2    5    5    0    0  0.96715734765E+02  0.69698016949E+02 -0.53426406134E+02  0.15127154926E+03  0.76268957156E+02 0.  0.
          5    1    3    3  501    0 -0.34580459867E+02 -0.79519207020E+02 -0.22225849816E+03  0.23862112751E+03  0.47000000000E+01 0. -1.
        -13    1    4    4    0    0 -0.28155004379E+02 -0.52817725173E+02 -0.65113669771E+02  0.88443238041E+02  0.00000000000E+00 0.  1.
         14    1    4    4    0    0  0.85192376872E+01 -0.20754633750E+02  0.20504517464E+02  0.30393543217E+02  0.00000000000E+00 0. -1.
         -5    1    5    5    0  502 -0.42499508206E+02  0.83393548993E+02 -0.63601196944E+02  0.11326029518E+03  0.47000000000E+01 0.  1.
         11    1    6    6    0    0  0.59914407262E+02  0.17958341919E+02 -0.60951319551E+02  0.87334423895E+02  0.00000000000E+00 0. -1.
        -12    1    6    6    0    0  0.36801327503E+02  0.51739675029E+02  0.75249134171E+01  0.63937125366E+02  0.00000000000E+00 0.  1.
<mgrwt>
<rscale>  2 0.23767339E+03</rscale>
<asrwt>0</asrwt>
<pdfrwt beam="1">  1       21 0.18314962E-01 0.23781887E+03</pdfrwt>
<pdfrwt beam="2">  1       21 0.77375768E-01 0.23781887E+03</pdfrwt>
<totfact> 0.39426557E+04</totfact>
</mgrwt>
</event>
<event>
12    1  0.1029207E-001  0.2227699E+03  0.7546771E-02  0.1131850E+00
         21   -1    0    0  501  502  0.00000000000E+00  0.00000000000E+00  0.10590527879E+03  0.10590527879E+03  0.00000000000E+00 0.  1.
         21   -1    0    0  502  503 -0.00000000000E+00 -0.00000000000E+00 -0.59050400840E+03  0.59050400840E+03  0.00000000000E+00 0.  1.
         -6    2    1    2    0  503  0.48613056666E+01  0.14035920158E+03 -0.40066186216E+03  0.45842815027E+03  0.17292224671E+03 0.  0.
        -24    2    3    3    0    0  0.16117557003E+02  0.27133213214E+01 -0.18572177712E+03  0.20290041850E+03  0.80055378165E+02 0.  0.
          6    2    1    2  501    0 -0.48613056666E+01 -0.14035920158E+03 -0.83936867458E+02  0.23798113693E+03  0.17281575754E+03 0.  0.
         24    2    5    5    0    0  0.38084804403E+02 -0.87469926978E+02 -0.10958301598E+03  0.16503280814E+03  0.78268447800E+02 0.  0.
          5    1    5    5  501    0 -0.42946110069E+02 -0.52889274606E+02  0.25646148522E+02  0.72948328785E+02  0.47000000000E+01 0. -1.
        -13    1    6    6    0    0  0.43419317957E+02 -0.85230042901E+02 -0.55391513379E+02  0.11053333044E+03  0.00000000000E+00 0.  1.
         14    1    6    6    0    0 -0.53345135537E+01 -0.22398840775E+01 -0.54191502600E+02  0.54499477700E+02  0.00000000000E+00 0. -1.
         -5    1    3    3    0  503 -0.11256251336E+02  0.13764588026E+03 -0.21494008503E+03  0.25552773177E+03  0.47000000000E+01 0.  1.
         11    1    4    4    0    0  0.27572628135E+02  0.66938364578E+01 -0.18836397188E+03  0.19048895813E+03  0.00000000000E+00 0. -1.
        -12    1    4    4    0    0 -0.11455071132E+02 -0.39805151364E+01  0.26421947524E+01  0.12411460369E+02  0.00000000000E+00 0.  1.
<mgrwt>
<rscale>  2 0.22274926E+03</rscale>
<asrwt>0</asrwt>
<pdfrwt beam="1">  1       21 0.16293120E-01 0.22276993E+03</pdfrwt>
<pdfrwt beam="2">  1       21 0.90846769E-01 0.22276993E+03</pdfrwt>
<totfact> 0.34122000E+04</totfact>
</mgrwt>
</event>
<event>
12    1  0.1029207E-001  0.2273226E+03  0.7546771E-02  0.1128811E+00
         21   -1    0    0  501  502  0.00000000000E+00  0.00000000000E+00  0.63277162162E+03  0.63277162162E+03  0.00000000000E+00 0. -1.
         21   -1    0    0  502  503 -0.00000000000E+00 -0.00000000000E+00 -0.85450401270E+02  0.85450401270E+02  0.00000000000E+00 0.  1.
         -6    2    1    2    0  503  0.14013672615E+03  0.44122798968E+02  0.19370099390E+03  0.29865636557E+03  0.17346592245E+03 0.  0.
        -24    2    3    3    0    0  0.11549255733E+03  0.95353928339E+02  0.14382616252E+03  0.22288333291E+03  0.80994522120E+02 0.  0.
          6    2    1    2  501    0 -0.14013672615E+03 -0.44122798968E+02  0.35362022644E+03  0.41956565732E+03  0.17147289245E+03 0.  0.
         24    2    5    5    0    0 -0.68512405959E+02  0.36810158167E+02  0.16132764466E+03  0.19893312616E+03  0.86595855788E+02 0.  0.
          5    1    5    5  501    0 -0.71624320193E+02 -0.80932957135E+02  0.19229258178E+03  0.22063253115E+03  0.47000000000E+01 0. -1.
        -13    1    6    6    0    0 -0.36655237352E+02  0.35621208926E+02  0.21385732203E+02  0.55406014949E+02  0.00000000000E+00 0.  1.
         14    1    6    6    0    0 -0.31857168607E+02  0.11889492407E+01  0.13994191246E+03  0.14352711121E+03  0.00000000000E+00 0. -1.
         -5    1    3    3    0  503  0.24644168819E+02 -0.51231129371E+02  0.49874831379E+02  0.75773032660E+02  0.47000000000E+01 0.  1.
         13    1    4    4    0    0  0.12179521548E+03  0.65186118178E+02  0.12758875207E+03  0.18804838253E+03  0.00000000000E+00 0. -1.
        -14    1    4    4    0    0 -0.63026581491E+01  0.30167810161E+02  0.16237410454E+02  0.34834950380E+02  0.00000000000E+00 0.  1.
<mgrwt>
<rscale>  2 0.22694232E+03</rscale>
<asrwt>0</asrwt>
<pdfrwt beam="1">  1       21 0.97349477E-01 0.22732257E+03</pdfrwt>
<pdfrwt beam="2">  1       21 0.13146216E-01 0.22732257E+03</pdfrwt>
<totfact> 0.42817532E+04</totfact>
</mgrwt>
</event>
<event>
12    1  0.1029207E-001  0.2058782E+03  0.7546771E-02  0.1145273E+00
         21   -1    0    0  503  502  0.00000000000E+00  0.00000000000E+00  0.51176563910E+03  0.51176563910E+03  0.00000000000E+00 0. -1.
         21   -1    0    0  501  503 -0.00000000000E+00 -0.00000000000E+00 -0.12121784962E+03  0.12121784962E+03  0.00000000000E+00 0.  1.
          6    2    1    2  501    0 -0.95496054374E+02 -0.50837214523E+02  0.15969168806E+02  0.20649662290E+03  0.17516255917E+03 0.  0.
         24    2    3    3    0    0 -0.12007144791E+03 -0.15561549788E+02  0.47515958459E+02  0.15296520757E+03  0.80506359894E+02 0.  0.
         -6    2    1    2    0  502  0.95496054374E+02  0.50837214523E+02  0.37457862068E+03  0.42648686582E+03  0.17285249453E+03 0.  0.
        -24    2    5    5    0    0 -0.14112438445E+02 -0.11451564602E+02  0.14454779683E+03  0.16413179416E+03  0.75596832184E+02 0.  0.
          5    1    3    3  501    0  0.24575393538E+02 -0.35275664735E+02 -0.31546789653E+02  0.53531415332E+02  0.47000000000E+01 0. -1.
        -11    1    4    4    0    0 -0.72272685614E+02 -0.43228514294E+02  0.70702287884E+01  0.84510553596E+02  0.00000000000E+00 0.  1.
         12    1    4    4    0    0 -0.47798762297E+02  0.27666964507E+02  0.40445729671E+02  0.68454653974E+02  0.00000000000E+00 0. -1.
         -5    1    5    5    0  502  0.10960849282E+03  0.62288779125E+02  0.23003082384E+03  0.26235507165E+03  0.47000000000E+01 0.  1.
         13    1    6    6    0    0 -0.26711187284E+01  0.28555609361E+02  0.95994251906E+02  0.10018709548E+03  0.00000000000E+00 0. -1.
        -14    1    6    6    0    0 -0.11441319717E+02 -0.40007173963E+02  0.48553544925E+02  0.63944698687E+02  0.00000000000E+00 0.  1.
<mgrwt>
<rscale>  2 0.20538600E+03</rscale>
<asrwt>0</asrwt>
<pdfrwt beam="1">  1       21 0.78733174E-01 0.20587822E+03</pdfrwt>
<pdfrwt beam="2">  1       21 0.18648900E-01 0.20587822E+03</pdfrwt>
<totfact> 0.37226348E+04</totfact>
</mgrwt>
</event>
<event>
12    1  0.1029207E-001  0.2664799E+03  0.7546771E-02  0.1103401E+00
         21   -1    0    0  503  502  0.00000000000E+00  0.00000000000E+00  0.53702168945E+02  0.53702168945E+02  0.00000000000E+00 0. -1.
         21   -1    0    0  501  503 -0.00000000000E+00 -0.00000000000E+00 -0.13780605150E+04  0.13780605150E+04  0.00000000000E+00 0. -1.
          6    2    1    2  501    0 -0.60590640813E+02 -0.19232317637E+03 -0.81080016044E+03  0.85346846970E+03  0.17421853710E+03 0.  0.
         24    2    3    3    0    0  0.26819508473E+02 -0.13902989323E+03 -0.46207412413E+03  0.48999543545E+03  0.80835841807E+02 0.  0.
         -6    2    1    2    0  502  0.60590640813E+02  0.19232317637E+03 -0.51355818563E+03  0.57829421426E+03  0.17327076587E+03 0.  0.
        -24    2    5    5    0    0 -0.26031602220E+02  0.31379897650E+02 -0.22323951071E+03  0.23520067752E+03  0.61815348185E+02 0.  0.
          5    1    3    3  501    0 -0.87410149286E+02 -0.53293283142E+02 -0.34872603631E+03  0.36347303425E+03  0.47000000000E+01 0. -1.
        -11    1    4    4    0    0  0.29500985977E+02 -0.42167482870E+02 -0.74872978232E+02  0.90853550589E+02  0.00000000000E+00 0.  1.
         12    1    4    4    0    0 -0.26814775034E+01 -0.96862410355E+02 -0.38720114590E+03  0.39914188486E+03  0.00000000000E+00 0. -1.
         -5    1    5    5    0  502  0.86622243033E+02  0.16094327872E+03 -0.29031867491E+03  0.34309353674E+03  0.47000000000E+01 0.  1.
         13    1    6    6    0    0 -0.44189156542E+01  0.42739926836E+02 -0.89856254037E+02  0.99601077058E+02  0.00000000000E+00 0. -1.
        -14    1    6    6    0    0 -0.21612686566E+02 -0.11360029186E+02 -0.13338325668E+03  0.13559960046E+03  0.00000000000E+00 0.  1.
<mgrwt>
<rscale>  2 0.26632508E+03</rscale>
<asrwt>0</asrwt>
<pdfrwt beam="1">  1       21 0.82618728E-02 0.26647988E+03</pdfrwt>
<pdfrwt beam="2">  1       21 0.21200929E+00 0.26647988E+03</pdfrwt>
<totfact> 0.12116818E+04</totfact>
</mgrwt>
</event>
<event>
12    1  0.1029207E-001  0.1779199E+03  0.7546771E-02  0.1170555E+00
         21   -1    0    0  503  502  0.00000000000E+00  0.00000000000E+00  0.49497602929E+03  0.49497602929E+03  0.00000000000E+00 0. -1.
         21   -1    0    0  501  503 -0.00000000000E+00 -0.00000000000E+00 -0.63428070648E+02  0.63428070648E+02  0.00000000000E+00 0. -1.
          6    2    1    2  501    0 -0.10718510440E+02 -0.25651104822E+02  0.24281876399E+03  0.30102565418E+03  0.17573453468E+03 0.  0.
         24    2    3    3    0    0  0.48627944279E+02  0.25388536729E+02  0.15252052345E+03  0.18143088447E+03  0.81519329007E+02 0.  0.
         -6    2    1    2    0  502  0.10718510440E+02  0.25651104822E+02  0.18872919464E+03  0.25737844576E+03  0.17277757315E+03 0.  0.
        -24    2    5    5    0    0  0.35544077936E+02  0.58389880577E+02  0.19105060429E+03  0.21595846046E+03  0.73925392215E+02 0.  0.
          5    1    3    3  501    0 -0.59346454718E+02 -0.51039641551E+02  0.90298240541E+02  0.11959476971E+03  0.47000000000E+01 0. -1.
        -13    1    4    4    0    0  0.25087498807E+02  0.21357908041E+02  0.15401637453E+03  0.15750106811E+03  0.00000000000E+00 0.  1.
         14    1    4    4    0    0  0.23540445472E+02  0.40306286888E+01 -0.14958510726E+01  0.23929816361E+02  0.00000000000E+00 0. -1.
         -5    1    5    5    0  502 -0.24825567496E+02 -0.32738775755E+02 -0.23214096448E+01  0.41419985299E+02  0.47000000000E+01 0.  1.
         11    1    6    6    0    0  0.28243670294E+02  0.88995626510E+01  0.15509554701E+02  0.33428332505E+02  0.00000000000E+00 0. -1.
        -12    1    6    6    0    0  0.73004076424E+01  0.49490317926E+02  0.17554104959E+03  0.18253012795E+03  0.00000000000E+00 0.  1.
<mgrwt>
<rscale>  2 0.17718536E+03</rscale>
<asrwt>0</asrwt>
<pdfrwt beam="1">  1       21 0.76150156E-01 0.17791990E+03</pdfrwt>
<pdfrwt beam="2">  1       21 0.97581650E-02 0.17791990E+03</pdfrwt>
<totfact> 0.13089418E+05</totfact>
</mgrwt>
</event>
<event>
12    1  0.1029207E-001  0.1810993E+03  0.7546771E-02  0.1166798E+00
         21   -1    0    0  501  502  0.00000000000E+00  0.00000000000E+00  0.24166842735E+02  0.24166842735E+02  0.00000000000E+00 0. -1.
         21   -1    0    0  502  503 -0.00000000000E+00 -0.00000000000E+00 -0.13554378913E+04  0.13554378913E+04  0.00000000000E+00 0.  1.
         -6    2    1    2    0  503 -0.51962543435E+02  0.85679875359E+01 -0.67027013244E+03  0.69430470483E+03  0.17327278025E+03 0.  0.
        -24    2    3    3    0    0  0.22896421972E+02 -0.37427301731E+02 -0.19703052218E+03  0.21295529945E+03  0.67851925842E+02 0.  0.
          6    2    1    2  501    0  0.51962543435E+02 -0.85679875359E+01 -0.66100091613E+03  0.68530002921E+03  0.17303295230E+03 0.  0.
         24    2    5    5    0    0  0.31164978320E+01  0.13494879853E+02 -0.59241378523E+03  0.59812783861E+03  0.81308019611E+02 0.  0.
          5    1    5    5  501    0  0.48846045603E+02 -0.22062867389E+02 -0.68587130896E+02  0.87172190595E+02  0.47000000000E+01 0. -1.
        -11    1    6    6    0    0  0.58029367093E+01  0.14190884888E+02 -0.59447393273E+03  0.59467160011E+03  0.00000000000E+00 0.  1.
         12    1    6    6    0    0 -0.26864388773E+01 -0.69600503511E+00  0.20601474985E+01  0.34562384996E+01  0.00000000000E+00 0. -1.
         -5    1    3    3    0  503 -0.74858965407E+02  0.45995289267E+02 -0.47323961026E+03  0.48134940538E+03  0.47000000000E+01 0.  1.
         11    1    4    4    0    0 -0.17193114337E+01 -0.14685890736E+02 -0.18301573511E+01  0.14899023272E+02  0.00000000000E+00 0. -1.
        -12    1    4    4    0    0  0.24615733406E+02 -0.22741410995E+02 -0.19520036483E+03  0.19805627618E+03  0.00000000000E+00 0.  1.
<mgrwt>
<rscale>  2 0.18104196E+03</rscale>
<asrwt>0</asrwt>
<pdfrwt beam="1">  1       21 0.37179763E-02 0.18109934E+03</pdfrwt>
<pdfrwt beam="2">  1       21 0.20852888E+00 0.18109934E+03</pdfrwt>
<totfact> 0.52901670E+04</totfact>
</mgrwt>
</event>
<event>
12    1  0.1029207E-001  0.1852378E+03  0.7546771E-02  0.1164460E+00
         21   -1    0    0  503  502  0.00000000000E+00  0.00000000000E+00  0.17377477347E+03  0.17377477347E+03  0.00000000000E+00 0.  1.
         21   -1    0    0  501  503 -0.00000000000E+00 -0.00000000000E+00 -0.22259969294E+03  0.22259969294E+03  0.00000000000E+00 0.  1.
          6    2    1    2  501    0  0.32936482222E+01 -0.59356300160E+02 -0.10039230372E+03  0.21069328136E+03  0.17543952142E+03 0.  0.
         24    2    3    3    0    0  0.30651695286E+02  0.16187140521E+01  0.12657582186E+02  0.79282544352E+02  0.71995560925E+02 0.  0.
         -6    2    1    2    0  502 -0.32936482222E+01  0.59356300160E+02  0.51567384247E+02  0.18568118505E+03  0.16817933546E+03 0.  0.
        -24    2    5    5    0    0  0.31231743703E+02 -0.12821193696E+02  0.58609594122E+02  0.10522451332E+03  0.80605885994E+02 0.  0.
          5    1    3    3  501    0 -0.27358047064E+02 -0.60975014212E+02 -0.11304988590E+03  0.13141073701E+03  0.47000000000E+01 0. -1.
        -13    1    4    4    0    0  0.30932275913E+02 -0.29377895655E+02 -0.60351237006E+01  0.43084674356E+02  0.00000000000E+00 0.  1.
         14    1    4    4    0    0 -0.28058062692E+00  0.30996609707E+02  0.18692705887E+02  0.36197869995E+02  0.00000000000E+00 0. -1.
         -5    1    5    5    0  502 -0.34525391925E+02  0.72177493856E+02 -0.70422098749E+01  0.80456671736E+02  0.47000000000E+01 0.  1.
         11    1    6    6    0    0  0.54193732674E+02  0.73307665888E+01  0.26045600317E+02  0.60572882512E+02  0.00000000000E+00 0. -1.
        -12    1    6    6    0    0 -0.22961988972E+02 -0.20151960285E+02  0.32563993805E+02  0.44651630803E+02  0.00000000000E+00 0.  1.
<mgrwt>
<rscale>  2 0.18349822E+03</rscale>
<asrwt>0</asrwt>
<pdfrwt beam="1">  1       21 0.26734580E-01 0.18523780E+03</pdfrwt>
<pdfrwt beam="2">  1       21 0.34246107E-01 0.18523780E+03</pdfrwt>
<totfact> 0.10973748E+05</totfact>
</mgrwt>
</event>
<event>
12    1  0.1029207E-001  0.2156554E+03  0.7546771E-02  0.1137450E+00
         21   -1    0    0  503  502  0.00000000000E+00  0.00000000000E+00  0.22304902374E+03  0.22304902374E+03  0.00000000000E+00 0.  1.
         21   -1    0    0  501  503 -0.00000000000E+00 -0.00000000000E+00 -0.34873286734E+03  0.34873286734E+03  0.00000000000E+00 0. -1.
          6    2    1    2  501    0  0.13415658158E+02 -0.12599734078E+03 -0.24492644020E+03  0.32535529034E+03  0.17266092226E+03 0.  0.
         24    2    3    3    0    0 -0.30978637593E+02 -0.11891531808E+03 -0.23821368392E+03  0.27965890495E+03  0.79767255500E+02 0.  0.
         -6    2    1    2    0  502 -0.13415658158E+02  0.12599734078E+03  0.11924259660E+03  0.24642660073E+03  0.17450490806E+03 0.  0.
        -24    2    5    5    0    0  0.51734241008E+02  0.97364600139E+02  0.10802356241E+03  0.17423034095E+03  0.80813517559E+02 0.  0.
          5    1    3    3  501    0  0.44394295752E+02 -0.70820226984E+01 -0.67127562786E+01  0.45696385389E+02  0.47000000000E+01 0. -1.
        -11    1    4    4    0    0 -0.58045581468E+02 -0.79265996111E+02 -0.15221132127E+03  0.18116477028E+03  0.00000000000E+00 0.  1.
         12    1    4    4    0    0  0.27066943874E+02 -0.39649321971E+02 -0.86002362651E+02  0.98494134673E+02  0.00000000000E+00 0. -1.
         -5    1    5    5    0  502 -0.65149899166E+02  0.28632740641E+02  0.11219034191E+02  0.72196259780E+02  0.47000000000E+01 0.  1.
         11    1    6    6    0    0 -0.15428973052E+02  0.52812188343E+02  0.33228615349E+02  0.64275355503E+02  0.00000000000E+00 0. -1.
        -12    1    6    6    0    0  0.67163214060E+02  0.44552411796E+02  0.74794947063E+02  0.10995498545E+03  0.00000000000E+00 0.  1.
<mgrwt>
<rscale>  2 0.21528214E+03</rscale>
<asrwt>0</asrwt>
<pdfrwt beam="1">  1       21 0.34315234E-01 0.21565545E+03</pdfrwt>
<pdfrwt beam="2">  1       21 0.53651210E-01 0.21565545E+03</pdfrwt>
<totfact> 0.26559891E+04</totfact>
</mgrwt>
</event>
<event>
12    1  0.1029207E-001  0.2216918E+03  0.7546771E-02  0.1133225E+00
         21   -1    0    0  503  502  0.00000000000E+00  0.00000000000E+00  0.11679002990E+03  0.11679002990E+03  0.00000000000E+00 0. -1.
         21   -1    0    0  501  503 -0.00000000000E+00 -0.00000000000E+00 -0.43404056368E+03  0.43404056368E+03  0.00000000000E+00 0. -1.
          6    2    1    2  501    0 -0.98551516694E+02  0.89841252936E+02 -0.99445536980E+02  0.24004724811E+03  0.17305899089E+03 0.  0.
         24    2    3    3    0    0 -0.51898272725E+01  0.60796683807E+01 -0.78942686294E+02  0.11286680549E+03  0.80268744767E+02 0.  0.
         -6    2    1    2    0  502  0.98551516694E+02 -0.89841252936E+02 -0.21780499679E+03  0.31078334548E+03  0.17709720220E+03 0.  0.
        -24    2    5    5    0    0  0.23253776275E+02 -0.72211325209E+02 -0.18929499876E+03  0.22822746106E+03  0.10246933116E+03 0.  0.
          5    1    3    3  501    0 -0.93361689421E+02  0.83761584555E+02 -0.20502850685E+02  0.12718044262E+03  0.47000000000E+01 0. -1.
        -13    1    4    4    0    0  0.31404854925E+02 -0.90274755045E+01 -0.11459807788E+02  0.34627841708E+02  0.00000000000E+00 0.  1.
         14    1    4    4    0    0 -0.36594682197E+02  0.15107143885E+02 -0.67482878506E+02  0.78238963778E+02  0.00000000000E+00 0. -1.
         -5    1    5    5    0  502  0.75297740418E+02 -0.17629927727E+02 -0.28509998037E+02  0.82555884417E+02  0.47000000000E+01 0.  1.
         13    1    6    6    0    0  0.49528116715E+02 -0.81740719878E+02 -0.16724404240E+03  0.19262696943E+03  0.00000000000E+00 0. -1.
        -14    1    6    6    0    0 -0.26274340440E+02  0.95293946693E+01 -0.22050956355E+02  0.35600491633E+02  0.00000000000E+00 0.  1.
<mgrwt>
<rscale>  2 0.22088434E+03</rscale>
<asrwt>0</asrwt>
<pdfrwt beam="1">  1       21 0.17967697E-01 0.22169184E+03</pdfrwt>
<pdfrwt beam="2">  1       21 0.66775471E-01 0.22169184E+03</pdfrwt>
<totfact> 0.57116828E+04</totfact>
</mgrwt>
</event>
<event>
12    1  0.1029207E-001  0.2667719E+03  0.7546771E-02  0.1103629E+00
         21   -1    0    0  503  502  0.00000000000E+00  0.00000000000E+00  0.66760397021E+03  0.66760397021E+03  0.00000000000E+00 0.  1.
         21   -1    0    0  501  503 -0.00000000000E+00 -0.00000000000E+00 -0.27539427051E+03  0.27539427051E+03  0.00000000000E+00 0. -1.
          6    2    1    2  501    0  0.11066705055E+03 -0.16941115731E+03 -0.17400067926E+03  0.31850195267E+03  0.17383877925E+03 0.  0.
         24    2    3    3    0    0  0.13427136095E+03 -0.14494749687E+03 -0.18505216163E+03  0.28244838953E+03  0.80586692497E+02 0.  0.
         -6    2    1    2    0  502 -0.11066705055E+03  0.16941115731E+03  0.56621037896E+03  0.62449628805E+03  0.16868338462E+03 0.  0.
        -24    2    5    5    0    0 -0.81361892353E+02  0.31418760982E+02  0.31202747862E+03  0.33375287786E+03  0.80143246751E+02 0.  0.
          5    1    3    3  501    0 -0.23604310409E+02 -0.24463660440E+02  0.11051482362E+02  0.36053563131E+02  0.47000000000E+01 0. -1.
        -11    1    4    4    0    0  0.39119913595E+02 -0.12528960706E+02 -0.81835382196E+01  0.41884517352E+02  0.00000000000E+00 0.  1.
         12    1    4    4    0    0  0.95151447359E+02 -0.13241853616E+03 -0.17686862341E+03  0.24056387218E+03  0.00000000000E+00 0. -1.
         -5    1    5    5    0  502 -0.29305158192E+02  0.13799239632E+03  0.25418290035E+03  0.29074341019E+03  0.47000000000E+01 0.  1.
         13    1    6    6    0    0  0.23499075512E+01  0.23971483778E+02  0.25171469696E+02  0.34839015294E+02  0.00000000000E+00 0. -1.
        -14    1    6    6    0    0 -0.83711799904E+02  0.74472772045E+01  0.28685600892E+03  0.29891386257E+03  0.00000000000E+00 0.  1.
<mgrwt>
<rscale>  2 0.26593539E+03</rscale>
<asrwt>0</asrwt>
<pdfrwt beam="1">  1       21 0.10270830E+00 0.26677192E+03</pdfrwt>
<pdfrwt beam="2">  1       21 0.42368350E-01 0.26677192E+03</pdfrwt>
<totfact> 0.39155518E+03</totfact>
</mgrwt>
</event>
<event>
12    1  0.1029207E-001  0.1994800E+03  0.7546771E-02  0.1150581E+00
         21   -1    0    0  501  502  0.00000000000E+00  0.00000000000E+00  0.47526370006E+02  0.47526370006E+02  0.00000000000E+00 0.  1.
         21   -1    0    0  502  503 -0.00000000000E+00 -0.00000000000E+00 -0.85218724082E+03  0.85218724082E+03  0.00000000000E+00 0.  1.
         -6    2    1    2    0  503 -0.95999111982E+02 -0.19300436082E+02 -0.47784062917E+03  0.51780684145E+03  0.17379275539E+03 0.  0.
        -24    2    3    3    0    0 -0.79690996399E+02  0.46854915841E+02 -0.37798038176E+03  0.39682484182E+03  0.77812261487E+02 0.  0.
          6    2    1    2  501    0  0.95999111982E+02  0.19300436082E+02 -0.32682024164E+03  0.38190676938E+03  0.17161868727E+03 0.  0.
         24    2    5    5    0    0  0.39913718197E+02  0.42960252272E+02 -0.29843681547E+03  0.31457871298E+03  0.80352633153E+02 0.  0.
          5    1    5    5  501    0  0.56085393785E+02 -0.23659816191E+02 -0.28383426174E+02  0.67328056407E+02  0.47000000000E+01 0. -1.
        -13    1    6    6    0    0  0.60098630852E+02  0.41497558435E+02 -0.26981588287E+03  0.27952549693E+03  0.00000000000E+00 0.  1.
         14    1    6    6    0    0 -0.20184912655E+02  0.14626938375E+01 -0.28620932598E+02  0.35053216043E+02  0.00000000000E+00 0. -1.
         -5    1    3    3    0  503 -0.16308115584E+02 -0.66155351922E+02 -0.99860247410E+02  0.12098199963E+03  0.47000000000E+01 0.  1.
         11    1    4    4    0    0 -0.61566862747E+02  0.88173738270E+01 -0.31478855186E+03  0.32087389587E+03  0.00000000000E+00 0. -1.
        -12    1    4    4    0    0 -0.18124133651E+02  0.38037542014E+02 -0.63191829903E+02  0.75950945942E+02  0.00000000000E+00 0.  1.
<mgrwt>
<rscale>  2 0.19900547E+03</rscale>
<asrwt>0</asrwt>
<pdfrwt beam="1">  1       21 0.73117492E-02 0.19947997E+03</pdfrwt>
<pdfrwt beam="2">  1       21 0.13110573E+00 0.19947997E+03</pdfrwt>
<totfact> 0.59143501E+04</totfact>
</mgrwt>
</event>
<event>
12    1  0.1029207E-001  0.2028884E+03  0.7546771E-02  0.1148436E+00
         21   -1    0    0  503  502  0.00000000000E+00  0.00000000000E+00  0.11797561537E+03  0.11797561537E+03  0.00000000000E+00 0.  1.
         21   -1    0    0  501  503 -0.00000000000E+00 -0.00000000000E+00 -0.49471107190E+03  0.49471107190E+03  0.00000000000E+00 0. -1.
          6    2    1    2  501    0 -0.10515077856E+03 -0.16203094326E+02 -0.35803196908E+03  0.40893802375E+03  0.16650582539E+03 0.  0.
         24    2    3    3    0    0  0.98003339152E+01 -0.18251475382E+02 -0.15207288635E+03  0.17301602842E+03  0.79870022085E+02 0.  0.
         -6    2    1    2    0  502  0.10515077856E+03  0.16203094326E+02 -0.18703487451E+02  0.20374866352E+03  0.17275552364E+03 0.  0.
        -24    2    5    5    0    0  0.41522379986E+02 -0.12130011193E+02 -0.71686479108E+02  0.11610948633E+03  0.80443870610E+02 0.  0.
          5    1    3    3  501    0 -0.11495111248E+03  0.20483810557E+01 -0.20595908273E+03  0.23592199533E+03  0.47000000000E+01 0. -1.
        -11    1    4    4    0    0  0.20442643466E+02 -0.46870604062E+02 -0.82872251812E+02  0.97378464341E+02  0.00000000000E+00 0.  1.
         12    1    4    4    0    0 -0.10642309551E+02  0.28619128679E+02 -0.69200634538E+02  0.75637564076E+02  0.00000000000E+00 0. -1.
         -5    1    5    5    0  502  0.63628398575E+02  0.28333105519E+02  0.52982991657E+02  0.87639177189E+02  0.47000000000E+01 0.  1.
         11    1    6    6    0    0 -0.16435941786E+02  0.59237355194E+01  0.51239463384E+01  0.18206747403E+02  0.00000000000E+00 0. -1.
        -12    1    6    6    0    0  0.57958321772E+02 -0.18053746712E+02 -0.76810425446E+02  0.97902738931E+02  0.00000000000E+00 0.  1.
<mgrwt>
<rscale>  2 0.20155165E+03</rscale>
<asrwt>0</asrwt>
<pdfrwt beam="1">  1       21 0.18150094E-01 0.20288839E+03</pdfrwt>
<pdfrwt beam="2">  1       21 0.76109397E-01 0.20288839E+03</pdfrwt>
<totfact> 0.42313360E+04</totfact>
</mgrwt>
</event>
<event>
12    1  0.1029207E-001  0.1753734E+03  0.7546771E-02  0.1172424E+00
         21   -1    0    0  503  502  0.00000000000E+00  0.00000000000E+00  0.12488881118E+03  0.12488881118E+03  0.00000000000E+00 0.  1.
         21   -1    0    0  501  503 -0.00000000000E+00 -0.00000000000E+00 -0.24809668244E+03  0.24809668244E+03  0.00000000000E+00 0.  1.
          6    2    1    2  501    0 -0.21838751994E+01  0.23719147838E+02 -0.43984538752E+02  0.18054803258E+03  0.17348079183E+03 0.  0.
         24    2    3    3    0    0  0.31775397013E+02  0.73223429621E+02 -0.39308605790E+02  0.12015051249E+03  0.80744242277E+02 0.  0.
         -6    2    1    2    0  502  0.21838751994E+01 -0.23719147838E+02 -0.79223332516E+02  0.19243746104E+03  0.17374830276E+03 0.  0.
        -24    2    5    5    0    0 -0.19273869448E+02  0.50996164739E+02 -0.50370939646E+02  0.10938709492E+03  0.80350570083E+02 0.  0.
          5    1    3    3  501    0 -0.33959272212E+02 -0.49504281783E+02 -0.46759329621E+01  0.60397520091E+02  0.47000000000E+01 0. -1.
        -11    1    4    4    0    0  0.96076033978E+01  0.52417513807E+01  0.22894726279E+02  0.25376179618E+02  0.00000000000E+00 0.  1.
         12    1    4    4    0    0  0.22167793615E+02  0.67981678241E+02 -0.62203332070E+02  0.94774332869E+02  0.00000000000E+00 0. -1.
         -5    1    5    5    0  502  0.21457744647E+02 -0.74715312577E+02 -0.28852392870E+02  0.83050366123E+02  0.47000000000E+01 0.  1.
         11    1    6    6    0    0 -0.13662741552E+02  0.36032291431E+02 -0.72491453343E+02  0.82097547712E+02  0.00000000000E+00 0. -1.
        -12    1    6    6    0    0 -0.56111278955E+01  0.14963873308E+02  0.22120513697E+02  0.27289547208E+02  0.00000000000E+00 0.  1.
<mgrwt>
<rscale>  2 0.17530714E+03</rscale>
<asrwt>0</asrwt>
<pdfrwt beam="1">  1       21 0.19213663E-01 0.17537343E+03</pdfrwt>
<pdfrwt beam="2">  1       21 0.38168720E-01 0.17537343E+03</pdfrwt>
<totfact> 0.16555146E+05</totfact>
</mgrwt>
</event>
<event>
12    1  0.1029207E-001  0.2116583E+03  0.7546771E-02  0.1140537E+00
         21   -1    0    0  503  502  0.00000000000E+00  0.00000000000E+00  0.14677148616E+03  0.14677148616E+03  0.00000000000E+00 0.  1.
         21   -1    0    0  501  503 -0.00000000000E+00 -0.00000000000E+00 -0.57735432416E+03  0.57735432416E+03  0.00000000000E+00 0.  1.
          6    2    1    2  501    0 -0.97213639231E+02  0.71154114794E+02 -0.46516158828E+03  0.51105237294E+03  0.17402823037E+03 0.  0.
         24    2    3    3    0    0 -0.68320107933E+02  0.99242786662E+02 -0.22685700687E+03  0.26931910431E+03  0.80943872706E+02 0.  0.
         -6    2    1    2    0  502  0.97213639231E+02 -0.71154114794E+02  0.34578750287E+02  0.21307343738E+03  0.17231134624E+03 0.  0.
        -24    2    5    5    0    0  0.94496600159E+02 -0.88320841716E+02 -0.21448999645E+02  0.15422381906E+03  0.81208055362E+02 0.  0.
          5    1    3    3  501    0 -0.28893531298E+02 -0.28088671868E+02 -0.23830458141E+03  0.24173326862E+03  0.47000000000E+01 0. -1.
        -11    1    4    4    0    0 -0.86046444424E+01  0.38294686548E+02 -0.14806149669E+03  0.15317548670E+03  0.00000000000E+00 0.  1.
         12    1    4    4    0    0 -0.59715463490E+02  0.60948100113E+02 -0.78795510184E+02  0.11614361761E+03  0.00000000000E+00 0. -1.
         -5    1    5    5    0  502  0.27170390716E+01  0.17166726922E+02  0.56027749931E+02  0.58849618324E+02  0.47000000000E+01 0.  1.
         11    1    6    6    0    0  0.57391721715E+02 -0.59054629619E+02 -0.52516256414E+02  0.97668911065E+02  0.00000000000E+00 0. -1.
        -12    1    6    6    0    0  0.37104878444E+02 -0.29266212098E+02  0.31067256769E+02  0.56554907993E+02  0.00000000000E+00 0.  1.
<mgrwt>
<rscale>  2 0.21130505E+03</rscale>
<asrwt>0</asrwt>
<pdfrwt beam="1">  1       21 0.22580229E-01 0.21165827E+03</pdfrwt>
<pdfrwt beam="2">  1       21 0.88823742E-01 0.21165827E+03</pdfrwt>
<totfact> 0.19675038E+04</totfact>
</mgrwt>
</event>
<event>
12    1  0.1029207E-001  0.2663725E+03  0.7546771E-02  0.1103495E+00
         21   -1    0    0  501  502  0.00000000000E+00  0.00000000000E+00  0.78363024746E+02  0.78363024746E+02  0.00000000000E+00 0. -1.
         21   -1    0    0  502  503 -0.00000000000E+00 -0.00000000000E+00 -0.14762692170E+04  0.14762692170E+04  0.00000000000E+00 0. -1.
         -6    2    1    2    0  503 -0.42298016022E+02  0.19668915290E+03 -0.21374140596E+03  0.34087751211E+03  0.17330996685E+03 0.  0.
        -24    2    3    3    0    0  0.47143115650E+01  0.30007897930E+02 -0.10559349009E+03  0.13664514100E+03  0.81235526319E+02 0.  0.
          6    2    1    2  501    0  0.42298016022E+02 -0.19668915290E+03 -0.11841647863E+04  0.12137547297E+04  0.17458109175E+03 0.  0.
         24    2    5    5    0    0  0.62914601559E+01 -0.14193752854E+03 -0.10673665947E+04  0.10797468195E+04  0.79974384293E+02 0.  0.
          5    1    5    5  501    0  0.36006555866E+02 -0.54751624356E+02 -0.11679819160E+03  0.13400791020E+03  0.47000000000E+01 0. -1.
        -13    1    6    6    0    0 -0.29248288959E+02 -0.57858559370E+02 -0.60440291986E+03  0.60787002298E+03  0.00000000000E+00 0.  1.
         14    1    6    6    0    0  0.35539749115E+02 -0.84078969172E+02 -0.46296367485E+03  0.47187679648E+03  0.00000000000E+00 0. -1.
         -5    1    3    3    0  503 -0.47012327587E+02  0.16668125497E+03 -0.10814791587E+03  0.20423237111E+03  0.47000000000E+01 0.  1.
         11    1    4    4    0    0 -0.31804566996E+02  0.32205748323E+02 -0.80265925460E+02  0.92148572950E+02  0.00000000000E+00 0. -1.
        -12    1    4    4    0    0  0.36518878561E+02 -0.21978503925E+01 -0.25327564632E+02  0.44496568046E+02  0.00000000000E+00 0.  1.
<mgrwt>
<rscale>  2 0.26616440E+03</rscale>
<asrwt>0</asrwt>
<pdfrwt beam="1">  1       21 0.12055850E-01 0.26637249E+03</pdfrwt>
<pdfrwt beam="2">  1       21 0.22711834E+00 0.26637249E+03</pdfrwt>
<totfact> 0.49771826E+03</totfact>
</mgrwt>
</event>
<event>
12    1  0.1029207E-001  0.1835643E+03  0.7546771E-02  0.1164708E+00
         21   -1    0    0  503  502  0.00000000000E+00  0.00000000000E+00  0.14526228772E+03  0.14526228772E+03  0.00000000000E+00 0.  1.
         21   -1    0    0  501  503 -0.00000000000E+00 -0.00000000000E+00 -0.52154604335E+03  0.52154604335E+03  0.00000000000E+00 0.  1.
          6    2    1    2  501    0  0.24319350995E+02 -0.55182532876E+02 -0.43757963350E+03  0.47452269060E+03  0.17337619637E+03 0.  0.
         24    2    3    3    0    0  0.12450511234E+02 -0.70730757511E+02 -0.44138998745E+03  0.45404769502E+03  0.78589649732E+02 0.  0.
         -6    2    1    2    0  502 -0.24319350995E+02  0.55182532876E+02  0.61295877874E+02  0.19228564048E+03  0.17198848834E+03 0.  0.
        -24    2    5    5    0    0 -0.55468676325E+02  0.43474867598E+02  0.96638826401E+02  0.14351511756E+03  0.79313857778E+02 0.  0.
          5    1    3    3  501    0  0.11868839761E+02  0.15548224635E+02  0.38103539487E+01  0.20474995575E+02  0.47000000000E+01 0. -1.
        -13    1    4    4    0    0 -0.17539775871E+02 -0.73000412981E+02 -0.28068372981E+03  0.29055130392E+03  0.00000000000E+00 0.  1.
         14    1    4    4    0    0  0.29990287105E+02  0.22696554692E+01 -0.16070625764E+03  0.16349639110E+03  0.00000000000E+00 0. -1.
         -5    1    5    5    0  502  0.31149325330E+02  0.11707665279E+02 -0.35342948527E+02  0.48770522915E+02  0.47000000000E+01 0.  1.
         11    1    6    6    0    0  0.16741589457E+02  0.17696313056E+02  0.65710635471E+01  0.25231313669E+02  0.00000000000E+00 0. -1.
        -12    1    6    6    0    0 -0.72210265782E+02  0.25778554541E+02  0.90067762854E+02  0.11828380390E+03  0.00000000000E+00 0.  1.
<mgrwt>
<rscale>  2 0.18323588E+03</rscale>
<asrwt>0</asrwt>
<pdfrwt beam="1">  1       21 0.22348044E-01 0.18356429E+03</pdfrwt>
<pdfrwt beam="2">  1       21 0.80237853E-01 0.18356429E+03</pdfrwt>
<totfact> 0.25734332E+04</totfact>
</mgrwt>
</event>
<event>
12    1  0.1029207E-001  0.1905144E+03  0.7546771E-02  0.1158332E+00
         21   -1    0    0  501  502  0.00000000000E+00  0.00000000000E+00  0.14412927747E+03  0.14412927747E+03  0.00000000000E+00 0. -1.
         21   -1    0    0  502  503 -0.00000000000E+00 -0.00000000000E+00 -0.29037678845E+03  0.29037678845E+03  0.00000000000E+00 0. -1.
         -6    2    1    2    0  503  0.17980570929E+02 -0.74902775349E+02 -0.15450595528E+03  0.24529133545E+03  0.17424701530E+03 0.  0.
        -24    2    3    3    0    0  0.32608144790E+02 -0.11218943192E+03 -0.14867216260E+03  0.20454352799E+03  0.78005661150E+02 0.  0.
          6    2    1    2  501    0 -0.17980570929E+02  0.74902775349E+02  0.82584443059E+01  0.18921473047E+03  0.17262759235E+03 0.  0.
         24    2    5    5    0    0 -0.46606853993E+02  0.10066173211E+03  0.37073872531E+02  0.14088868326E+03  0.78550403531E+02 0.  0.
          5    1    5    5  501    0  0.28626283063E+02 -0.25758956764E+02 -0.28815428225E+02  0.48326047215E+02  0.47000000000E+01 0. -1.
        -11    1    6    6    0    0  0.12332349370E+02  0.56887505626E+02  0.33992253189E+02  0.67407332051E+02  0.00000000000E+00 0.  1.
         12    1    6    6    0    0 -0.58939203363E+02  0.43774226487E+02  0.30816193414E+01  0.73481351208E+02  0.00000000000E+00 0. -1.
         -5    1    3    3    0  503 -0.14627573861E+02  0.37286656567E+02 -0.58337926792E+01  0.40747807450E+02  0.47000000000E+01 0.  1.
         13    1    4    4    0    0  0.40445683622E+02 -0.18630550503E+02 -0.64952356614E+02  0.78751249929E+02  0.00000000000E+00 0. -1.
        -14    1    4    4    0    0 -0.78375388325E+01 -0.93558881412E+02 -0.83719805989E+02  0.12579227807E+03  0.00000000000E+00 0.  1.
<mgrwt>
<rscale>  2 0.19014335E+03</rscale>
<asrwt>0</asrwt>
<pdfrwt beam="1">  1       21 0.22173735E-01 0.19051443E+03</pdfrwt>
<pdfrwt beam="2">  1       21 0.44673352E-01 0.19051443E+03</pdfrwt>
<totfact> 0.91560819E+04</totfact>
</mgrwt>
</event>
<event>
12    1  0.1029207E-001  0.1841430E+03  0.7546771E-02  0.1164035E+00
         21   -1    0    0  501  502  0.00000000000E+00  0.00000000000E+00  0.16517663896E+03  0.16517663896E+03  0.00000000000E+00 0. -1.
         21   -1    0    0  502  503 -0.00000000000E+00 -0.00000000000E+00 -0.24844888826E+03  0.24844888826E+03  0.00000000000E+00 0. -1.
         -6    2    1    2    0  503  0.45412177442E+02  0.44858648014E+02 -0.12876435499E+03  0.22469732224E+03  0.17272539866E+03 0.  0.
        -24    2    3    3    0    0  0.82079074899E+02  0.25255662959E+01 -0.66079386050E+02  0.14050678531E+03  0.92910270889E+02 0.  0.
          6    2    1    2  501    0 -0.45412177442E+02 -0.44858648014E+02  0.45492105702E+02  0.18892820498E+03  0.17190046769E+03 0.  0.
         24    2    5    5    0    0 -0.51606049198E+02  0.57590194438E+01 -0.27583885113E+02  0.99694227482E+02  0.80509115363E+02 0.  0.
          5    1    5    5  501    0  0.61938717554E+01 -0.50617667458E+02  0.73075990815E+02  0.89233977496E+02  0.47000000000E+01 0. -1.
        -13    1    6    6    0    0 -0.16108540780E+01  0.19740306220E+02 -0.41469051621E+02  0.45956030973E+02  0.00000000000E+00 0.  1.
         14    1    6    6    0    0 -0.49995195120E+02 -0.13981286776E+02  0.13885166508E+02  0.53738196508E+02  0.00000000000E+00 0. -1.
         -5    1    3    3    0  503 -0.36666897457E+02  0.42333081718E+02 -0.62684968944E+02  0.84190536929E+02  0.47000000000E+01 0.  1.
         11    1    4    4    0    0  0.49767364912E+02  0.30613387312E+02 -0.76676522802E+02  0.96401552073E+02  0.00000000000E+00 0. -1.
        -12    1    4    4    0    0  0.32311709988E+02 -0.28087821016E+02  0.10597136753E+02  0.44105233240E+02  0.00000000000E+00 0.  1.
<mgrwt>
<rscale>  2 0.18394926E+03</rscale>
<asrwt>0</asrwt>
<pdfrwt beam="1">  1       21 0.25411791E-01 0.18414295E+03</pdfrwt>
<pdfrwt beam="2">  1       21 0.38222906E-01 0.18414295E+03</pdfrwt>
<totfact> 0.97218318E+04</totfact>
</mgrwt>
</event>
<event>
12    1  0.1029207E-001  0.1839751E+03  0.7546771E-02  0.1164115E+00
         21   -1    0    0  501  502  0.00000000000E+00  0.00000000000E+00  0.87693895283E+02  0.87693895283E+02  0.00000000000E+00 0. -1.
         21   -1    0    0  502  503 -0.00000000000E+00 -0.00000000000E+00 -0.38601679336E+03  0.38601679336E+03  0.00000000000E+00 0. -1.
         -6    2    1    2    0  503 -0.38643128153E+02 -0.48158620695E+02 -0.16092271477E+03  0.24409002591E+03  0.17283308862E+03 0.  0.
        -24    2    3    3    0    0  0.28980136539E+02 -0.71447474585E+02 -0.98026600038E+02  0.14873129327E+03  0.81038221500E+02 0.  0.
          6    2    1    2  501    0  0.38643128153E+02  0.48158620695E+02 -0.13740018330E+03  0.22962066273E+03  0.17330405154E+03 0.  0.
         24    2    5    5    0    0  0.26515254374E+02  0.19764809172E+02  0.23005066369E+01  0.86471556461E+02  0.79864456111E+02 0.  0.
          5    1    5    5  501    0  0.12127873779E+02  0.28393811523E+02 -0.13970068994E+03  0.14314910627E+03  0.47000000000E+01 0. -1.
        -13    1    6    6    0    0  0.44850678688E+02  0.42162298315E+01 -0.23831252521E+02  0.50963600437E+02  0.00000000000E+00 0.  1.
         14    1    6    6    0    0 -0.18335424314E+02  0.15548579340E+02  0.26131759158E+02  0.35507956024E+02  0.00000000000E+00 0. -1.
         -5    1    3    3    0  503 -0.67623264692E+02  0.23288853890E+02 -0.62896114735E+02  0.95358732647E+02  0.47000000000E+01 0.  1.
         13    1    4    4    0    0 -0.12433786896E+02 -0.54009574151E+02 -0.85832493957E+02  0.10217069137E+03  0.00000000000E+00 0. -1.
        -14    1    4    4    0    0  0.41413923435E+02 -0.17437900435E+02 -0.12194106081E+02  0.46560601897E+02  0.00000000000E+00 0.  1.
<mgrwt>
<rscale>  2 0.18386411E+03</rscale>
<asrwt>0</asrwt>
<pdfrwt beam="1">  1       21 0.13491368E-01 0.18397510E+03</pdfrwt>
<pdfrwt beam="2">  1       21 0.59387199E-01 0.18397510E+03</pdfrwt>
<totfact> 0.12631690E+05</totfact>
</mgrwt>
</event>
<event>
12    1  0.1029207E-001  0.1759501E+03  0.7546771E-02  0.1171954E+00
         21   -1    0    0  503  502  0.00000000000E+00  0.00000000000E+00  0.84682301547E+03  0.84682301547E+03  0.00000000000E+00 0. -1.
         21   -1    0    0  501  503 -0.00000000000E+00 -0.00000000000E+00 -0.81816453412E+02  0.81816453412E+02  0.00000000000E+00 0. -1.
          6    2    1    2  501    0  0.24071926888E+02 -0.20592353946E+02  0.36952650917E+02  0.17978859672E+03  0.17307495023E+03 0.  0.
         24    2    3    3    0    0 -0.42181998056E+02  0.23341526151E+02 -0.14095147931E+01  0.91394512369E+02  0.77632611421E+02 0.  0.
         -6    2    1    2    0  502 -0.24071926888E+02  0.20592353946E+02  0.72805391114E+03  0.74885087216E+03  0.17237061380E+03 0.  0.
        -24    2    5    5    0    0 -0.79858527092E+02  0.17247023253E+02  0.47743114432E+03  0.49202953884E+03  0.86473842071E+02 0.  0.
          5    1    3    3  501    0  0.66253924945E+02 -0.43933880097E+02  0.38362165710E+02  0.88394084354E+02  0.47000000000E+01 0. -1.
        -11    1    4    4    0    0 -0.10820154118E+02 -0.70099672550E+00  0.35623353866E+02  0.37236950361E+02  0.00000000000E+00 0.  1.
         12    1    4    4    0    0 -0.31361843939E+02  0.24042522876E+02 -0.37032868659E+02  0.54157562008E+02  0.00000000000E+00 0. -1.
         -5    1    5    5    0  502  0.55786600204E+02  0.33453306928E+01  0.25062276682E+03  0.25682133332E+03  0.47000000000E+01 0.  1.
         13    1    6    6    0    0 -0.17368151083E+02 -0.31533971813E+02  0.21119105121E+03  0.21423749476E+03  0.00000000000E+00 0. -1.
        -14    1    6    6    0    0 -0.62490376009E+02  0.48780995066E+02  0.26624009311E+03  0.27779204407E+03  0.00000000000E+00 0.  1.
<mgrwt>
<rscale>  2 0.17577666E+03</rscale>
<asrwt>0</asrwt>
<pdfrwt beam="1">  1       21 0.13028046E+00 0.17595011E+03</pdfrwt>
<pdfrwt beam="2">  1       21 0.12587147E-01 0.17595011E+03</pdfrwt>
<totfact> 0.23404993E+04</totfact>
</mgrwt>
</event>
<event>
12    1  0.1029207E-001  0.2900933E+03  0.7546771E-02  0.1090543E+00
         21   -1    0    0  501  502  0.00000000000E+00  0.00000000000E+00  0.11900771429E+04  0.11900771429E+04  0.00000000000E+00 0. -1.
         21   -1    0    0  502  503 -0.00000000000E+00 -0.00000000000E+00 -0.85515576357E+02  0.85515576357E+02  0.00000000000E+00 0. -1.
         -6    2    1    2    0  503  0.19515846597E+03  0.12378569453E+03  0.82310493569E+03  0.87272896419E+03  0.17534076755E+03 0.  0.
        -24    2    3    3    0    0  0.10250759273E+03  0.11211549326E+03  0.34130974983E+03  0.38194482730E+03  0.79446934302E+02 0.  0.
          6    2    1    2  501    0 -0.19515846597E+03 -0.12378569453E+03  0.28145663088E+03  0.40286375510E+03  0.17225459383E+03 0.  0.
         24    2    5    5    0    0 -0.82319852542E+02 -0.98315367034E+02  0.79264805474E+02  0.16987252238E+03  0.78302585878E+02 0.  0.
          5    1    5    5  501    0 -0.11283861343E+03 -0.25470327497E+02  0.20219182541E+03  0.23299123272E+03  0.47000000000E+01 0. -1.
        -11    1    6    6    0    0  0.10310909544E+02  0.49586574377E+01  0.74932024432E+01  0.13676667067E+02  0.00000000000E+00 0.  1.
         12    1    6    6    0    0 -0.92630762086E+02 -0.10327402447E+03  0.71771603031E+02  0.15619585531E+03  0.00000000000E+00 0. -1.
         -5    1    3    3    0  503  0.92650873235E+02  0.11670201270E+02  0.48179518585E+03  0.49078413689E+03  0.47000000000E+01 0.  1.
         13    1    4    4    0    0  0.72133684794E+02  0.37497826591E+02  0.23426832736E+03  0.24797379838E+03  0.00000000000E+00 0. -1.
        -14    1    4    4    0    0  0.30373907939E+02  0.74617666669E+02  0.10704142247E+03  0.13397102891E+03  0.00000000000E+00 0.  1.
<mgrwt>
<rscale>  2 0.28962844E+03</rscale>
<asrwt>0</asrwt>
<pdfrwt beam="1">  1       21 0.18308878E+00 0.29009328E+03</pdfrwt>
<pdfrwt beam="2">  1       21 0.13156243E-01 0.29009328E+03</pdfrwt>
<totfact> 0.80643375E+03</totfact>
</mgrwt>
</event>
<event>
12    1  0.1029207E-001  0.1860197E+03  0.7546771E-02  0.1162282E+00
         21   -1    0    0  501  502  0.00000000000E+00  0.00000000000E+00  0.76092479564E+02  0.76092479564E+02  0.00000000000E+00 0. -1.
         21   -1    0    0  502  503 -0.00000000000E+00 -0.00000000000E+00 -0.99467888978E+03  0.99467888978E+03  0.00000000000E+00 0. -1.
         -6    2    1    2    0  503  0.63145997829E+02  0.16985917561E+02 -0.85487666112E+03  0.87488137690E+03  0.17414757960E+03 0.  0.
        -24    2    3    3    0    0  0.10699285979E+03  0.26023322484E+02 -0.69094517140E+03  0.70488183186E+03  0.85606551431E+02 0.  0.
          6    2    1    2  501    0 -0.63145997829E+02 -0.16985917561E+02 -0.63709749093E+02  0.19588999244E+03  0.17331479617E+03 0.  0.
         24    2    5    5    0    0 -0.44563368716E+02 -0.11394885601E+02 -0.11103122791E+03  0.14452866360E+03  0.80279908954E+02 0.  0.
          5    1    5    5  501    0 -0.18582629113E+02 -0.55910319593E+01  0.47321478816E+02  0.51361328843E+02  0.47000000000E+01 0. -1.
        -13    1    6    6    0    0 -0.63856994818E+02  0.88255544186E+01 -0.80653289786E+02  0.10324998475E+03  0.00000000000E+00 0.  1.
         14    1    6    6    0    0  0.19293626103E+02 -0.20220440020E+02 -0.30377938122E+02  0.41278678847E+02  0.00000000000E+00 0. -1.
         -5    1    3    3    0  503 -0.43846861959E+02 -0.90374049230E+01 -0.16393148973E+03  0.16999954505E+03  0.47000000000E+01 0.  1.
         11    1    4    4    0    0  0.23488884784E+02  0.47310640216E+02 -0.29148708426E+03  0.29623427330E+03  0.00000000000E+00 0. -1.
        -12    1    4    4    0    0  0.83503975004E+02 -0.21287317733E+02 -0.39945808713E+03  0.40864755856E+03  0.00000000000E+00 0.  1.
<mgrwt>
<rscale>  2 0.18582451E+03</rscale>
<asrwt>0</asrwt>
<pdfrwt beam="1">  1       21 0.11706536E-01 0.18601967E+03</pdfrwt>
<pdfrwt beam="2">  1       21 0.15302751E+00 0.18601967E+03</pdfrwt>
<totfact> 0.17472089E+04</totfact>
</mgrwt>
</event>
<event>
12    1  0.1029207E-001  0.3328326E+03  0.7546771E-02  0.1069948E+00
         21   -1    0    0  503  502  0.00000000000E+00  0.00000000000E+00  0.63459046436E+02  0.63459046436E+02  0.00000000000E+00 0. -1.
         21   -1    0    0  501  503 -0.00000000000E+00 -0.00000000000E+00 -0.23032467759E+04  0.23032467759E+04  0.00000000000E+00 0. -1.
          6    2    1    2  501    0  0.86711699911E+02  0.27022525093E+03 -0.17042539931E+04  0.17364501769E+04  0.17388771854E+03 0.  0.
         24    2    3    3    0    0  0.27354637241E+02  0.22532142217E+03 -0.10130209717E+04  0.10412057633E+04  0.79874482688E+02 0.  0.
         -6    2    1    2    0  502 -0.86711699911E+02 -0.27022525093E+03 -0.53553373636E+03  0.63025564545E+03  0.17287333716E+03 0.  0.
        -24    2    5    5    0    0 -0.12418209622E+02 -0.21669794118E+03 -0.31015788807E+03  0.38694296887E+03  0.80092046984E+02 0.  0.
          5    1    3    3  501    0  0.59357062670E+02  0.44903828757E+02 -0.69123302143E+03  0.69524441360E+03  0.47000000000E+01 0. -1.
        -11    1    4    4    0    0 -0.25708334604E+02  0.70285852631E+02 -0.38150227671E+03  0.38877372170E+03  0.00000000000E+00 0.  1.
         12    1    4    4    0    0  0.53062971845E+02  0.15503556954E+03 -0.63151869494E+03  0.65243204157E+03  0.00000000000E+00 0. -1.
         -5    1    5    5    0  502 -0.74293490288E+02 -0.53527309749E+02 -0.22537584829E+03  0.24331267658E+03  0.47000000000E+01 0.  1.
         11    1    6    6    0    0 -0.39566079369E+02 -0.59444141506E+02 -0.85945281599E+02  0.11173930385E+03  0.00000000000E+00 0. -1.
        -12    1    6    6    0    0  0.27147869746E+02 -0.15725379967E+03 -0.22421260647E+03  0.27520366502E+03  0.00000000000E+00 0.  1.
<mgrwt>
<rscale>  2 0.33270032E+03</rscale>
<asrwt>0</asrwt>
<pdfrwt beam="1">  1       21 0.97629292E-02 0.33283261E+03</pdfrwt>
<pdfrwt beam="2">  1       21 0.35434569E+00 0.33283261E+03</pdfrwt>
<totfact> 0.12010241E+03</totfact>
</mgrwt>
</event>
<event>
12    1  0.1029207E-001  0.2255425E+03  0.7546771E-02  0.1130740E+00
         21   -1    0    0  501  502  0.00000000000E+00  0.00000000000E+00  0.40787798532E+03  0.40787798532E+03  0.00000000000E+00 0.  1.
         21   -1    0    0  502  503 -0.00000000000E+00 -0.00000000000E+00 -0.22717841913E+03  0.22717841913E+03  0.00000000000E+00 0.  1.
         -6    2    1    2    0  503 -0.96741649986E+02  0.10610918640E+03 -0.12521016912E+03  0.25796708584E+03  0.17392907935E+03 0.  0.
        -24    2    3    3    0    0 -0.12978211744E+03  0.73689267934E+02 -0.63327978158E+02  0.18054474306E+03  0.79451023979E+02 0.  0.
          6    2    1    2  501    0  0.96741649986E+02 -0.10610918640E+03  0.30590973531E+03  0.37708931861E+03  0.16732448050E+03 0.  0.
         24    2    5    5    0    0  0.70241883606E+02 -0.26237409192E+02  0.25715436074E+03  0.27971932857E+03  0.80574274249E+02 0.  0.
          5    1    5    5  501    0  0.26499766380E+02 -0.79871777208E+02  0.48755374561E+02  0.97369990044E+02  0.47000000000E+01 0. -1.
        -11    1    6    6    0    0  0.68960068812E+02 -0.46446625709E+02  0.15823637500E+03  0.17874991050E+03  0.00000000000E+00 0.  1.
         12    1    6    6    0    0  0.12818147947E+01  0.20209216517E+02  0.98917985744E+02  0.10096941807E+03  0.00000000000E+00 0. -1.
         -5    1    3    3    0  503  0.33040467458E+02  0.32419918466E+02 -0.61882190961E+02  0.77422342778E+02  0.47000000000E+01 0.  1.
         11    1    4    4    0    0 -0.85527372039E+02  0.30430429986E+02  0.16735283338E+01  0.90795061177E+02  0.00000000000E+00 0. -1.
        -12    1    4    4    0    0 -0.44254745405E+02  0.43258837948E+02 -0.65001506492E+02  0.89749681881E+02  0.00000000000E+00 0.  1.
<mgrwt>
<rscale>  2 0.22426850E+03</rscale>
<asrwt>0</asrwt>
<pdfrwt beam="1">  1       21 0.62750459E-01 0.22554253E+03</pdfrwt>
<pdfrwt beam="2">  1       21 0.34950526E-01 0.22554253E+03</pdfrwt>
<totfact> 0.18209612E+04</totfact>
</mgrwt>
</event>
<event>
12    1  0.1029207E-001  0.2258060E+03  0.7546771E-02  0.1131734E+00
         21   -1    0    0  501  502  0.00000000000E+00  0.00000000000E+00  0.27786184572E+03  0.27786184572E+03  0.00000000000E+00 0. -1.
         21   -1    0    0  502  503 -0.00000000000E+00 -0.00000000000E+00 -0.17899076111E+03  0.17899076111E+03  0.00000000000E+00 0. -1.
         -6    2    1    2    0  503  0.21473220108E+02 -0.12653520564E+03  0.11521096471E+02  0.21474025338E+03  0.17178004339E+03 0.  0.
        -24    2    3    3    0    0 -0.48308134250E+02 -0.10423118053E+03 -0.23043805087E+01  0.14003991358E+03  0.80050311659E+02 0.  0.
          6    2    1    2  501    0 -0.21473220108E+02  0.12653520564E+03  0.87349988136E+02  0.24211235345E+03  0.18578512808E+03 0.  0.
         24    2    5    5    0    0  0.25050657642E+02  0.47391741707E+02 -0.27116014878E+02  0.95303924093E+02  0.73986803244E+02 0.  0.
          5    1    5    5  501    0 -0.46523877750E+02  0.79143463933E+02  0.11446600301E+03  0.14680842936E+03  0.47000000000E+01 0. -1.
        -13    1    6    6    0    0  0.36241172699E+02  0.33110771010E+02  0.13422016419E+02  0.50891023572E+02  0.00000000000E+00 0.  1.
         14    1    6    6    0    0 -0.11190515057E+02  0.14280970697E+02 -0.40538031297E+02  0.44412900521E+02  0.00000000000E+00 0. -1.
         -5    1    3    3    0  503  0.69781354358E+02 -0.22304025115E+02  0.13825476980E+02  0.74700339799E+02  0.47000000000E+01 0.  1.
         13    1    4    4    0    0 -0.24981391207E+02 -0.10506573191E+03  0.17531190674E+02  0.10940850321E+03  0.00000000000E+00 0. -1.
        -14    1    4    4    0    0 -0.23326743043E+02  0.83455138246E+00 -0.19835571183E+02  0.30631410368E+02  0.00000000000E+00 0.  1.
<mgrwt>
<rscale>  2 0.22290692E+03</rscale>
<asrwt>0</asrwt>
<pdfrwt beam="1">  1       21 0.42747976E-01 0.22580605E+03</pdfrwt>
<pdfrwt beam="2">  1       21 0.27537040E-01 0.22580605E+03</pdfrwt>
<totfact> 0.65276079E+04</totfact>
</mgrwt>
</event>
<event>
12    1  0.1029207E-001  0.2359399E+03  0.7546771E-02  0.1123341E+00
         21   -1    0    0  503  502  0.00000000000E+00  0.00000000000E+00  0.36527153843E+03  0.36527153843E+03  0.00000000000E+00 0.  1.
         21   -1    0    0  501  503 -0.00000000000E+00 -0.00000000000E+00 -0.35706107285E+03  0.35706107285E+03  0.00000000000E+00 0. -1.
          6    2    1    2  501    0  0.12190183406E+03 -0.93421912276E+02 -0.27136266141E+03  0.35650647265E+03  0.17283361998E+03 0.  0.
         24    2    3    3    0    0  0.73906583586E+01 -0.79814400618E+02 -0.18246528555E+03  0.21082597578E+03  0.68768097662E+02 0.  0.
         -6    2    1    2    0  502 -0.12190183406E+03  0.93421912276E+02  0.27957312699E+03  0.36582613863E+03  0.17910868076E+03 0.  0.
        -24    2    5    5    0    0 -0.14510061731E+03  0.61802493147E+02  0.26842067228E+03  0.32478422765E+03  0.92527833203E+02 0.  0.
          5    1    3    3  501    0  0.11451117570E+03 -0.13607511658E+02 -0.88897375863E+02  0.14568049687E+03  0.47000000000E+01 0. -1.
        -11    1    4    4    0    0 -0.28503116808E+02 -0.16835429532E+02 -0.55342105878E+02  0.64487270359E+02  0.00000000000E+00 0.  1.
         12    1    4    4    0    0  0.35893775166E+02 -0.62978971086E+02 -0.12712317967E+03  0.14633870542E+03  0.00000000000E+00 0. -1.
         -5    1    5    5    0  502  0.23198783255E+02  0.31619419129E+02  0.11152454710E+02  0.41041910977E+02  0.47000000000E+01 0.  1.
         13    1    6    6    0    0  0.74574003928E+01  0.24667776526E+02  0.34792407952E+02  0.43296924492E+02  0.00000000000E+00 0. -1.
        -14    1    6    6    0    0 -0.15255801770E+03  0.37134716621E+02  0.23362826433E+03  0.28148730316E+03  0.00000000000E+00 0.  1.
<mgrwt>
<rscale>  2 0.23474903E+03</rscale>
<asrwt>0</asrwt>
<pdfrwt beam="1">  1       21 0.56195622E-01 0.23593989E+03</pdfrwt>
<pdfrwt beam="2">  1       21 0.54932473E-01 0.23593989E+03</pdfrwt>
<totfact> 0.90595161E+03</totfact>
</mgrwt>
</event>
<event>
12    1  0.1029207E-001  0.2394926E+03  0.7546771E-02  0.1120209E+00
         21   -1    0    0  501  502  0.00000000000E+00  0.00000000000E+00  0.68428810926E+03  0.68428810926E+03  0.00000000000E+00 0.  1.
         21   -1    0    0  502  503 -0.00000000000E+00 -0.00000000000E+00 -0.84329162519E+02  0.84329162519E+02  0.00000000000E+00 0.  1.
         -6    2    1    2    0  503  0.67013940674E+02 -0.15135542694E+03  0.33399984444E+03  0.41071930778E+03  0.17243874328E+03 0.  0.
        -24    2    3    3    0    0 -0.97647365880E+01 -0.21265926794E+02  0.15420200327E+03  0.17584147353E+03  0.81205765053E+02 0.  0.
          6    2    1    2  501    0 -0.67013940674E+02  0.15135542694E+03  0.26595910230E+03  0.35789796400E+03  0.17308198934E+03 0.  0.
         24    2    5    5    0    0 -0.91319038514E+02  0.14354481793E+03  0.15553358774E+03  0.24446239789E+03  0.81405684791E+02 0.  0.
          5    1    5    5  501    0  0.24305097841E+02  0.78106090079E+01  0.11042551456E+03  0.11343556611E+03  0.47000000000E+01 0. -1.
        -13    1    6    6    0    0 -0.35559961066E+02  0.12349432039E+03  0.95500533408E+02  0.16011155449E+03  0.00000000000E+00 0.  1.
         14    1    6    6    0    0 -0.55759077448E+02  0.20050497538E+02  0.60033054336E+02  0.84350843400E+02  0.00000000000E+00 0. -1.
         -5    1    3    3    0  503  0.76778677262E+02 -0.13008950015E+03  0.17979784118E+03  0.23487783425E+03  0.47000000000E+01 0.  1.
         11    1    4    4    0    0  0.14064212887E+01  0.24576427617E+02  0.14921841106E+02  0.28786110491E+02  0.00000000000E+00 0. -1.
        -12    1    4    4    0    0 -0.11171157877E+02 -0.45842354410E+02  0.13928016216E+03  0.14705536304E+03  0.00000000000E+00 0.  1.
<mgrwt>
<rscale>  2 0.23937641E+03</rscale>
<asrwt>0</asrwt>
<pdfrwt beam="1">  1       21 0.10527509E+00 0.23949261E+03</pdfrwt>
<pdfrwt beam="2">  1       21 0.12973718E-01 0.23949261E+03</pdfrwt>
<totfact> 0.36153071E+04</totfact>
</mgrwt>
</event>
<event>
12    1  0.1029207E-001  0.2947281E+03  0.7546771E-02  0.1087955E+00
         21   -1    0    0  503  502  0.00000000000E+00  0.00000000000E+00  0.22679446099E+03  0.22679446099E+03  0.00000000000E+00 0. -1.
         21   -1    0    0  501  503 -0.00000000000E+00 -0.00000000000E+00 -0.39201765734E+03  0.39201765734E+03  0.00000000000E+00 0. -1.
          6    2    1    2  501    0 -0.23136030901E+03 -0.56805521137E+02 -0.13082660145E+03  0.32245969198E+03  0.17352289039E+03 0.  0.
         24    2    3    3    0    0 -0.91688590792E+02 -0.61152689076E+02 -0.94596300055E+01  0.13731348355E+03  0.81357600151E+02 0.  0.
         -6    2    1    2    0  502  0.23136030901E+03  0.56805521137E+02 -0.34396594904E+02  0.29635242635E+03  0.17287907637E+03 0.  0.
        -24    2    5    5    0    0  0.10776183986E+03  0.61562086555E+02  0.37828375104E+02  0.15304247281E+03  0.81169624183E+02 0.  0.
          5    1    3    3  501    0 -0.13967171822E+03  0.43471679394E+01 -0.12136697144E+03  0.18514620843E+03  0.47000000000E+01 0. -1.
        -11    1    4    4    0    0  0.15341155209E+02 -0.51030161536E+01 -0.88482486408E+00  0.16191810647E+02  0.00000000000E+00 0.  1.
         12    1    4    4    0    0 -0.10702974600E+03 -0.56049672923E+02 -0.85748051414E+01  0.12112167290E+03  0.00000000000E+00 0. -1.
         -5    1    5    5    0  502  0.12359846915E+03 -0.47565654179E+01 -0.72224970008E+02  0.14330995354E+03  0.47000000000E+01 0.  1.
         11    1    6    6    0    0  0.92086910054E+02  0.76929426840E+02  0.14262744059E+02  0.12083692145E+03  0.00000000000E+00 0. -1.
        -12    1    6    6    0    0  0.15674929802E+02 -0.15367340285E+02  0.23565631045E+02  0.32205551359E+02  0.00000000000E+00 0.  1.
<mgrwt>
<rscale>  2 0.29463341E+03</rscale>
<asrwt>0</asrwt>
<pdfrwt beam="1">  1       21 0.34891456E-01 0.29472810E+03</pdfrwt>
<pdfrwt beam="2">  1       21 0.60310408E-01 0.29472810E+03</pdfrwt>
<totfact> 0.19276338E+04</totfact>
</mgrwt>
</event>
<event>
12    1  0.1029207E-001  0.2195958E+03  0.7546771E-02  0.1134433E+00
         21   -1    0    0  501  502  0.00000000000E+00  0.00000000000E+00  0.73587808538E+03  0.73587808538E+03  0.00000000000E+00 0. -1.
         21   -1    0    0  502  503 -0.00000000000E+00 -0.00000000000E+00 -0.70535257812E+02  0.70535257812E+02  0.00000000000E+00 0. -1.
         -6    2    1    2    0  503 -0.12414530279E+03 -0.51448227350E+02  0.22203902523E+03  0.31228774677E+03  0.17367593891E+03 0.  0.
        -24    2    3    3    0    0 -0.15425084807E+02  0.12452227297E+02  0.37990508589E+02  0.89130178268E+02  0.78153174787E+02 0.  0.
          6    2    1    2  501    0  0.12414530279E+03  0.51448227350E+02  0.44330380233E+03  0.49412559641E+03  0.17199670802E+03 0.  0.
         24    2    5    5    0    0  0.99050340995E+02 -0.49934259416E+01  0.39670923565E+03  0.41661068831E+03  0.79689043247E+02 0.  0.
          5    1    5    5  501    0  0.25094961794E+02  0.56441653292E+02  0.46594566682E+02  0.77514908102E+02  0.47000000000E+01 0. -1.
        -11    1    6    6    0    0  0.10336990398E+03  0.16034024938E+02  0.34797765543E+03  0.36336053127E+03  0.00000000000E+00 0.  1.
         12    1    6    6    0    0 -0.43195629807E+01 -0.21027450880E+02  0.48731580217E+02  0.53250157045E+02  0.00000000000E+00 0. -1.
         -5    1    3    3    0  503 -0.10872021798E+03 -0.63900454647E+02  0.18404851665E+03  0.22315756851E+03  0.47000000000E+01 0.  1.
         11    1    4    4    0    0 -0.47142346305E+02  0.12275392813E+02  0.26026495464E+02  0.55231010764E+02  0.00000000000E+00 0. -1.
        -12    1    4    4    0    0  0.31717261498E+02  0.17683448387E+00  0.11964013125E+02  0.33899167504E+02  0.00000000000E+00 0.  1.
<mgrwt>
<rscale>  2 0.21926361E+03</rscale>
<asrwt>0</asrwt>
<pdfrwt beam="1">  1       21 0.11321201E+00 0.21959578E+03</pdfrwt>
<pdfrwt beam="2">  1       21 0.10851579E-01 0.21959578E+03</pdfrwt>
<totfact> 0.42155537E+04</totfact>
</mgrwt>
</event>
<event>
12    1  0.1029207E-001  0.2677296E+03  0.7546771E-02  0.1102609E+00
         21   -1    0    0  501  502  0.00000000000E+00  0.00000000000E+00  0.12963550837E+03  0.12963550837E+03  0.00000000000E+00 0.  1.
         21   -1    0    0  502  503 -0.00000000000E+00 -0.00000000000E+00 -0.57036363723E+03  0.57036363723E+03  0.00000000000E+00 0. -1.
         -6    2    1    2    0  503  0.20286830379E+03 -0.12517922051E+02 -0.15866855124E+03  0.31121509660E+03  0.17426095416E+03 0.  0.
        -24    2    3    3    0    0  0.17630148534E+03  0.11019363945E+02 -0.18431967272E+03  0.26717114460E+03  0.78759371783E+02 0.  0.
          6    2    1    2  501    0 -0.20286830379E+03  0.12517922051E+02 -0.28205957762E+03  0.38878404900E+03  0.17402064351E+03 0.  0.
         24    2    5    5    0    0 -0.70763690927E+02  0.62652658741E+02 -0.10616509385E+03  0.16311597419E+03  0.80018362166E+02 0.  0.
          5    1    5    5  501    0 -0.13210461287E+03 -0.50134736689E+02 -0.17589448377E+03  0.22566807480E+03  0.47000000000E+01 0. -1.
        -13    1    6    6    0    0 -0.18539239711E+02 -0.17755294154E+02 -0.36399794649E+02  0.44540980345E+02  0.00000000000E+00 0.  1.
         14    1    6    6    0    0 -0.52224451216E+02  0.80407952894E+02 -0.69765299201E+02  0.11857499385E+03  0.00000000000E+00 0. -1.
         -5    1    3    3    0  503  0.26566818452E+02 -0.23537285997E+02  0.25651121474E+02  0.44043951999E+02  0.47000000000E+01 0.  1.
         11    1    4    4    0    0  0.36564203249E+02 -0.14893358600E+02 -0.72832767092E+01  0.40147219196E+02  0.00000000000E+00 0. -1.
        -12    1    4    4    0    0  0.13973728209E+03  0.25912722545E+02 -0.17703639601E+03  0.22702392541E+03  0.00000000000E+00 0.  1.
<mgrwt>
<rscale>  2 0.26769048E+03</rscale>
<asrwt>0</asrwt>
<pdfrwt beam="1">  1       21 0.19943924E-01 0.26772958E+03</pdfrwt>
<pdfrwt beam="2">  1       21 0.87748252E-01 0.26772958E+03</pdfrwt>
<totfact> 0.24868431E+04</totfact>
</mgrwt>
</event>
<event>
12    1  0.1029207E-001  0.2031980E+03  0.7546771E-02  0.1149025E+00
         21   -1    0    0  503  502  0.00000000000E+00  0.00000000000E+00  0.62713442315E+03  0.62713442315E+03  0.00000000000E+00 0.  1.
         21   -1    0    0  501  503 -0.00000000000E+00 -0.00000000000E+00 -0.76942132661E+02  0.76942132661E+02  0.00000000000E+00 0.  1.
          6    2    1    2  501    0  0.32077463827E+02 -0.82503238531E+02  0.11940312156E+03  0.22776915981E+03  0.17258602686E+03 0.  0.
         24    2    3    3    0    0  0.84160040314E+02 -0.64526486591E+02  0.54034577100E+02  0.14214851400E+03  0.77716694816E+02 0.  0.
         -6    2    1    2    0  502 -0.32077463827E+02  0.82503238531E+02  0.43078916893E+03  0.47630739600E+03  0.18290347007E+03 0.  0.
        -24    2    5    5    0    0 -0.62095260014E+02  0.11823752530E+03  0.32208342613E+03  0.35791383260E+03  0.80800027654E+02 0.  0.
          5    1    3    3  501    0 -0.52082576487E+02 -0.17976751940E+02  0.65368544459E+02  0.85620645808E+02  0.47000000000E+01 0. -1.
        -11    1    4    4    0    0  0.40252071652E+02 -0.12657958231E+02 -0.15469933296E+02  0.44941873737E+02  0.00000000000E+00 0.  1.
         12    1    4    4    0    0  0.43907968663E+02 -0.51868528360E+02  0.69504510396E+02  0.97206640265E+02  0.00000000000E+00 0. -1.
         -5    1    5    5    0  502  0.30017796186E+02 -0.35734286769E+02  0.10870574280E+03  0.11839356341E+03  0.47000000000E+01 0.  1.
         11    1    6    6    0    0  0.17566798655E+02  0.25982800910E+02  0.97019740376E+02  0.10196336784E+03  0.00000000000E+00 0. -1.
        -12    1    6    6    0    0 -0.79662058669E+02  0.92254724390E+02  0.22506368576E+03  0.25595046476E+03  0.00000000000E+00 0.  1.
<mgrwt>
<rscale>  2 0.20084885E+03</rscale>
<asrwt>0</asrwt>
<pdfrwt beam="1">  1       21 0.96482216E-01 0.20319800E+03</pdfrwt>
<pdfrwt beam="2">  1       21 0.11837252E-01 0.20319800E+03</pdfrwt>
<totfact> 0.53433405E+04</totfact>
</mgrwt>
</event>
<event>
12    1  0.1029207E-001  0.2399666E+03  0.7546771E-02  0.1122602E+00
         21   -1    0    0  501  502  0.00000000000E+00  0.00000000000E+00  0.13828059873E+03  0.13828059873E+03  0.00000000000E+00 0. -1.
         21   -1    0    0  502  503 -0.00000000000E+00 -0.00000000000E+00 -0.44742190830E+03  0.44742190830E+03  0.00000000000E+00 0.  1.
         -6    2    1    2    0  503  0.61835070006E+02  0.13044032503E+03 -0.25573745879E+03  0.33986527222E+03  0.17108039384E+03 0.  0.
        -24    2    3    3    0    0  0.50554482993E+02  0.47753410210E+02 -0.50604715276E+02  0.11835701055E+03  0.81310520855E+02 0.  0.
          6    2    1    2  501    0 -0.61835070006E+02 -0.13044032503E+03 -0.53403850784E+02  0.24583723481E+03  0.19169173290E+03 0.  0.
         24    2    5    5    0    0 -0.19286385211E+02 -0.13197252389E+03 -0.98002982977E+02  0.18399945669E+03  0.80389698800E+02 0.  0.
          5    1    5    5  501    0 -0.42548684795E+02  0.15321988532E+01  0.44599132192E+02  0.61837778124E+02  0.47000000000E+01 0. -1.
        -11    1    6    6    0    0 -0.31555516580E+02 -0.47764571732E+02 -0.77703966574E+02  0.96514824565E+02  0.00000000000E+00 0.  1.
         12    1    6    6    0    0  0.12269131369E+02 -0.84207952155E+02 -0.20299016403E+02  0.87484632123E+02  0.00000000000E+00 0. -1.
         -5    1    3    3    0  503  0.11280587012E+02  0.82686914825E+02 -0.20513274351E+03  0.22150826167E+03  0.47000000000E+01 0.  1.
         11    1    4    4    0    0  0.11407429340E+02  0.57846507450E+02 -0.77918499019E+01  0.59473193905E+02  0.00000000000E+00 0. -1.
        -12    1    4    4    0    0  0.39147053653E+02 -0.10093097240E+02 -0.42812865374E+02  0.58883816649E+02  0.00000000000E+00 0.  1.
<mgrwt>
<rscale>  2 0.23583060E+03</rscale>
<asrwt>0</asrwt>
<pdfrwt beam="1">  1       21 0.21273938E-01 0.23996661E+03</pdfrwt>
<pdfrwt beam="2">  1       21 0.68834139E-01 0.23996661E+03</pdfrwt>
<totfact> 0.38630701E+04</totfact>
</mgrwt>
</event>
<event>
12    1  0.1029207E-001  0.1793836E+03  0.7546771E-02  0.1168640E+00
         21   -1    0    0  501  502  0.00000000000E+00  0.00000000000E+00  0.14848687247E+04  0.14848687247E+04  0.00000000000E+00 0.  1.
         21   -1    0    0  502  503 -0.00000000000E+00 -0.00000000000E+00 -0.31138996551E+02  0.31138996551E+02  0.00000000000E+00 0.  1.
         -6    2    1    2    0  503  0.48586953021E+02  0.40954778995E+00  0.30766462284E+03  0.35614040278E+03  0.17267775367E+03 0.  0.
        -24    2    3    3    0    0  0.20926408110E+02 -0.28192169966E+02  0.30315133367E+03  0.31582137771E+03  0.81300052325E+02 0.  0.
          6    2    1    2  501    0 -0.48586953021E+02 -0.40954778995E+00  0.11460651053E+04  0.11598673184E+04  0.17165695767E+03 0.  0.
         24    2    5    5    0    0  0.30751150986E+02 -0.28787127531E+02  0.48867856437E+03  0.49708607554E+03  0.80706227878E+02 0.  0.
          5    1    5    5  501    0 -0.79338104007E+02  0.28377579741E+02  0.65738654090E+03  0.66278124290E+03  0.47000000000E+01 0. -1.
        -13    1    6    6    0    0 -0.12195552818E+02  0.21325134862E+02  0.15627362724E+03  0.15819272884E+03  0.00000000000E+00 0.  1.
         14    1    6    6    0    0  0.42946703804E+02 -0.50112262393E+02  0.33240493713E+03  0.33889334670E+03  0.00000000000E+00 0. -1.
         -5    1    3    3    0  503  0.27660544911E+02  0.28601717755E+02  0.45132891670E+01  0.40319025068E+02  0.47000000000E+01 0.  1.
         13    1    4    4    0    0 -0.21781402412E+02  0.13957283580E+02  0.59323573734E+02  0.64718789053E+02  0.00000000000E+00 0. -1.
        -14    1    4    4    0    0  0.42707810523E+02 -0.42149453546E+02  0.24382775994E+03  0.25110258866E+03  0.00000000000E+00 0.  1.
<mgrwt>
<rscale>  2 0.17913746E+03</rscale>
<asrwt>0</asrwt>
<pdfrwt beam="1">  1       21 0.22844129E+00 0.17938357E+03</pdfrwt>
<pdfrwt beam="2">  1       21 0.47906160E-02 0.17938357E+03</pdfrwt>
<totfact> 0.26125049E+04</totfact>
</mgrwt>
</event>
<event>
12    1  0.1029207E-001  0.1828595E+03  0.7546771E-02  0.1167323E+00
         21   -1    0    0  501  502  0.00000000000E+00  0.00000000000E+00  0.37582982908E+02  0.37582982908E+02  0.00000000000E+00 0. -1.
         21   -1    0    0  502  503 -0.00000000000E+00 -0.00000000000E+00 -0.16542291057E+04  0.16542291057E+04  0.00000000000E+00 0. -1.
         -6    2    1    2    0  503 -0.81769011293E+01 -0.61892839597E+02 -0.14105366120E+04  0.14223400154E+04  0.17187204631E+03 0.  0.
        -24    2    3    3    0    0 -0.27456835797E+02  0.28540700561E+02 -0.75420751512E+03  0.75951280226E+03  0.80388254799E+02 0.  0.
          6    2    1    2  501    0  0.81769011293E+01  0.61892839597E+02 -0.20610951082E+03  0.26947207324E+03  0.16197679618E+03 0.  0.
         24    2    5    5    0    0  0.56264771040E+02  0.88103309987E+01 -0.88336785155E+02  0.13154926562E+03  0.79110525726E+02 0.  0.
          5    1    5    5  501    0 -0.48087869911E+02  0.53082508598E+02 -0.11777272567E+03  0.13792280762E+03  0.47000000000E+01 0. -1.
        -11    1    6    6    0    0  0.77122528270E+01 -0.19462993284E+02  0.59740788285E+01  0.21771002942E+02  0.00000000000E+00 0.  1.
         12    1    6    6    0    0  0.48552518213E+02  0.28273324283E+02 -0.94310863983E+02  0.10977826268E+03  0.00000000000E+00 0. -1.
         -5    1    3    3    0  503  0.19279934668E+02 -0.90433540158E+02 -0.65632909686E+03  0.66282721312E+03  0.47000000000E+01 0.  1.
         11    1    4    4    0    0  0.11949879334E+01 -0.26030078865E+02 -0.30239265692E+03  0.30351328135E+03  0.00000000000E+00 0. -1.
        -12    1    4    4    0    0 -0.28651823730E+02  0.54570779426E+02 -0.45181485820E+03  0.45599952090E+03  0.00000000000E+00 0.  1.
<mgrwt>
<rscale>  2 0.18049713E+03</rscale>
<asrwt>0</asrwt>
<pdfrwt beam="1">  1       21 0.57819972E-02 0.18285947E+03</pdfrwt>
<pdfrwt beam="2">  1       21 0.25449679E+00 0.18285947E+03</pdfrwt>
<totfact> 0.13267117E+04</totfact>
</mgrwt>
</event>
<event>
12    1  0.1029207E-001  0.1895471E+03  0.7546771E-02  0.1159180E+00
         21   -1    0    0  503  502  0.00000000000E+00  0.00000000000E+00  0.74111353924E+02  0.74111353924E+02  0.00000000000E+00 0.  1.
         21   -1    0    0  501  503 -0.00000000000E+00 -0.00000000000E+00 -0.88585590918E+03  0.88585590918E+03  0.00000000000E+00 0.  1.
          6    2    1    2  501    0  0.27861037936E+01 -0.72930331127E+02 -0.73103165714E+03  0.75520553121E+03  0.17493288729E+03 0.  0.
         24    2    3    3    0    0  0.38173833440E+02 -0.10172288166E+03 -0.62684918319E+03  0.64137504209E+03  0.81346542214E+02 0.  0.
         -6    2    1    2    0  502 -0.27861037936E+01  0.72930331127E+02 -0.80712898118E+02  0.20476173190E+03  0.17345373837E+03 0.  0.
        -24    2    5    5    0    0  0.17694040046E+02  0.20497297265E+02  0.15657176964E+02  0.93057028759E+02  0.87642713118E+02 0.  0.
          5    1    3    3  501    0 -0.35387729646E+02  0.28792550538E+02 -0.10418247394E+03  0.11383048912E+03  0.47000000000E+01 0. -1.
        -11    1    4    4    0    0 -0.19125781721E+02 -0.62503447837E+02 -0.34149029880E+03  0.34768966147E+03  0.00000000000E+00 0.  1.
         12    1    4    4    0    0  0.57299615161E+02 -0.39219433828E+02 -0.28535888440E+03  0.29368538062E+03  0.00000000000E+00 0. -1.
         -5    1    5    5    0  502 -0.20480143840E+02  0.52433033862E+02 -0.96370075082E+02  0.11170470314E+03  0.47000000000E+01 0.  1.
         11    1    6    6    0    0  0.35911528763E+02  0.29466130481E+01 -0.25921781027E+02  0.44387601402E+02  0.00000000000E+00 0. -1.
        -12    1    6    6    0    0 -0.18217488717E+02  0.17550684217E+02  0.41578957991E+02  0.48669427357E+02  0.00000000000E+00 0.  1.
<mgrwt>
<rscale>  2 0.18920513E+03</rscale>
<asrwt>0</asrwt>
<pdfrwt beam="1">  1       21 0.11401748E-01 0.18954712E+03</pdfrwt>
<pdfrwt beam="2">  1       21 0.13628551E+00 0.18954712E+03</pdfrwt>
<totfact> 0.24702553E+04</totfact>
</mgrwt>
</event>
<event>
12    1  0.1029207E-001  0.1885473E+03  0.7546771E-02  0.1160217E+00
         21   -1    0    0  501  502  0.00000000000E+00  0.00000000000E+00  0.26761689781E+03  0.26761689781E+03  0.00000000000E+00 0.  1.
         21   -1    0    0  502  503 -0.00000000000E+00 -0.00000000000E+00 -0.17264614764E+03  0.17264614764E+03  0.00000000000E+00 0. -1.
         -6    2    1    2    0  503 -0.59394567306E+02 -0.35975260391E+02 -0.59802792330E+02  0.19780410474E+03  0.17529448336E+03 0.  0.
        -24    2    3    3    0    0  0.85318006196E+01 -0.65301339069E+02 -0.51660460862E+02  0.12322261969E+03  0.90432042339E+02 0.  0.
          6    2    1    2  501    0  0.59394567306E+02  0.35975260391E+02  0.15477354250E+03  0.24245894071E+03  0.17323265999E+03 0.  0.
         24    2    5    5    0    0  0.35585487981E+01 -0.38674403891E+02  0.52160332166E+02  0.10374414599E+03  0.80831768441E+02 0.  0.
          5    1    5    5  501    0  0.55836018508E+02  0.74649664281E+02  0.10261321033E+03  0.13871479472E+03  0.47000000000E+01 0. -1.
        -11    1    6    6    0    0  0.12731228082E+02  0.10185012268E+02  0.51508113171E+02  0.54026885583E+02  0.00000000000E+00 0.  1.
         12    1    6    6    0    0 -0.91726792837E+01 -0.48859416159E+02  0.65221899578E+00  0.49717260406E+02  0.00000000000E+00 0. -1.
         -5    1    3    3    0  503 -0.67926367926E+02  0.29326078678E+02 -0.81423314683E+01  0.74581485048E+02  0.47000000000E+01 0.  1.
         13    1    4    4    0    0  0.29892667402E+02  0.11576445213E+02 -0.13649619132E+02  0.34841035442E+02  0.00000000000E+00 0. -1.
        -14    1    4    4    0    0 -0.21360866783E+02 -0.76877784282E+02 -0.38010841729E+02  0.88381584251E+02  0.00000000000E+00 0.  1.
<mgrwt>
<rscale>  2 0.18806664E+03</rscale>
<asrwt>0</asrwt>
<pdfrwt beam="1">  1       21 0.41171831E-01 0.18854731E+03</pdfrwt>
<pdfrwt beam="2">  1       21 0.26560946E-01 0.18854731E+03</pdfrwt>
<totfact> 0.76761259E+04</totfact>
</mgrwt>
</event>
<event>
12    1  0.1029207E-001  0.2110746E+03  0.7546771E-02  0.1141245E+00
         21   -1    0    0  503  502  0.00000000000E+00  0.00000000000E+00  0.60135754681E+03  0.60135754681E+03  0.00000000000E+00 0.  1.
         21   -1    0    0  501  503 -0.00000000000E+00 -0.00000000000E+00 -0.10380253220E+03  0.10380253220E+03  0.00000000000E+00 0.  1.
          6    2    1    2  501    0  0.11348561935E+03  0.22168742635E+02  0.56086288675E+02  0.21582672740E+03  0.17339280704E+03 0.  0.
         24    2    3    3    0    0  0.63700259889E+02  0.79184321751E+02  0.57920295924E+02  0.13996625112E+03  0.76862935491E+02 0.  0.
         -6    2    1    2    0  502 -0.11348561935E+03 -0.22168742635E+02  0.44146872594E+03  0.48933335161E+03  0.17658441059E+03 0.  0.
        -24    2    5    5    0    0 -0.65853958500E+02 -0.44120673534E+02  0.41586424888E+03  0.43078130953E+03  0.79662321472E+02 0.  0.
          5    1    3    3  501    0  0.49785359465E+02 -0.57015579116E+02 -0.18340072485E+01  0.75860476281E+02  0.47000000000E+01 0. -1.
        -11    1    4    4    0    0  0.23374968652E+02 -0.69545451242E+01 -0.63200239564E+01  0.25193204643E+02  0.00000000000E+00 0.  1.
         12    1    4    4    0    0  0.40325291237E+02  0.86138866875E+02  0.64240319880E+02  0.11477304648E+03  0.00000000000E+00 0. -1.
         -5    1    5    5    0  502 -0.47631660854E+02  0.21951930900E+02  0.25604477060E+02  0.58552042078E+02  0.47000000000E+01 0.  1.
         11    1    6    6    0    0 -0.20652904523E+02 -0.58022657770E+02  0.28647719312E+03  0.29302278659E+03  0.00000000000E+00 0. -1.
        -12    1    6    6    0    0 -0.45201053977E+02  0.13901984236E+02  0.12938705576E+03  0.13775852294E+03  0.00000000000E+00 0.  1.
<mgrwt>
<rscale>  2 0.21040575E+03</rscale>
<asrwt>0</asrwt>
<pdfrwt beam="1">  1       21 0.92516544E-01 0.21107461E+03</pdfrwt>
<pdfrwt beam="2">  1       21 0.15969621E-01 0.21107461E+03</pdfrwt>
<totfact> 0.34135297E+04</totfact>
</mgrwt>
</event>
<event>
12    1  0.1029207E-001  0.1816647E+03  0.7546771E-02  0.1166382E+00
         21   -1    0    0  503  502  0.00000000000E+00  0.00000000000E+00  0.34822334807E+02  0.34822334807E+02  0.00000000000E+00 0. -1.
         21   -1    0    0  501  503 -0.00000000000E+00 -0.00000000000E+00 -0.10014458360E+04  0.10014458360E+04  0.00000000000E+00 0. -1.
          6    2    1    2  501    0 -0.17027308243E+02 -0.47823615354E+02 -0.60855430406E+03  0.63509085199E+03  0.17442769811E+03 0.  0.
         24    2    3    3    0    0  0.26344336312E+02 -0.87050510729E+02 -0.44893482784E+03  0.46503110936E+03  0.80247352290E+02 0.  0.
         -6    2    1    2    0  502  0.17027308243E+02  0.47823615354E+02 -0.35806919716E+03  0.40117731885E+03  0.17364522394E+03 0.  0.
        -24    2    5    5    0    0 -0.26049015781E+02  0.34872664573E+00 -0.80007781004E+02  0.11578342280E+03  0.79535420668E+02 0.  0.
          5    1    3    3  501    0 -0.43371644555E+02  0.39226895376E+02 -0.15961947623E+03  0.17005974263E+03  0.47000000000E+01 0. -1.
        -11    1    4    4    0    0  0.40719878345E+02 -0.33697179675E+02 -0.11511672706E+03  0.12667071192E+03  0.00000000000E+00 0.  1.
         12    1    4    4    0    0 -0.14375542033E+02 -0.53353331055E+02 -0.33381810078E+03  0.33836039743E+03  0.00000000000E+00 0. -1.
         -5    1    5    5    0  502  0.43076324024E+02  0.47474888708E+02 -0.27806141616E+03  0.28539389605E+03  0.47000000000E+01 0.  1.
         11    1    6    6    0    0 -0.24554993539E+02  0.16236058602E+02  0.45025789538E+01  0.29779699862E+02  0.00000000000E+00 0. -1.
        -12    1    6    6    0    0 -0.14940222415E+01 -0.15887331956E+02 -0.84510359958E+02  0.86003722939E+02  0.00000000000E+00 0.  1.
<mgrwt>
<rscale>  2 0.18147658E+03</rscale>
<asrwt>0</asrwt>
<pdfrwt beam="1">  1       21 0.53572829E-02 0.18166466E+03</pdfrwt>
<pdfrwt beam="2">  1       21 0.15406857E+00 0.18166466E+03</pdfrwt>
<totfact> 0.67016743E+04</totfact>
</mgrwt>
</event>
<event>
12    1  0.1029207E-001  0.1991795E+03  0.7546771E-02  0.1153336E+00
         21   -1    0    0  503  502  0.00000000000E+00  0.00000000000E+00  0.24010442971E+03  0.24010442971E+03  0.00000000000E+00 0.  1.
         21   -1    0    0  501  503 -0.00000000000E+00 -0.00000000000E+00 -0.21683583041E+03  0.21683583041E+03  0.00000000000E+00 0.  1.
          6    2    1    2  501    0 -0.31076924854E+02 -0.68928486473E+02 -0.11113168514E+03  0.21665728568E+03  0.16992120671E+03 0.  0.
         24    2    3    3    0    0  0.35485101856E+02 -0.37102220094E+02 -0.10570291674E+03  0.14252917928E+03  0.80657877170E+02 0.  0.
         -6    2    1    2    0  502  0.31076924854E+02  0.68928486473E+02  0.13440028445E+03  0.24028297444E+03  0.18427034444E+03 0.  0.
        -24    2    5    5    0    0  0.37764158383E+02  0.84827683878E+01 -0.26942368561E+01  0.90231644229E+02  0.81464112897E+02 0.  0.
          5    1    3    3  501    0 -0.66562026709E+02 -0.31826266379E+02 -0.54287683985E+01  0.74128106394E+02  0.47000000000E+01 0. -1.
        -11    1    4    4    0    0 -0.24944703664E+02 -0.20807268462E+02 -0.43477608976E+02  0.54272305498E+02  0.00000000000E+00 0.  1.
         12    1    4    4    0    0  0.60429805519E+02 -0.16294951631E+02 -0.62225307767E+02  0.88256873786E+02  0.00000000000E+00 0. -1.
         -5    1    5    5    0  502 -0.66872335298E+01  0.60445718085E+02  0.13709452130E+03  0.15005133021E+03  0.47000000000E+01 0.  1.
         13    1    6    6    0    0 -0.11077166172E+02 -0.15169676556E+02  0.23408625234E+02  0.30013104347E+02  0.00000000000E+00 0. -1.
        -14    1    6    6    0    0  0.48841324556E+02  0.23652444944E+02 -0.26102862090E+02  0.60218539881E+02  0.00000000000E+00 0.  1.
<mgrwt>
<rscale>  2 0.19579540E+03</rscale>
<asrwt>0</asrwt>
<pdfrwt beam="1">  1       21 0.36939143E-01 0.19917950E+03</pdfrwt>
<pdfrwt beam="2">  1       21 0.33359359E-01 0.19917950E+03</pdfrwt>
<totfact> 0.60981299E+04</totfact>
</mgrwt>
</event>
<event>
12    1  0.1029207E-001  0.1995239E+03  0.7546771E-02  0.1150216E+00
         21   -1    0    0  503  502  0.00000000000E+00  0.00000000000E+00  0.26838660764E+03  0.26838660764E+03  0.00000000000E+00 0. -1.
         21   -1    0    0  501  503 -0.00000000000E+00 -0.00000000000E+00 -0.18292363859E+03  0.18292363859E+03  0.00000000000E+00 0. -1.
          6    2    1    2  501    0  0.29999641866E+02  0.94806005611E+02 -0.55741759529E+02  0.20716406248E+03  0.17297874961E+03 0.  0.
         24    2    3    3    0    0 -0.43809656364E+02  0.60981696320E+02 -0.58775815668E+02  0.12578106733E+03  0.82025771032E+02 0.  0.
         -6    2    1    2    0  502 -0.29999641866E+02 -0.94806005611E+02  0.14120472858E+03  0.24414618374E+03  0.17257006243E+03 0.  0.
        -24    2    5    5    0    0 -0.41644653671E+02 -0.92273357038E+02  0.16876499682E+03  0.21375409604E+03  0.83429849709E+02 0.  0.
          5    1    3    3  501    0  0.73809298230E+02  0.33824309291E+02  0.30340561389E+01  0.81382995158E+02  0.47000000000E+01 0. -1.
        -11    1    4    4    0    0  0.19893210878E+02  0.69896147481E+01  0.38076244375E+01  0.21426445278E+02  0.00000000000E+00 0.  1.
         12    1    4    4    0    0 -0.63702867242E+02  0.53992081572E+02 -0.62583440105E+02  0.10435462205E+03  0.00000000000E+00 0. -1.
         -5    1    5    5    0  502  0.11645011805E+02 -0.25326485728E+01 -0.27560268247E+02  0.30392087697E+02  0.47000000000E+01 0.  1.
         13    1    6    6    0    0 -0.36825191196E+00 -0.79408867587E+02  0.69677202414E+02  0.10564476512E+03  0.00000000000E+00 0. -1.
        -14    1    6    6    0    0 -0.41276401760E+02 -0.12864489451E+02  0.99087794411E+02  0.10810933092E+03  0.00000000000E+00 0.  1.
<mgrwt>
<rscale>  2 0.19943533E+03</rscale>
<asrwt>0</asrwt>
<pdfrwt beam="1">  1       21 0.41290247E-01 0.19952395E+03</pdfrwt>
<pdfrwt beam="2">  1       21 0.28142098E-01 0.19952395E+03</pdfrwt>
<totfact> 0.67937433E+04</totfact>
</mgrwt>
</event>
<event>
12    1  0.1029207E-001  0.2022142E+03  0.7546771E-02  0.1148223E+00
         21   -1    0    0  503  502  0.00000000000E+00  0.00000000000E+00  0.17057846608E+03  0.17057846608E+03  0.00000000000E+00 0. -1.
         21   -1    0    0  501  503 -0.00000000000E+00 -0.00000000000E+00 -0.71276714016E+03  0.71276714016E+03  0.00000000000E+00 0. -1.
          6    2    1    2  501    0  0.29754157947E+02 -0.97153819930E+02 -0.63200261851E+03  0.66356452069E+03  0.17483245887E+03 0.  0.
         24    2    3    3    0    0 -0.25989264403E+02 -0.10901374285E+03 -0.51626540287E+03  0.53447083382E+03  0.81053488547E+02 0.  0.
         -6    2    1    2    0  502 -0.29754157947E+02  0.97153819930E+02  0.89813944428E+02  0.21978108555E+03  0.17295376929E+03 0.  0.
        -24    2    5    5    0    0 -0.34648606729E+02 -0.42859036263E+01  0.78786233229E+02  0.11751831834E+03  0.79902375940E+02 0.  0.
          5    1    3    3  501    0  0.55743422350E+02  0.11859922916E+02 -0.11573721564E+03  0.12909368687E+03  0.47000000000E+01 0. -1.
        -11    1    4    4    0    0  0.25670854173E+02 -0.35411877741E+02 -0.11007857484E+03  0.11844951025E+03  0.00000000000E+00 0.  1.
         12    1    4    4    0    0 -0.51660118576E+02 -0.73601865105E+02 -0.40618682803E+03  0.41602132357E+03  0.00000000000E+00 0. -1.
         -5    1    5    5    0  502  0.48944487818E+01  0.10143972356E+03  0.11027711199E+02  0.10226276721E+03  0.47000000000E+01 0.  1.
         11    1    6    6    0    0  0.91734025283E+01  0.29796954526E+02  0.22403932419E+02  0.38392004387E+02  0.00000000000E+00 0. -1.
        -12    1    6    6    0    0 -0.43822009257E+02 -0.34082858153E+02  0.56382300810E+02  0.79126313953E+02  0.00000000000E+00 0.  1.
<mgrwt>
<rscale>  2 0.20180741E+03</rscale>
<asrwt>0</asrwt>
<pdfrwt beam="1">  1       21 0.26242840E-01 0.20221415E+03</pdfrwt>
<pdfrwt beam="2">  1       21 0.10965649E+00 0.20221415E+03</pdfrwt>
<totfact> 0.90208510E+03</totfact>
</mgrwt>
</event>
<event>
12    1  0.1029207E-001  0.1917100E+03  0.7546771E-02  0.1157994E+00
         21   -1    0    0  501  502  0.00000000000E+00  0.00000000000E+00  0.22509483117E+03  0.22509483117E+03  0.00000000000E+00 0.  1.
         21   -1    0    0  502  503 -0.00000000000E+00 -0.00000000000E+00 -0.20768191761E+03  0.20768191761E+03  0.00000000000E+00 0.  1.
         -6    2    1    2    0  503  0.65566529045E+01 -0.87456786399E+02 -0.95666956494E+02  0.21425424131E+03  0.17047297196E+03 0.  0.
        -24    2    3    3    0    0 -0.33304079658E+02 -0.10383658528E+03 -0.35390173971E+02  0.14000764998E+03  0.80364665597E+02 0.  0.
          6    2    1    2  501    0 -0.65566529045E+01  0.87456786399E+02  0.11307987005E+03  0.21852250747E+03  0.16514645040E+03 0.  0.
         24    2    5    5    0    0  0.51762004382E+02  0.85328922199E+02  0.72302258837E+02  0.14717478733E+03  0.80451670780E+02 0.  0.
          5    1    5    5  501    0 -0.58318657286E+02  0.21278642005E+01  0.40777611211E+02  0.71347720145E+02  0.47000000000E+01 0. -1.
        -13    1    6    6    0    0  0.26763977570E+02  0.96667162560E+02  0.51628594853E+02  0.11281118127E+03  0.00000000000E+00 0.  1.
         14    1    6    6    0    0  0.24998026812E+02 -0.11338240361E+02  0.20673663983E+02  0.34363606061E+02  0.00000000000E+00 0. -1.
         -5    1    3    3    0  503  0.39860732562E+02  0.16379798877E+02 -0.60276782523E+02  0.74246591322E+02  0.47000000000E+01 0.  1.
         13    1    4    4    0    0  0.26323434794E+02 -0.28023309777E+02 -0.43994876569E+01  0.38698638243E+02  0.00000000000E+00 0. -1.
        -14    1    4    4    0    0 -0.59627514452E+02 -0.75813275499E+02 -0.30990686314E+02  0.10130901174E+03  0.00000000000E+00 0.  1.
<mgrwt>
<rscale>  2 0.19051877E+03</rscale>
<asrwt>0</asrwt>
<pdfrwt beam="1">  1       21 0.34629974E-01 0.19170997E+03</pdfrwt>
<pdfrwt beam="2">  1       21 0.31951064E-01 0.19170997E+03</pdfrwt>
<totfact> 0.75746594E+04</totfact>
</mgrwt>
</event>
<event>
12    1  0.1029207E-001  0.1790390E+03  0.7546771E-02  0.1169467E+00
         21   -1    0    0  501  502  0.00000000000E+00  0.00000000000E+00  0.26675176463E+03  0.26675176463E+03  0.00000000000E+00 0.  1.
         21   -1    0    0  502  503 -0.00000000000E+00 -0.00000000000E+00 -0.13463156103E+03  0.13463156103E+03  0.00000000000E+00 0.  1.
         -6    2    1    2    0  503  0.25423216944E+02 -0.22529448895E+02  0.13669564805E+03  0.22525685985E+03  0.17578690704E+03 0.  0.
        -24    2    3    3    0    0  0.54971133467E+02 -0.55974423140E+02  0.14022019224E+03  0.18024399408E+03  0.81677619505E+02 0.  0.
          6    2    1    2  501    0 -0.25423216944E+02  0.22529448895E+02 -0.45754444455E+01  0.17612646581E+03  0.17275902651E+03 0.  0.
         24    2    5    5    0    0  0.45636628282E+02 -0.36758110603E+01 -0.28258261862E+02  0.96633176197E+02  0.80269720011E+02 0.  0.
          5    1    5    5  501    0 -0.71059845226E+02  0.26205259955E+02  0.23682817416E+02  0.79493289614E+02  0.47000000000E+01 0. -1.
        -11    1    6    6    0    0  0.50904427998E+01 -0.23093875788E+02  0.19787371177E+02  0.30834716877E+02  0.00000000000E+00 0.  1.
         12    1    6    6    0    0  0.40546185482E+02  0.19418064727E+02 -0.48045633038E+02  0.65798459320E+02  0.00000000000E+00 0. -1.
         -5    1    3    3    0  503 -0.29547916524E+02  0.33444974245E+02 -0.35245441968E+01  0.45012865771E+02  0.47000000000E+01 0.  1.
         11    1    4    4    0    0  0.59636120122E+02 -0.43863768149E+02  0.50557318528E+02  0.89646748051E+02  0.00000000000E+00 0. -1.
        -12    1    4    4    0    0 -0.46649866545E+01 -0.12110654992E+02  0.89662873717E+02  0.90597246028E+02  0.00000000000E+00 0.  1.
<mgrwt>
<rscale>  2 0.17829131E+03</rscale>
<asrwt>0</asrwt>
<pdfrwt beam="1">  1       21 0.41038733E-01 0.17903897E+03</pdfrwt>
<pdfrwt beam="2">  1       21 0.20712548E-01 0.17903897E+03</pdfrwt>
<totfact> 0.12422810E+05</totfact>
</mgrwt>
</event>
<event>
12    1  0.1029207E-001  0.2283621E+03  0.7546771E-02  0.1127926E+00
         21   -1    0    0  503  502  0.00000000000E+00  0.00000000000E+00  0.39089403848E+03  0.39089403848E+03  0.00000000000E+00 0. -1.
         21   -1    0    0  501  503 -0.00000000000E+00 -0.00000000000E+00 -0.13302727527E+03  0.13302727527E+03  0.00000000000E+00 0. -1.
          6    2    1    2  501    0 -0.14578571338E+03  0.29596250849E+02  0.13321130451E+03  0.26375168099E+03  0.17230869184E+03 0.  0.
         24    2    3    3    0    0 -0.34070753559E+02  0.32334722934E+02  0.11891182561E+03  0.15099399134E+03  0.80329400571E+02 0.  0.
         -6    2    1    2    0  502  0.14578571338E+03 -0.29596250849E+02  0.12465545869E+03  0.26016963276E+03  0.17326235060E+03 0.  0.
        -24    2    5    5    0    0  0.42221797657E+02  0.31008374626E+01  0.12082773156E+03  0.15139773510E+03  0.80806176060E+02 0.  0.
          5    1    3    3  501    0 -0.11171495983E+03 -0.27384720848E+01  0.14299478904E+02  0.11275768965E+03  0.47000000000E+01 0. -1.
        -11    1    4    4    0    0 -0.55945932425E+02  0.17306940409E+02  0.49492957674E+02  0.76674835510E+02  0.00000000000E+00 0.  1.
         12    1    4    4    0    0  0.21875178865E+02  0.15027782525E+02  0.69418867937E+02  0.74319155832E+02  0.00000000000E+00 0. -1.
         -5    1    5    5    0  502  0.10356391573E+03 -0.32697088312E+02  0.38277271333E+01  0.10877189766E+03  0.47000000000E+01 0.  1.
         11    1    6    6    0    0  0.34628464924E+02 -0.31976970734E+02  0.36063625905E+02  0.59348482321E+02  0.00000000000E+00 0. -1.
        -12    1    6    6    0    0  0.75933327329E+01  0.35077808197E+02  0.84764105654E+02  0.92049252780E+02  0.00000000000E+00 0.  1.
<mgrwt>
<rscale>  2 0.22818122E+03</rscale>
<asrwt>0</asrwt>
<pdfrwt beam="1">  1       21 0.60137544E-01 0.22836211E+03</pdfrwt>
<pdfrwt beam="2">  1       21 0.20465735E-01 0.22836211E+03</pdfrwt>
<totfact> 0.56091356E+04</totfact>
</mgrwt>
</event>
<event>
12    1  0.1029207E-001  0.1783225E+03  0.7546771E-02  0.1169894E+00
         21   -1    0    0  503  502  0.00000000000E+00  0.00000000000E+00  0.15641235002E+03  0.15641235002E+03  0.00000000000E+00 0.  1.
         21   -1    0    0  501  503 -0.00000000000E+00 -0.00000000000E+00 -0.44981930560E+03  0.44981930560E+03  0.00000000000E+00 0.  1.
          6    2    1    2  501    0 -0.76428196067E+01 -0.35377592204E+02 -0.37239960604E+03  0.41289268827E+03  0.17461076348E+03 0.  0.
         24    2    3    3    0    0  0.50686922585E+02 -0.43598986599E+02 -0.15361358779E+03  0.18626664843E+03  0.81413108340E+02 0.  0.
         -6    2    1    2    0  502  0.76428196067E+01  0.35377592204E+02  0.78992650458E+02  0.19333896735E+03  0.17271401433E+03 0.  0.
        -24    2    5    5    0    0 -0.53059101401E+02  0.39011087181E+02  0.77349628635E+01  0.99543053040E+02  0.74241878973E+02 0.  0.
          5    1    3    3  501    0 -0.58329742192E+02  0.82213943950E+01 -0.21878601825E+03  0.22662603984E+03  0.47000000000E+01 0. -1.
        -13    1    4    4    0    0 -0.22149888135E+02 -0.75067261065E+01 -0.43632755955E+02  0.49505412567E+02  0.00000000000E+00 0.  1.
         14    1    4    4    0    0  0.72836810720E+02 -0.36092260493E+02 -0.10998083183E+03  0.13676123586E+03  0.00000000000E+00 0. -1.
         -5    1    5    5    0  502  0.60701921007E+02 -0.36334949773E+01  0.71257687594E+02  0.93795914309E+02  0.47000000000E+01 0.  1.
         11    1    6    6    0    0 -0.37124048073E+02  0.42379424379E+02 -0.26024310149E+02  0.62060255194E+02  0.00000000000E+00 0. -1.
        -12    1    6    6    0    0 -0.15935053328E+02 -0.33683371977E+01  0.33759273012E+02  0.37482797846E+02  0.00000000000E+00 0.  1.
<mgrwt>
<rscale>  2 0.17785644E+03</rscale>
<asrwt>0</asrwt>
<pdfrwt beam="1">  1       21 0.24063439E-01 0.17832248E+03</pdfrwt>
<pdfrwt beam="2">  1       21 0.69202969E-01 0.17832248E+03</pdfrwt>
<totfact> 0.31196237E+04</totfact>
</mgrwt>
</event>
<event>
12    1  0.1029207E-001  0.2167801E+03  0.7546771E-02  0.1136939E+00
         21   -1    0    0  503  502  0.00000000000E+00  0.00000000000E+00  0.30162090441E+03  0.30162090441E+03  0.00000000000E+00 0. -1.
         21   -1    0    0  501  503 -0.00000000000E+00 -0.00000000000E+00 -0.32493194552E+03  0.32493194552E+03  0.00000000000E+00 0. -1.
          6    2    1    2  501    0  0.66897544985E+02 -0.11237237180E+03 -0.23928533355E+03  0.32287934819E+03  0.17288947673E+03 0.  0.
         24    2    3    3    0    0  0.42975594790E+02  0.59513547089E+01 -0.12743747711E+03  0.15824400281E+03  0.83177722276E+02 0.  0.
         -6    2    1    2    0  502 -0.66897544985E+02  0.11237237180E+03  0.21597429244E+03  0.30367350173E+03  0.16873016680E+03 0.  0.
        -24    2    5    5    0    0 -0.10825601476E+03  0.43445137484E+02  0.15050730425E+03  0.19989728483E+03  0.60824593247E+02 0.  0.
          5    1    3    3  501    0  0.23921950196E+02 -0.11832372651E+03 -0.11184785644E+03  0.16463534538E+03  0.47000000000E+01 0. -1.
        -11    1    4    4    0    0  0.26213010152E+02  0.29613312664E+02 -0.15278306661E+02  0.42396896615E+02  0.00000000000E+00 0.  1.
         12    1    4    4    0    0  0.16762584637E+02 -0.23661957955E+02 -0.11215917045E+03  0.11584710620E+03  0.00000000000E+00 0. -1.
         -5    1    5    5    0  502  0.41358469778E+02  0.68927234317E+02  0.65466988190E+02  0.10377621691E+03  0.47000000000E+01 0.  1.
         11    1    6    6    0    0 -0.67621641935E+02  0.45333639835E+02  0.13227352292E+03  0.15531938135E+03  0.00000000000E+00 0. -1.
        -12    1    6    6    0    0 -0.40634372828E+02 -0.18885023514E+01  0.18233781336E+02  0.44577903474E+02  0.00000000000E+00 0.  1.
<mgrwt>
<rscale>  2 0.21594971E+03</rscale>
<asrwt>0</asrwt>
<pdfrwt beam="1">  1       21 0.46403216E-01 0.21678008E+03</pdfrwt>
<pdfrwt beam="2">  1       21 0.49989530E-01 0.21678008E+03</pdfrwt>
<totfact> 0.16710936E+04</totfact>
</mgrwt>
</event>
<event>
12    1  0.1029207E-001  0.2098119E+03  0.7546771E-02  0.1142057E+00
         21   -1    0    0  503  502  0.00000000000E+00  0.00000000000E+00  0.36958622472E+03  0.36958622472E+03  0.00000000000E+00 0.  1.
         21   -1    0    0  501  503 -0.00000000000E+00 -0.00000000000E+00 -0.11884708323E+03  0.11884708323E+03  0.00000000000E+00 0. -1.
          6    2    1    2  501    0 -0.11461181532E+03 -0.27504399405E+02  0.14374081053E+03  0.25291327626E+03  0.17149736003E+03 0.  0.
         24    2    3    3    0    0 -0.13522436833E+03  0.86620117169E+01  0.80291131930E+02  0.17688145167E+03  0.80496719453E+02 0.  0.
         -6    2    1    2    0  502  0.11461181532E+03  0.27504399405E+02  0.10699833095E+03  0.23552003170E+03  0.17357615708E+03 0.  0.
        -24    2    5    5    0    0  0.12374084270E+03  0.16941726796E+02  0.23268597031E+02  0.15050434175E+03  0.80692694970E+02 0.  0.
          5    1    3    3  501    0  0.20612553011E+02 -0.36166411122E+02  0.63449678603E+02  0.76031824586E+02  0.47000000000E+01 0. -1.
        -13    1    4    4    0    0 -0.82197370828E+02  0.26196759117E+02  0.84644671098E+02  0.12086107026E+03  0.00000000000E+00 0.  1.
         14    1    4    4    0    0 -0.53026997499E+02 -0.17534747401E+02 -0.43535391684E+01  0.56020381412E+02  0.00000000000E+00 0. -1.
         -5    1    5    5    0  502 -0.91290273791E+01  0.10562672609E+02  0.83729733923E+02  0.85015689942E+02  0.47000000000E+01 0.  1.
         13    1    6    6    0    0  0.88259576486E+02  0.29856681112E+02 -0.17646132119E+02  0.94829110653E+02  0.00000000000E+00 0. -1.
        -14    1    6    6    0    0  0.35481266209E+02 -0.12914954316E+02  0.40914729150E+02  0.55675231102E+02  0.00000000000E+00 0.  1.
<mgrwt>
<rscale>  2 0.20938147E+03</rscale>
<asrwt>0</asrwt>
<pdfrwt beam="1">  1       21 0.56859419E-01 0.20981192E+03</pdfrwt>
<pdfrwt beam="2">  1       21 0.18284167E-01 0.20981192E+03</pdfrwt>
<totfact> 0.78692813E+04</totfact>
</mgrwt>
</event>
<event>
12    1  0.1029207E-001  0.1795184E+03  0.7546771E-02  0.1168352E+00
         21   -1    0    0  501  502  0.00000000000E+00  0.00000000000E+00  0.90326460600E+02  0.90326460600E+02  0.00000000000E+00 0.  1.
         21   -1    0    0  502  503 -0.00000000000E+00 -0.00000000000E+00 -0.47993350663E+03  0.47993350663E+03  0.00000000000E+00 0. -1.
         -6    2    1    2    0  503  0.43756585336E+02  0.23574567177E+02 -0.33976985675E+03  0.38427906532E+03  0.17250056669E+03 0.  0.
        -24    2    3    3    0    0  0.74483325484E+02  0.31312764261E+02 -0.33199858748E+03  0.35131704354E+03  0.81684441652E+02 0.  0.
          6    2    1    2  501    0 -0.43756585336E+02 -0.23574567177E+02 -0.49837189280E+02  0.18598090191E+03  0.17214747010E+03 0.  0.
         24    2    5    5    0    0  0.33767735333E+02  0.16001261202E+01 -0.58917522968E+02  0.10383269476E+03  0.78531099799E+02 0.  0.
          5    1    5    5  501    0 -0.77524320669E+02 -0.25174693297E+02  0.90803336879E+01  0.82148207148E+02  0.47000000000E+01 0. -1.
        -11    1    6    6    0    0  0.58685676096E+02 -0.66545720747E+01 -0.43907449824E+02  0.73594538238E+02  0.00000000000E+00 0.  1.
         12    1    6    6    0    0 -0.24917940763E+02  0.82546981949E+01 -0.15010073144E+02  0.30238156524E+02  0.00000000000E+00 0. -1.
         -5    1    3    3    0  503 -0.30726740148E+02 -0.77381970844E+01 -0.77712692719E+01  0.32962021788E+02  0.47000000000E+01 0.  1.
         13    1    4    4    0    0  0.19789789703E+02  0.22598566342E+02 -0.25335203894E+03  0.25512660898E+03  0.00000000000E+00 0. -1.
        -14    1    4    4    0    0  0.54693535781E+02  0.87141979189E+01 -0.78646548544E+02  0.96190434553E+02  0.00000000000E+00 0.  1.
<mgrwt>
<rscale>  2 0.17943349E+03</rscale>
<asrwt>0</asrwt>
<pdfrwt beam="1">  1       21 0.13896379E-01 0.17951837E+03</pdfrwt>
<pdfrwt beam="2">  1       21 0.73835924E-01 0.17951837E+03</pdfrwt>
<totfact> 0.74613500E+04</totfact>
</mgrwt>
</event>
<event>
12    1  0.1029207E-001  0.2948892E+03  0.7546771E-02  0.1088593E+00
         21   -1    0    0  503  502  0.00000000000E+00  0.00000000000E+00  0.73439686595E+02  0.73439686595E+02  0.00000000000E+00 0.  1.
         21   -1    0    0  501  503 -0.00000000000E+00 -0.00000000000E+00 -0.18491947662E+04  0.18491947662E+04  0.00000000000E+00 0.  1.
          6    2    1    2  501    0 -0.75473506665E+02  0.22499611418E+03 -0.29547158155E+03  0.41326408847E+03  0.16481580541E+03 0.  0.
         24    2    3    3    0    0  0.90389595596E+01  0.94530386262E+02 -0.84158204209E+02  0.15089203098E+03  0.81658465339E+02 0.  0.
         -6    2    1    2    0  502  0.75473506665E+02 -0.22499611418E+03 -0.14802834980E+04  0.15093703643E+04  0.17504331029E+03 0.  0.
        -24    2    5    5    0    0  0.83601329357E+01 -0.16866049816E+02 -0.39860307320E+03  0.40579573607E+03  0.73698127406E+02 0.  0.
          5    1    3    3  501    0 -0.84512466224E+02  0.13046572792E+03 -0.21131337734E+03  0.26237205749E+03  0.47000000000E+01 0. -1.
        -13    1    4    4    0    0  0.70082272412E+01  0.10804672022E+03 -0.61750751090E+02  0.12464495281E+03  0.00000000000E+00 0.  1.
         14    1    4    4    0    0  0.20307323184E+01 -0.13516333961E+02 -0.22407453120E+02  0.26247078176E+02  0.00000000000E+00 0. -1.
         -5    1    5    5    0  502  0.67113373729E+02 -0.20813006436E+03 -0.10816804248E+04  0.11035746282E+04  0.47000000000E+01 0.  1.
         11    1    6    6    0    0 -0.10140222528E+02 -0.42600286623E+02 -0.20607162281E+03  0.21067302215E+03  0.00000000000E+00 0. -1.
        -12    1    6    6    0    0  0.18500355463E+02  0.25734236807E+02 -0.19253145040E+03  0.19512271392E+03  0.00000000000E+00 0.  1.
<mgrwt>
<rscale>  2 0.29338941E+03</rscale>
<asrwt>0</asrwt>
<pdfrwt beam="1">  1       21 0.11298412E-01 0.29488924E+03</pdfrwt>
<pdfrwt beam="2">  1       21 0.28449154E+00 0.29488924E+03</pdfrwt>
<totfact> 0.24820444E+03</totfact>
</mgrwt>
</event>
<event>
12    1  0.1029207E-001  0.2097624E+03  0.7546771E-02  0.1141822E+00
         21   -1    0    0  503  502  0.00000000000E+00  0.00000000000E+00  0.20017682842E+03  0.20017682842E+03  0.00000000000E+00 0. -1.
         21   -1    0    0  501  503 -0.00000000000E+00 -0.00000000000E+00 -0.38664459660E+03  0.38664459660E+03  0.00000000000E+00 0.  1.
          6    2    1    2  501    0  0.32198318222E+02  0.11327577670E+03 -0.28621944472E+03  0.35485467841E+03  0.17358611400E+03 0.  0.
         24    2    3    3    0    0 -0.25801457846E+02  0.12269056979E+03 -0.22081742702E+03  0.26680851852E+03  0.81900905606E+02 0.  0.
         -6    2    1    2    0  502 -0.32198318222E+02 -0.11327577670E+03  0.99751676539E+02  0.23196674660E+03  0.17317633000E+03 0.  0.
        -24    2    5    5    0    0 -0.12208861588E+01 -0.13210801424E+03  0.11452638024E+03  0.19253786965E+03  0.80625811552E+02 0.  0.
          5    1    3    3  501    0  0.57999776068E+02 -0.94147930860E+01 -0.65402017700E+02  0.88046159893E+02  0.47000000000E+01 0. -1.
        -13    1    4    4    0    0 -0.43810131745E+02  0.36546755420E+02 -0.55873452746E+02  0.79855091866E+02  0.00000000000E+00 0.  1.
         14    1    4    4    0    0  0.18008673900E+02  0.86143814370E+02 -0.16494397427E+03  0.18695342666E+03  0.00000000000E+00 0. -1.
         -5    1    5    5    0  502 -0.30977432063E+02  0.18832237540E+02 -0.14774703702E+02  0.39428876949E+02  0.47000000000E+01 0.  1.
         13    1    6    6    0    0 -0.22034201763E+02 -0.10708266094E+02  0.44642447022E+02  0.50922697162E+02  0.00000000000E+00 0. -1.
        -14    1    6    6    0    0  0.20813315604E+02 -0.12139974815E+03  0.69883933219E+02  0.14161517249E+03  0.00000000000E+00 0.  1.
<mgrwt>
<rscale>  2 0.20967762E+03</rscale>
<asrwt>0</asrwt>
<pdfrwt beam="1">  1       21 0.30796435E-01 0.20976242E+03</pdfrwt>
<pdfrwt beam="2">  1       21 0.59483784E-01 0.20976242E+03</pdfrwt>
<totfact> 0.26470794E+04</totfact>
</mgrwt>
</event>
<event>
12    1  0.1029207E-001  0.2243212E+03  0.7546771E-02  0.1131067E+00
         21   -1    0    0  503  502  0.00000000000E+00  0.00000000000E+00  0.50161274631E+03  0.50161274631E+03  0.00000000000E+00 0.  1.
         21   -1    0    0  501  503 -0.00000000000E+00 -0.00000000000E+00 -0.11829902300E+03  0.11829902300E+03  0.00000000000E+00 0.  1.
          6    2    1    2  501    0 -0.11862910949E+03  0.79655837728E+02  0.68568592227E+02  0.23456693257E+03  0.17292216721E+03 0.  0.
         24    2    3    3    0    0 -0.89919499339E+02 -0.74043197341E+01  0.15474113640E+01  0.12091113018E+03  0.80478361115E+02 0.  0.
         -6    2    1    2    0  502  0.11862910949E+03 -0.79655837728E+02  0.31474513108E+03  0.38534483674E+03  0.17031801888E+03 0.  0.
        -24    2    5    5    0    0  0.11858599462E+03 -0.67774385099E+02  0.14429814231E+03  0.21441959941E+03  0.80608965621E+02 0.  0.
          5    1    3    3  501    0 -0.28709610152E+02  0.87060157462E+02  0.67021180863E+02  0.11365580239E+03  0.47000000000E+01 0. -1.
        -13    1    4    4    0    0 -0.75998880338E+02  0.13257859071E+02  0.30284437249E+02  0.82877908873E+02  0.00000000000E+00 0.  1.
         14    1    4    4    0    0 -0.13920619001E+02 -0.20662178805E+02 -0.28737025885E+02  0.38033221308E+02  0.00000000000E+00 0. -1.
         -5    1    5    5    0  502  0.43114868482E-01 -0.11881452629E+02  0.17044698877E+03  0.17092523733E+03  0.47000000000E+01 0.  1.
         11    1    6    6    0    0  0.49234938149E+02  0.11117266372E+02  0.67566608388E+02  0.84338124921E+02  0.00000000000E+00 0. -1.
        -12    1    6    6    0    0  0.69351056473E+02 -0.78891651472E+02  0.76731533926E+02  0.13008147449E+03  0.00000000000E+00 0.  1.
<mgrwt>
<rscale>  2 0.22381919E+03</rscale>
<asrwt>0</asrwt>
<pdfrwt beam="1">  1       21 0.77171191E-01 0.22432118E+03</pdfrwt>
<pdfrwt beam="2">  1       21 0.18199850E-01 0.22432118E+03</pdfrwt>
<totfact> 0.40379673E+04</totfact>
</mgrwt>
</event>
<event>
12    1  0.1029207E-001  0.1862758E+03  0.7546771E-02  0.1162659E+00
         21   -1    0    0  503  502  0.00000000000E+00  0.00000000000E+00  0.13138759425E+03  0.13138759425E+03  0.00000000000E+00 0.  1.
         21   -1    0    0  501  503 -0.00000000000E+00 -0.00000000000E+00 -0.25963630767E+03  0.25963630767E+03  0.00000000000E+00 0.  1.
          6    2    1    2  501    0  0.38011086996E+02 -0.56537752351E+02 -0.57601950518E+02  0.19497862514E+03  0.17337046860E+03 0.  0.
         24    2    3    3    0    0 -0.36734852903E+02 -0.53185553200E+02  0.79750000240E+00  0.99948216367E+02  0.76228980458E+02 0.  0.
         -6    2    1    2    0  502 -0.38011086996E+02  0.56537752351E+02 -0.70646762901E+02  0.19604527677E+03  0.16970982665E+03 0.  0.
        -24    2    5    5    0    0  0.93681758119E+01 -0.28419500858E+02 -0.32854152138E+02  0.91580446111E+02  0.80075914295E+02 0.  0.
          5    1    3    3  501    0  0.74745939899E+02 -0.33521991510E+01 -0.58399450520E+02  0.95030408773E+02  0.47000000000E+01 0. -1.
        -13    1    4    4    0    0  0.72675831110E+01 -0.22688986306E+02 -0.29902593466E+02  0.38233139550E+02  0.00000000000E+00 0.  1.
         14    1    4    4    0    0 -0.44002436014E+02 -0.30496566894E+02  0.30700093469E+02  0.61715076816E+02  0.00000000000E+00 0. -1.
         -5    1    5    5    0  502 -0.47379262808E+02  0.84957253209E+02 -0.37792610763E+02  0.10446483066E+03  0.47000000000E+01 0.  1.
         11    1    6    6    0    0  0.11558752974E+01 -0.16383537720E+02 -0.59220495385E+02  0.61455865705E+02  0.00000000000E+00 0. -1.
        -12    1    6    6    0    0  0.82123005144E+01 -0.12035963138E+02  0.26366343247E+02  0.30124580406E+02  0.00000000000E+00 0.  1.
<mgrwt>
<rscale>  2 0.18541940E+03</rscale>
<asrwt>0</asrwt>
<pdfrwt beam="1">  1       21 0.20213476E-01 0.18627582E+03</pdfrwt>
<pdfrwt beam="2">  1       21 0.39944047E-01 0.18627582E+03</pdfrwt>
<totfact> 0.13698695E+05</totfact>
</mgrwt>
</event>
<event>
12    1  0.1029207E-001  0.2393067E+03  0.7546771E-02  0.1120550E+00
         21   -1    0    0  501  502  0.00000000000E+00  0.00000000000E+00  0.50029188434E+03  0.50029188434E+03  0.00000000000E+00 0. -1.
         21   -1    0    0  502  503 -0.00000000000E+00 -0.00000000000E+00 -0.40567609606E+03  0.40567609606E+03  0.00000000000E+00 0.  1.
         -6    2    1    2    0  503 -0.15575379711E+03  0.47230832470E+02 -0.33708247974E+03  0.41237797293E+03  0.17303467155E+03 0.  0.
        -24    2    3    3    0    0 -0.16200900041E+03  0.79179651025E+02 -0.31035278262E+03  0.36999376262E+03  0.89778624114E+02 0.  0.
          6    2    1    2  501    0  0.15575379711E+03 -0.47230832470E+02  0.43169826802E+03  0.49359000747E+03  0.17543575465E+03 0.  0.
         24    2    5    5    0    0  0.48151346471E+02 -0.57483437949E+01  0.31184576587E+03  0.32719951338E+03  0.86372126547E+02 0.  0.
          5    1    5    5  501    0  0.10760245064E+03 -0.41482488675E+02  0.11985250215E+03  0.16639049409E+03  0.47000000000E+01 0. -1.
        -11    1    6    6    0    0 -0.17552205245E+02  0.18127521522E+02  0.47736801765E+02  0.53995270054E+02  0.00000000000E+00 0.  1.
         12    1    6    6    0    0  0.65703551716E+02 -0.23875865317E+02  0.26410896410E+03  0.27320424333E+03  0.00000000000E+00 0. -1.
         -5    1    3    3    0  503  0.62552032982E+01 -0.31948818556E+02 -0.26729697127E+02  0.42384210313E+02  0.47000000000E+01 0.  1.
         11    1    4    4    0    0 -0.59584107378E+02  0.27599373157E+02 -0.20130567148E+03  0.21174504627E+03  0.00000000000E+00 0. -1.
        -12    1    4    4    0    0 -0.10242489303E+03  0.51580277869E+02 -0.10904711113E+03  0.15824871634E+03  0.00000000000E+00 0.  1.
<mgrwt>
<rscale>  2 0.23886684E+03</rscale>
<asrwt>0</asrwt>
<pdfrwt beam="1">  1       21 0.76967982E-01 0.23930671E+03</pdfrwt>
<pdfrwt beam="2">  1       21 0.62411707E-01 0.23930671E+03</pdfrwt>
<totfact> 0.34460812E+03</totfact>
</mgrwt>
</event>
<event>
11    1  0.1029207E-001  0.1917366E+03  0.7546771E-02  0.1157645E+00
         21   -1    0    0  501  502  0.00000000000E+00  0.00000000000E+00  0.40006316509E+03  0.40006316509E+03  0.00000000000E+00 0. -1.
         21   -1    0    0  502  503 -0.00000000000E+00 -0.00000000000E+00 -0.20862201641E+03  0.20862201641E+03  0.00000000000E+00 0. -1.
         -6    2    1    2    0  503  0.49669440221E+02  0.56661071886E+02 -0.13309664707E+03  0.23340447940E+03  0.17631053055E+03 0.  0.
          6    2    1    2  501    0 -0.49669440221E+02 -0.56661071886E+02  0.32453779575E+03  0.37528070210E+03  0.17272317197E+03 0.  0.
         24    2    4    4    0    0 -0.90364771137E+02 -0.78637959666E+01  0.25347798976E+03  0.27984030120E+03  0.76366692574E+02 0.  0.
          5    1    4    4  501    0  0.40695330916E+02 -0.48797275919E+02  0.71059805995E+02  0.95440400898E+02  0.47000000000E+01 0. -1.
        -13    1    5    5    0    0 -0.66889697130E+01  0.20992432540E+02  0.18584232209E+02  0.28823570677E+02  0.00000000000E+00 0.  1.
         14    1    5    5    0    0 -0.83675801424E+02 -0.28856228506E+02  0.23489375755E+03  0.25101673052E+03  0.00000000000E+00 0. -1.
         -5    1    3    3    0  503  0.38068544135E+02  0.40841468908E+02  0.29620742043E+02  0.63377582743E+02  0.47000000000E+01 0.  1.
         11    1    3    3    0    0 -0.33102008347E+01  0.20360306795E+02 -0.30059750475E+02  0.36456660859E+02  0.00000000000E+00 0. -1.
        -12    1    3    3    0    0  0.14911096921E+02 -0.45407038175E+01 -0.13265763864E+03  0.13357023580E+03  0.00000000000E+00 0.  1.
<mgrwt>
<rscale>  2 0.19090790E+03</rscale>
<asrwt>0</asrwt>
<pdfrwt beam="1">  1       21 0.61548179E-01 0.19173663E+03</pdfrwt>
<pdfrwt beam="2">  1       21 0.32095695E-01 0.19173663E+03</pdfrwt>
<totfact> 0.22917520E+04</totfact>
</mgrwt>
</event>
<event>
12    1  0.1029207E-001  0.1893464E+03  0.7546771E-02  0.1160040E+00
         21   -1    0    0  501  502  0.00000000000E+00  0.00000000000E+00  0.19510437791E+03  0.19510437791E+03  0.00000000000E+00 0. -1.
         21   -1    0    0  502  503 -0.00000000000E+00 -0.00000000000E+00 -0.18047529391E+03  0.18047529391E+03  0.00000000000E+00 0. -1.
         -6    2    1    2    0  503  0.43185725911E+02  0.71985894576E+02  0.20284974401E+02  0.18614877897E+03  0.16490273431E+03 0.  0.
        -24    2    3    3    0    0  0.61429748121E+02  0.76268678671E+02  0.64415457480E+02  0.13797434464E+03  0.72780789468E+02 0.  0.
          6    2    1    2  501    0 -0.43185725911E+02 -0.71985894576E+02 -0.56558904031E+01  0.18943089285E+03  0.16972064733E+03 0.  0.
         24    2    5    5    0    0  0.17768253947E+02 -0.11170211924E+02 -0.43431065698E+02  0.95287444932E+02  0.82176366501E+02 0.  0.
          5    1    5    5  501    0 -0.60953979858E+02 -0.60815682652E+02  0.37775175295E+02  0.94143447916E+02  0.47000000000E+01 0. -1.
        -11    1    6    6    0    0  0.11490057839E+01  0.32344659368E+02 -0.35495713136E+02  0.48035849685E+02  0.00000000000E+00 0.  1.
         12    1    6    6    0    0  0.16619248164E+02 -0.43514871293E+02 -0.79353525615E+01  0.47251595247E+02  0.00000000000E+00 0. -1.
         -5    1    3    3    0  503 -0.18244022210E+02 -0.42827840953E+01 -0.44130483079E+02  0.48174434328E+02  0.47000000000E+01 0.  1.
         13    1    4    4    0    0  0.93142084026E+01  0.68539451135E+02  0.40048341450E+02  0.79926719519E+02  0.00000000000E+00 0. -1.
        -14    1    4    4    0    0  0.52115539718E+02  0.77292275361E+01  0.24367116030E+02  0.58047625120E+02  0.00000000000E+00 0.  1.
<mgrwt>
<rscale>  2 0.18826058E+03</rscale>
<asrwt>0</asrwt>
<pdfrwt beam="1">  1       21 0.30016058E-01 0.18934644E+03</pdfrwt>
<pdfrwt beam="2">  1       21 0.27765430E-01 0.18934644E+03</pdfrwt>
<totfact> 0.13197089E+05</totfact>
</mgrwt>
</event>
<event>
12    1  0.1029207E-001  0.2184582E+03  0.7546771E-02  0.1135398E+00
         21   -1    0    0  503  502  0.00000000000E+00  0.00000000000E+00  0.11579843246E+04  0.11579843246E+04  0.00000000000E+00 0. -1.
         21   -1    0    0  501  503 -0.00000000000E+00 -0.00000000000E+00 -0.43240859672E+02  0.43240859672E+02  0.00000000000E+00 0. -1.
          6    2    1    2  501    0 -0.90052256986E+02 -0.96315053834E+02  0.69616069327E+03  0.72906470191E+03  0.17178367248E+03 0.  0.
         24    2    3    3    0    0 -0.77018459503E+02 -0.11745630388E+02  0.53775812484E+03  0.54896658713E+03  0.78171030599E+02 0.  0.
         -6    2    1    2    0  502  0.90052256986E+02  0.96315053834E+02  0.41858277170E+03  0.47216048241E+03  0.17417802903E+03 0.  0.
        -24    2    5    5    0    0  0.10320913287E+03  0.53764589739E+02  0.17736283126E+03  0.22681828252E+03  0.80288250423E+02 0.  0.
          5    1    3    3  501    0 -0.13033797484E+02 -0.84569423446E+02  0.15840256843E+03  0.18009811477E+03  0.47000000000E+01 0. -1.
        -11    1    4    4    0    0 -0.94006166994E+01  0.12807454772E+02  0.17018697122E+02  0.23281721238E+02  0.00000000000E+00 0.  1.
         12    1    4    4    0    0 -0.67617842803E+02 -0.24553085160E+02  0.52073942771E+03  0.52568486590E+03  0.00000000000E+00 0. -1.
         -5    1    5    5    0  502 -0.13156875882E+02  0.42550464095E+02  0.24121994045E+03  0.24534219989E+03  0.47000000000E+01 0.  1.
         11    1    6    6    0    0  0.10219547470E+03  0.55539884539E+02  0.11215250676E+03  0.16157592208E+03  0.00000000000E+00 0. -1.
        -12    1    6    6    0    0  0.10136581673E+01 -0.17752947994E+01  0.65210324495E+02  0.65242360436E+02  0.00000000000E+00 0.  1.
<mgrwt>
<rscale>  2 0.21798058E+03</rscale>
<asrwt>0</asrwt>
<pdfrwt beam="1">  1       21 0.17815141E+00 0.21845820E+03</pdfrwt>
<pdfrwt beam="2">  1       21 0.66524408E-02 0.21845820E+03</pdfrwt>
<totfact> 0.30421846E+04</totfact>
</mgrwt>
</event>
<event>
12    1  0.1029207E-001  0.1878633E+03  0.7546771E-02  0.1161147E+00
         21   -1    0    0  501  502  0.00000000000E+00  0.00000000000E+00  0.26269658228E+03  0.26269658228E+03  0.00000000000E+00 0. -1.
         21   -1    0    0  502  503 -0.00000000000E+00 -0.00000000000E+00 -0.30595477297E+03  0.30595477297E+03  0.00000000000E+00 0.  1.
         -6    2    1    2    0  503 -0.61231141964E+02  0.45699406594E+02 -0.23590196614E+03  0.29957099317E+03  0.16809328901E+03 0.  0.
        -24    2    3    3    0    0 -0.70260702950E+02  0.84586915053E+02 -0.21148831625E+03  0.25254028420E+03  0.83413276236E+02 0.  0.
          6    2    1    2  501    0  0.61231141964E+02 -0.45699406594E+02  0.19264377545E+03  0.26908036208E+03  0.17162438209E+03 0.  0.
         24    2    5    5    0    0  0.88830480784E+02 -0.78422036290E+02  0.13515519068E+03  0.19725055366E+03  0.81240293333E+02 0.  0.
          5    1    5    5  501    0 -0.27599338821E+02  0.32722629697E+02  0.57488584777E+02  0.71829808417E+02  0.47000000000E+01 0. -1.
        -11    1    6    6    0    0  0.70014700566E+01  0.13119399206E+02  0.30173409093E+00  0.14873811278E+02  0.00000000000E+00 0.  1.
         12    1    6    6    0    0  0.81829010728E+02 -0.91541435496E+02  0.13485345658E+03  0.18237674238E+03  0.00000000000E+00 0. -1.
         -5    1    3    3    0  503  0.90295609867E+01 -0.38887508459E+02 -0.24413649886E+02  0.47030708973E+02  0.47000000000E+01 0.  1.
         13    1    4    4    0    0 -0.35010760059E+02 -0.10147284555E+02 -0.65775262488E+02  0.75200437892E+02  0.00000000000E+00 0. -1.
        -14    1    4    4    0    0 -0.35249942891E+02  0.94734199608E+02 -0.14571305377E+03  0.17733984630E+03  0.00000000000E+00 0.  1.
<mgrwt>
<rscale>  2 0.18705300E+03</rscale>
<asrwt>0</asrwt>
<pdfrwt beam="1">  1       21 0.40414859E-01 0.18786329E+03</pdfrwt>
<pdfrwt beam="2">  1       21 0.47069965E-01 0.18786329E+03</pdfrwt>
<totfact> 0.25548694E+04</totfact>
</mgrwt>
</event>
<event>
12    1  0.1029207E-001  0.1826603E+03  0.7546771E-02  0.1166371E+00
         21   -1    0    0  501  502  0.00000000000E+00  0.00000000000E+00  0.49215018510E+03  0.49215018510E+03  0.00000000000E+00 0. -1.
         21   -1    0    0  502  503 -0.00000000000E+00 -0.00000000000E+00 -0.85016375405E+02  0.85016375405E+02  0.00000000000E+00 0. -1.
         -6    2    1    2    0  503  0.47328090181E+02 -0.29528056148E+02  0.69418961735E+02  0.19540666418E+03  0.17393365959E+03 0.  0.
        -24    2    3    3    0    0  0.63923038121E+02 -0.11894111697E+00 -0.14208903490E+02  0.10509609899E+03  0.82201752621E+02 0.  0.
          6    2    1    2  501    0 -0.47328090181E+02  0.29528056148E+02  0.33771484796E+03  0.38175989632E+03  0.16904864888E+03 0.  0.
         24    2    5    5    0    0 -0.30212554826E+02  0.43049809491E+01  0.72678985704E+02  0.11493552833E+03  0.83645737365E+02 0.  0.
          5    1    5    5  501    0 -0.17115535355E+02  0.25223075199E+02  0.26503586226E+03  0.26682436799E+03  0.47000000000E+01 0. -1.
        -13    1    6    6    0    0 -0.52906299487E+02  0.71243120157E+01  0.19129930061E+02  0.56707905721E+02  0.00000000000E+00 0.  1.
         14    1    6    6    0    0  0.22693744661E+02 -0.28193310666E+01  0.53549055643E+02  0.58227622608E+02  0.00000000000E+00 0. -1.
         -5    1    3    3    0  503 -0.16594947940E+02 -0.29409115031E+02  0.83627865225E+02  0.90310565197E+02  0.47000000000E+01 0.  1.
         11    1    4    4    0    0 -0.15280631843E+02  0.10483707232E+02 -0.16985233503E+02  0.25137700452E+02  0.00000000000E+00 0. -1.
        -12    1    4    4    0    0  0.79203669964E+02 -0.10602648349E+02  0.27763300131E+01  0.79958398534E+02  0.00000000000E+00 0.  1.
<mgrwt>
<rscale>  2 0.18148768E+03</rscale>
<asrwt>0</asrwt>
<pdfrwt beam="1">  1       21 0.75715411E-01 0.18266026E+03</pdfrwt>
<pdfrwt beam="2">  1       21 0.13079443E-01 0.18266026E+03</pdfrwt>
<totfact> 0.78587165E+04</totfact>
</mgrwt>
</event>
<event>
12    1  0.1029207E-001  0.2289102E+03  0.7546771E-02  0.1127466E+00
         21   -1    0    0  503  502  0.00000000000E+00  0.00000000000E+00  0.14699076539E+03  0.14699076539E+03  0.00000000000E+00 0.  1.
         21   -1    0    0  501  503 -0.00000000000E+00 -0.00000000000E+00 -0.36452472043E+03  0.36452472043E+03  0.00000000000E+00 0.  1.
          6    2    1    2  501    0  0.14776042478E+03  0.26869449872E+02 -0.14798071169E+03  0.27257693588E+03  0.17275643106E+03 0.  0.
         24    2    3    3    0    0  0.92606401613E+02 -0.50664273334E+02 -0.99470255334E+02  0.16567137530E+03  0.80061593081E+02 0.  0.
         -6    2    1    2    0  502 -0.14776042478E+03 -0.26869449872E+02 -0.69553243343E+02  0.23893854994E+03  0.17233359080E+03 0.  0.
        -24    2    5    5    0    0 -0.15385519033E+03 -0.30000890563E+02 -0.10367372077E+03  0.20382090384E+03  0.78887561985E+02 0.  0.
          5    1    3    3  501    0  0.55154023170E+02  0.77533723206E+02 -0.48510456358E+02  0.10690556058E+03  0.47000000000E+01 0. -1.
        -11    1    4    4    0    0  0.64456247368E+02 -0.15670144963E+02 -0.10088349022E+03  0.12073789739E+03  0.00000000000E+00 0.  1.
         12    1    4    4    0    0  0.28150154245E+02 -0.34994128370E+02  0.14132348843E+01  0.44933477912E+02  0.00000000000E+00 0. -1.
         -5    1    5    5    0  502  0.60947655474E+01  0.31314406909E+01  0.34120477429E+02  0.35117646104E+02  0.47000000000E+01 0.  1.
         13    1    6    6    0    0 -0.22713244765E+02  0.24638149052E+01 -0.56125490540E+02  0.60597298290E+02  0.00000000000E+00 0. -1.
        -14    1    6    6    0    0 -0.13114194556E+03 -0.32464705468E+02 -0.47548230232E+02  0.14322360555E+03  0.00000000000E+00 0.  1.
<mgrwt>
<rscale>  2 0.22883046E+03</rscale>
<asrwt>0</asrwt>
<pdfrwt beam="1">  1       21 0.22613964E-01 0.22891023E+03</pdfrwt>
<pdfrwt beam="2">  1       21 0.56080725E-01 0.22891023E+03</pdfrwt>
<totfact> 0.53948589E+04</totfact>
</mgrwt>
</event>
<event>
12    1  0.1029207E-001  0.2463169E+03  0.7546771E-02  0.1115858E+00
         21   -1    0    0  501  502  0.00000000000E+00  0.00000000000E+00  0.13728033442E+04  0.13728033442E+04  0.00000000000E+00 0. -1.
         21   -1    0    0  502  503 -0.00000000000E+00 -0.00000000000E+00 -0.45983433364E+02  0.45983433364E+02  0.00000000000E+00 0.  1.
         -6    2    1    2    0  503  0.16061494526E+03  0.70055216565E+02  0.81020730766E+03  0.84645768897E+03  0.17131796117E+03 0.  0.
        -24    2    3    3    0    0  0.19950836934E+02  0.65420779310E+02  0.35793393558E+03  0.37276880112E+03  0.78498169327E+02 0.  0.
          6    2    1    2  501    0 -0.16061494526E+03 -0.70055216565E+02  0.51661260321E+03  0.57232908863E+03  0.17311010914E+03 0.  0.
         24    2    5    5    0    0 -0.16962732546E+03 -0.91941283146E+02  0.38005226699E+03  0.43365306931E+03  0.79928904559E+02 0.  0.
          5    1    5    5  501    0  0.90123801979E+01  0.21886066581E+02  0.13656033621E+03  0.13867601932E+03  0.47000000000E+01 0. -1.
        -11    1    6    6    0    0 -0.10350165282E+03 -0.17477216990E+02  0.15111747443E+03  0.18399602259E+03  0.00000000000E+00 0.  1.
         12    1    6    6    0    0 -0.66125672638E+02 -0.74464066155E+02  0.22893479256E+03  0.24965704672E+03  0.00000000000E+00 0. -1.
         -5    1    3    3    0  503  0.14066410833E+03  0.46344372544E+01  0.45227337208E+03  0.47368888785E+03  0.47000000000E+01 0.  1.
         11    1    4    4    0    0  0.17175727554E+02 -0.55782465049E+01  0.18396522305E+03  0.18484946779E+03  0.00000000000E+00 0. -1.
        -12    1    4    4    0    0  0.27751093804E+01  0.70999025815E+02  0.17396871253E+03  0.18791933333E+03  0.00000000000E+00 0.  1.
<mgrwt>
<rscale>  2 0.24600223E+03</rscale>
<asrwt>0</asrwt>
<pdfrwt beam="1">  1       21 0.21120048E+00 0.24631688E+03</pdfrwt>
<pdfrwt beam="2">  1       21 0.70743754E-02 0.24631688E+03</pdfrwt>
<totfact> 0.16286551E+04</totfact>
</mgrwt>
</event>
<event>
12    1  0.1029207E-001  0.1968421E+03  0.7546771E-02  0.1152505E+00
         21   -1    0    0  501  502  0.00000000000E+00  0.00000000000E+00  0.29521126253E+03  0.29521126253E+03  0.00000000000E+00 0.  1.
         21   -1    0    0  502  503 -0.00000000000E+00 -0.00000000000E+00 -0.24793687278E+03  0.24793687278E+03  0.00000000000E+00 0.  1.
         -6    2    1    2    0  503 -0.86203142364E+02 -0.30638315973E+02 -0.16286199732E+03  0.25521739880E+03  0.17390285310E+03 0.  0.
        -24    2    3    3    0    0 -0.66439875849E+02 -0.65441967241E+02 -0.47272247475E+02  0.13280432305E+03  0.81886596334E+02 0.  0.
          6    2    1    2  501    0  0.86203142364E+02  0.30638315973E+02  0.21013638708E+03  0.28793073651E+03  0.17429033161E+03 0.  0.
         24    2    5    5    0    0  0.10139313710E+03 -0.99121747086E+01  0.20817983263E+03  0.24433031977E+03  0.77328151323E+02 0.  0.
          5    1    5    5  501    0 -0.15189994733E+02  0.40550490682E+02  0.19565544523E+01  0.43600416740E+02  0.47000000000E+01 0. -1.
        -13    1    6    6    0    0  0.25702453611E+02  0.20782475017E+02  0.11853009258E+03  0.12305246944E+03  0.00000000000E+00 0.  1.
         14    1    6    6    0    0  0.75690683486E+02 -0.30694649725E+02  0.89649740048E+02  0.12127785032E+03  0.00000000000E+00 0. -1.
         -5    1    3    3    0  503 -0.19763266515E+02  0.34803651268E+02 -0.11558974985E+03  0.12241307575E+03  0.47000000000E+01 0.  1.
         13    1    4    4    0    0 -0.20532223092E+02 -0.65864255073E+02 -0.52365544522E+02  0.86613062147E+02  0.00000000000E+00 0. -1.
        -14    1    4    4    0    0 -0.45907652756E+02  0.42228783158E+00  0.50932970474E+01  0.46191260899E+02  0.00000000000E+00 0.  1.
<mgrwt>
<rscale>  2 0.19675628E+03</rscale>
<asrwt>0</asrwt>
<pdfrwt beam="1">  1       21 0.45417117E-01 0.19684209E+03</pdfrwt>
<pdfrwt beam="2">  1       21 0.38144134E-01 0.19684209E+03</pdfrwt>
<totfact> 0.30748137E+04</totfact>
</mgrwt>
</event>
<event>
12    1  0.1029207E-001  0.1901848E+03  0.7546771E-02  0.1158386E+00
         21   -1    0    0  503  502  0.00000000000E+00  0.00000000000E+00  0.52023308202E+02  0.52023308202E+02  0.00000000000E+00 0. -1.
         21   -1    0    0  501  503 -0.00000000000E+00 -0.00000000000E+00 -0.73187277995E+03  0.73187277995E+03  0.00000000000E+00 0.  1.
          6    2    1    2  501    0 -0.70995631769E+02 -0.33400184912E+02 -0.25086486520E+03  0.31480698280E+03  0.17324636719E+03 0.  0.
         24    2    3    3    0    0  0.18734950291E+02  0.11426111497E+02 -0.15725712619E+03  0.17752816794E+03  0.79403351863E+02 0.  0.
         -6    2    1    2    0  502  0.70995631769E+02  0.33400184912E+02 -0.42898460655E+03  0.46908910536E+03  0.17280290514E+03 0.  0.
        -24    2    5    5    0    0  0.34932542823E+02 -0.46478061493E+02 -0.26701272552E+03  0.28486624880E+03  0.80451795312E+02 0.  0.
          5    1    3    3  501    0 -0.89730582060E+02 -0.44826296409E+02 -0.93607739008E+02  0.13727881486E+03  0.47000000000E+01 0. -1.
        -13    1    4    4    0    0 -0.23359654932E+01 -0.28272153288E+02 -0.10420693123E+03  0.10799933288E+03  0.00000000000E+00 0.  1.
         14    1    4    4    0    0  0.21070915784E+02  0.39698264784E+02 -0.53050194959E+02  0.69528835055E+02  0.00000000000E+00 0. -1.
         -5    1    5    5    0  502  0.36063088946E+02  0.79878246405E+02 -0.16197188102E+03  0.18422285655E+03  0.47000000000E+01 0.  1.
         13    1    6    6    0    0  0.37764298684E+02 -0.25475679055E+02 -0.53338990180E+02  0.70144139825E+02  0.00000000000E+00 0. -1.
        -14    1    6    6    0    0 -0.28317558615E+01 -0.21002382438E+02 -0.21367373534E+03  0.21472210898E+03  0.00000000000E+00 0.  1.
<mgrwt>
<rscale>  2 0.19008374E+03</rscale>
<asrwt>0</asrwt>
<pdfrwt beam="1">  1       21 0.80035860E-02 0.19018479E+03</pdfrwt>
<pdfrwt beam="2">  1       21 0.11259581E+00 0.19018479E+03</pdfrwt>
<totfact> 0.74092352E+04</totfact>
</mgrwt>
</event>
<event>
12    1  0.1029207E-001  0.3034924E+03  0.7546771E-02  0.1084014E+00
         21   -1    0    0  503  502  0.00000000000E+00  0.00000000000E+00  0.11480373507E+04  0.11480373507E+04  0.00000000000E+00 0. -1.
         21   -1    0    0  501  503 -0.00000000000E+00 -0.00000000000E+00 -0.24968278183E+03  0.24968278183E+03  0.00000000000E+00 0.  1.
          6    2    1    2  501    0  0.22916574618E+03  0.86154278643E+02 -0.12933702623E+03  0.32615229361E+03  0.17235937260E+03 0.  0.
         24    2    3    3    0    0  0.22065519573E+03  0.74705721600E+02 -0.15873347466E+03  0.29314108176E+03  0.80409685954E+02 0.  0.
         -6    2    1    2    0  502 -0.22916574618E+03 -0.86154278643E+02  0.10276915951E+04  0.10715678390E+04  0.17935473183E+03 0.  0.
        -24    2    5    5    0    0 -0.11654994375E+03 -0.37868226293E+02  0.32577725031E+03  0.35902331454E+03  0.88028584068E+02 0.  0.
          5    1    3    3  501    0  0.85105504488E+01  0.11448557043E+02  0.29396448433E+02  0.33011211850E+02  0.47000000000E+01 0. -1.
        -11    1    4    4    0    0  0.53014546637E+02  0.57001633988E+02 -0.48085016191E+02  0.91498072190E+02  0.00000000000E+00 0.  1.
         12    1    4    4    0    0  0.16764064910E+03  0.17704087611E+02 -0.11064845847E+03  0.20164300957E+03  0.00000000000E+00 0. -1.
         -5    1    5    5    0  502 -0.11261580244E+03 -0.48286052350E+02  0.70191434483E+03  0.71254452443E+03  0.47000000000E+01 0.  1.
         13    1    6    6    0    0 -0.54980903829E+01 -0.34470318139E+02  0.12236431552E+03  0.12724565825E+03  0.00000000000E+00 0. -1.
        -14    1    6    6    0    0 -0.11105185336E+03 -0.33979081535E+01  0.20341293479E+03  0.23177765629E+03  0.00000000000E+00 0.  1.
<mgrwt>
<rscale>  2 0.30246697E+03</rscale>
<asrwt>0</asrwt>
<pdfrwt beam="1">  1       21 0.17662113E+00 0.30349237E+03</pdfrwt>
<pdfrwt beam="2">  1       21 0.38412736E-01 0.30349237E+03</pdfrwt>
<totfact> 0.11414304E+03</totfact>
</mgrwt>
</event>
<event>
12    1  0.1029207E-001  0.2472059E+03  0.7546771E-02  0.1115270E+00
         21   -1    0    0  503  502  0.00000000000E+00  0.00000000000E+00  0.13180090298E+03  0.13180090298E+03  0.00000000000E+00 0. -1.
         21   -1    0    0  501  503 -0.00000000000E+00 -0.00000000000E+00 -0.53098425606E+03  0.53098425606E+03  0.00000000000E+00 0. -1.
          6    2    1    2  501    0 -0.46703770326E+02  0.17054218220E+03 -0.31989405530E+03  0.40428082033E+03  0.17275675674E+03 0.  0.
         24    2    3    3    0    0  0.11231611141E+02  0.24375278407E+02 -0.15064573389E+03  0.17322161473E+03  0.81186743908E+02 0.  0.
         -6    2    1    2    0  502  0.46703770326E+02 -0.17054218220E+03 -0.79289297776E+02  0.25850433871E+03  0.17109010001E+03 0.  0.
        -24    2    5    5    0    0  0.71271115810E+02 -0.17325367597E+03 -0.33468327571E+02  0.20623046404E+03  0.79463621625E+02 0.  0.
          5    1    3    3  501    0 -0.57935381467E+02  0.14616690379E+03 -0.16924832141E+03  0.23105920560E+03  0.47000000000E+01 0. -1.
        -11    1    4    4    0    0  0.20279241190E+02 -0.73835353860E+01 -0.28349559080E+01  0.21766974825E+02  0.00000000000E+00 0.  1.
         12    1    4    4    0    0 -0.90476300489E+01  0.31758813793E+02 -0.14781077798E+03  0.15145463991E+03  0.00000000000E+00 0. -1.
         -5    1    5    5    0  502 -0.24567345484E+02  0.27114937758E+01 -0.45820970204E+02  0.52273874671E+02  0.47000000000E+01 0.  1.
         13    1    6    6    0    0 -0.92056927891E+01 -0.76842590978E+02 -0.19935021480E+02  0.79918293584E+02  0.00000000000E+00 0. -1.
        -14    1    6    6    0    0  0.80476808599E+02 -0.96411084996E+02 -0.13533306091E+02  0.12631217046E+03  0.00000000000E+00 0.  1.
<mgrwt>
<rscale>  2 0.24691496E+03</rscale>
<asrwt>0</asrwt>
<pdfrwt beam="1">  1       21 0.20277062E-01 0.24720594E+03</pdfrwt>
<pdfrwt beam="2">  1       21 0.81689887E-01 0.24720594E+03</pdfrwt>
<totfact> 0.28688680E+04</totfact>
</mgrwt>
</event>
<event>
12    1  0.1029207E-001  0.1840496E+03  0.7546771E-02  0.1165342E+00
         21   -1    0    0  503  502  0.00000000000E+00  0.00000000000E+00  0.52474897942E+03  0.52474897942E+03  0.00000000000E+00 0.  1.
         21   -1    0    0  501  503 -0.00000000000E+00 -0.00000000000E+00 -0.73989106349E+02  0.73989106349E+02  0.00000000000E+00 0.  1.
          6    2    1    2  501    0 -0.70763438039E+01  0.62594486052E+02  0.10441462425E+03  0.20652731870E+03  0.16668225846E+03 0.  0.
         24    2    3    3    0    0  0.42141302995E+02  0.86010991859E+02  0.65446802256E+02  0.13936117655E+03  0.77230003657E+02 0.  0.
         -6    2    1    2    0  502  0.70763438039E+01 -0.62594486052E+02  0.34634524882E+03  0.39221076706E+03  0.17293383156E+03 0.  0.
        -24    2    5    5    0    0  0.18817680277E+02  0.22231291192E+02  0.10031022226E+03  0.13165636629E+03  0.80143138803E+02 0.  0.
          5    1    3    3  501    0 -0.49217646799E+02 -0.23416505807E+02  0.38967821996E+02  0.67166142153E+02  0.47000000000E+01 0. -1.
        -11    1    4    4    0    0  0.11731278045E+02  0.84733169761E+02  0.25738649497E+02  0.89329787978E+02  0.00000000000E+00 0.  1.
         12    1    4    4    0    0  0.30410024950E+02  0.12778220983E+01  0.39708152759E+02  0.50031388570E+02  0.00000000000E+00 0. -1.
         -5    1    5    5    0  502 -0.11741336473E+02 -0.84825777244E+02  0.24603502656E+03  0.26055440077E+03  0.47000000000E+01 0.  1.
         13    1    6    6    0    0 -0.16301429356E+02 -0.22849672897E+02  0.30795963230E+02  0.41668159328E+02  0.00000000000E+00 0. -1.
        -14    1    6    6    0    0  0.35119109633E+02  0.45080964089E+02  0.69514259029E+02  0.89988206966E+02  0.00000000000E+00 0.  1.
<mgrwt>
<rscale>  2 0.18256648E+03</rscale>
<asrwt>0</asrwt>
<pdfrwt beam="1">  1       21 0.80730610E-01 0.18404960E+03</pdfrwt>
<pdfrwt beam="2">  1       21 0.11382940E-01 0.18404960E+03</pdfrwt>
<totfact> 0.87188808E+04</totfact>
</mgrwt>
</event>
<event>
12    1  0.1029207E-001  0.1944493E+03  0.7546771E-02  0.1155043E+00
         21   -1    0    0  503  502  0.00000000000E+00  0.00000000000E+00  0.11960984352E+04  0.11960984352E+04  0.00000000000E+00 0. -1.
         21   -1    0    0  501  503 -0.00000000000E+00 -0.00000000000E+00 -0.45182272848E+02  0.45182272848E+02  0.00000000000E+00 0. -1.
          6    2    1    2  501    0  0.27781530728E+01 -0.85219586833E+02  0.22793412728E+03  0.29803824187E+03  0.17205444233E+03 0.  0.
         24    2    3    3    0    0 -0.44168311716E+02 -0.10145028229E+03  0.18434307928E+03  0.23178361564E+03  0.86592575125E+02 0.  0.
         -6    2    1    2    0  502 -0.27781530728E+01  0.85219586833E+02  0.92298203510E+03  0.94324246620E+03  0.17475816666E+03 0.  0.
        -24    2    5    5    0    0  0.49110871113E+02  0.35389182844E+02  0.74878560605E+03  0.75471653726E+03  0.72476864238E+02 0.  0.
          5    1    3    3  501    0  0.46946464789E+02  0.16230695453E+02  0.43591048003E+02  0.66254626232E+02  0.47000000000E+01 0. -1.
        -13    1    4    4    0    0 -0.17182746349E+02 -0.40135736878E+02  0.15054952195E+03  0.15675229729E+03  0.00000000000E+00 0.  1.
         14    1    4    4    0    0 -0.26985565368E+02 -0.61314545408E+02  0.33793557330E+02  0.75031318354E+02  0.00000000000E+00 0. -1.
         -5    1    5    5    0  502 -0.51889024186E+02  0.49830403989E+02  0.17419642904E+03  0.18852592894E+03  0.47000000000E+01 0.  1.
         11    1    6    6    0    0  0.13067171225E+02 -0.21838544210E+02  0.26639529369E+03  0.26760815660E+03  0.00000000000E+00 0. -1.
        -12    1    6    6    0    0  0.36043699889E+02  0.57227727054E+02  0.48239031236E+03  0.48710838065E+03  0.00000000000E+00 0.  1.
<mgrwt>
<rscale>  2 0.19383983E+03</rscale>
<asrwt>0</asrwt>
<pdfrwt beam="1">  1       21 0.18401512E+00 0.19444926E+03</pdfrwt>
<pdfrwt beam="2">  1       21 0.69511198E-02 0.19444926E+03</pdfrwt>
<totfact> 0.26139496E+04</totfact>
</mgrwt>
</event>
<event>
12    1  0.1029207E-001  0.1807257E+03  0.7546771E-02  0.1167205E+00
         21   -1    0    0  501  502  0.00000000000E+00  0.00000000000E+00  0.26909436991E+03  0.26909436991E+03  0.00000000000E+00 0.  1.
         21   -1    0    0  502  503 -0.00000000000E+00 -0.00000000000E+00 -0.14412540855E+03  0.14412540855E+03  0.00000000000E+00 0.  1.
         -6    2    1    2    0  503 -0.41190965245E+02 -0.30364700541E+02 -0.20052189272E+02  0.18183471907E+03  0.17332935155E+03 0.  0.
        -24    2    3    3    0    0 -0.55431683271E+02  0.42107068282E+02 -0.14783448434E+02  0.10764034627E+03  0.80760244475E+02 0.  0.
          6    2    1    2  501    0  0.41190965245E+02  0.30364700541E+02  0.14502115063E+03  0.23138505939E+03  0.17288493550E+03 0.  0.
         24    2    5    5    0    0  0.18837920916E+02  0.49486813449E+02  0.16801516628E+03  0.19375357591E+03  0.80669325705E+02 0.  0.
          5    1    5    5  501    0  0.22353044329E+02 -0.19122112909E+02 -0.22994015650E+02  0.37631483476E+02  0.47000000000E+01 0. -1.
        -13    1    6    6    0    0  0.84929321620E+01 -0.13528493637E+02  0.96763793376E+02  0.98073348802E+02  0.00000000000E+00 0.  1.
         14    1    6    6    0    0  0.10344988754E+02  0.63015307086E+02  0.71251372905E+02  0.95680227113E+02  0.00000000000E+00 0. -1.
         -5    1    3    3    0  503  0.14240718026E+02 -0.72471768822E+02 -0.52687408381E+01  0.74194372806E+02  0.47000000000E+01 0.  1.
         11    1    4    4    0    0  0.15667330782E+02  0.25677725021E+02 -0.17157227490E+02  0.34629196803E+02  0.00000000000E+00 0. -1.
        -12    1    4    4    0    0 -0.71099014053E+02  0.16429343260E+02  0.23737790559E+01  0.73011149465E+02  0.00000000000E+00 0.  1.
<mgrwt>
<rscale>  2 0.18061905E+03</rscale>
<asrwt>0</asrwt>
<pdfrwt beam="1">  1       21 0.41399134E-01 0.18072569E+03</pdfrwt>
<pdfrwt beam="2">  1       21 0.22173140E-01 0.18072569E+03</pdfrwt>
<totfact> 0.10732888E+05</totfact>
</mgrwt>
</event>
<event>
12    1  0.1029207E-001  0.2196530E+03  0.7546771E-02  0.1134844E+00
         21   -1    0    0  501  502  0.00000000000E+00  0.00000000000E+00  0.28137016786E+03  0.28137016786E+03  0.00000000000E+00 0. -1.
         21   -1    0    0  502  503 -0.00000000000E+00 -0.00000000000E+00 -0.16996472331E+03  0.16996472331E+03  0.00000000000E+00 0. -1.
         -6    2    1    2    0  503  0.10671179148E+03  0.72589561137E+02  0.35796154345E+02  0.22255071859E+03  0.17773802871E+03 0.  0.
        -24    2    3    3    0    0  0.27395769062E+01 -0.16188843702E+02  0.17137733019E+02  0.84485323734E+02  0.81083192410E+02 0.  0.
          6    2    1    2  501    0 -0.10671179148E+03 -0.72589561137E+02  0.75609290206E+02  0.22878417259E+03  0.17311493879E+03 0.  0.
         24    2    5    5    0    0 -0.33786366748E+02 -0.62476701462E+02 -0.20616305759E+02  0.10753301662E+03  0.78060622577E+02 0.  0.
          5    1    5    5  501    0 -0.72925424734E+02 -0.10112859674E+02  0.96225595965E+02  0.12125115596E+03  0.47000000000E+01 0. -1.
        -11    1    6    6    0    0 -0.30455271546E+01 -0.60614405762E+02  0.12867354825E+02  0.62039908460E+02  0.00000000000E+00 0.  1.
         12    1    6    6    0    0 -0.30740839594E+02 -0.18622957008E+01 -0.33483660584E+02  0.45493108163E+02  0.00000000000E+00 0. -1.
         -5    1    3    3    0  503  0.10397221458E+03  0.88778404839E+02  0.18658421326E+02  0.13806539485E+03  0.47000000000E+01 0.  1.
         11    1    4    4    0    0  0.58530996427E+01  0.22001743569E+02 -0.20601013141E+02  0.30704026412E+02  0.00000000000E+00 0. -1.
        -12    1    4    4    0    0 -0.31135227365E+01 -0.38190587271E+02  0.37738746159E+02  0.53781297322E+02  0.00000000000E+00 0.  1.
<mgrwt>
<rscale>  2 0.21871611E+03</rscale>
<asrwt>0</asrwt>
<pdfrwt beam="1">  1       21 0.43287718E-01 0.21965304E+03</pdfrwt>
<pdfrwt beam="2">  1       21 0.26148419E-01 0.21965304E+03</pdfrwt>
<totfact> 0.70480612E+04</totfact>
</mgrwt>
</event>
<event>
11    1  0.1029207E-001  0.2242564E+03  0.7546771E-02  0.1131015E+00
         21   -1    0    0  501  502  0.00000000000E+00  0.00000000000E+00  0.83314893507E+03  0.83314893507E+03  0.00000000000E+00 0.  1.
         21   -1    0    0  502  503 -0.00000000000E+00 -0.00000000000E+00 -0.66966889603E+02  0.66966889603E+02  0.00000000000E+00 0.  1.
         -6    2    1    2    0  503  0.64932629934E+02  0.12491986405E+03  0.23874063648E+03  0.32754848239E+03  0.17455571588E+03 0.  0.
        -24    2    3    3    0    0 -0.23330258118E+02  0.26811052263E+02  0.12561690672E+03  0.15366707283E+03  0.81060647358E+02 0.  0.
          6    2    1    2  501    0 -0.64932629934E+02 -0.12491986405E+03  0.52744140899E+03  0.57256734228E+03  0.17267803181E+03 0.  0.
          5    1    5    5  501    0 -0.21407954209E+02  0.91406472792E+00  0.11871156903E+03  0.12072142576E+03  0.47000000000E+01 0. -1.
        -11    1    5    5    0    0 -0.62774415871E+01 -0.46444448274E+00  0.23149236393E+03  0.23157792758E+03  0.00000000000E+00 0.  1.
         12    1    5    5    0    0 -0.37247234138E+02 -0.12536948430E+03  0.17723747603E+03  0.22026798894E+03  0.00000000000E+00 0. -1.
         -5    1    3    3    0  503  0.88262888052E+02  0.98108811787E+02  0.11312372976E+03  0.17388140957E+03  0.47000000000E+01 0.  1.
         13    1    4    4    0    0  0.29209569717E+02  0.10986799055E+02  0.63710367817E+02  0.70943073544E+02  0.00000000000E+00 0. -1.
        -14    1    4    4    0    0 -0.52539827835E+02  0.15824253208E+02  0.61906538901E+02  0.82723999282E+02  0.00000000000E+00 0.  1.
<mgrwt>
<rscale>  2 0.22389087E+03</rscale>
<asrwt>0</asrwt>
<pdfrwt beam="1">  1       21 0.12817675E+00 0.22425636E+03</pdfrwt>
<pdfrwt beam="2">  1       21 0.10302599E-01 0.22425636E+03</pdfrwt>
<totfact> 0.33871133E+04</totfact>
</mgrwt>
</event>
<event>
12    1  0.1029207E-001  0.1765271E+03  0.7546771E-02  0.1171230E+00
         21   -1    0    0  503  502  0.00000000000E+00  0.00000000000E+00  0.96600458620E+02  0.96600458620E+02  0.00000000000E+00 0.  1.
         21   -1    0    0  501  503 -0.00000000000E+00 -0.00000000000E+00 -0.49279285660E+03  0.49279285660E+03  0.00000000000E+00 0. -1.
          6    2    1    2  501    0  0.49627780066E+00  0.34485810690E+02 -0.37140917237E+03  0.41122569776E+03  0.17312505234E+03 0.  0.
         24    2    3    3    0    0  0.29728433830E+02 -0.30452338163E+02 -0.15457656112E+03  0.18294965122E+03  0.88122284107E+02 0.  0.
         -6    2    1    2    0  502 -0.49627780066E+00 -0.34485810690E+02 -0.24783225616E+02  0.17816761747E+03  0.17303171447E+03 0.  0.
        -24    2    5    5    0    0  0.23549557660E+02 -0.40669663148E+02 -0.76966094864E+02  0.12018844813E+03  0.79453635146E+02 0.  0.
          5    1    3    3  501    0 -0.29232156030E+02  0.64938148853E+02 -0.21683261125E+03  0.22827604654E+03  0.47000000000E+01 0. -1.
        -13    1    4    4    0    0 -0.19010030339E+02  0.14238260098E+02 -0.79169978864E+02  0.82655882170E+02  0.00000000000E+00 0.  1.
         14    1    4    4    0    0  0.48738464170E+02 -0.44690598260E+02 -0.75406582255E+02  0.10029376905E+03  0.00000000000E+00 0. -1.
         -5    1    5    5    0  502 -0.24045835461E+02  0.61838524584E+01  0.52182869248E+02  0.57979169339E+02  0.47000000000E+01 0.  1.
         11    1    6    6    0    0 -0.30697265309E+01  0.19116804294E+01 -0.69294428444E+02  0.69388727878E+02  0.00000000000E+00 0. -1.
        -12    1    6    6    0    0  0.26619284191E+02 -0.42581343578E+02 -0.76716664198E+01  0.50799720249E+02  0.00000000000E+00 0.  1.
<mgrwt>
<rscale>  2 0.17650417E+03</rscale>
<asrwt>0</asrwt>
<pdfrwt beam="1">  1       21 0.14861609E-01 0.17652706E+03</pdfrwt>
<pdfrwt beam="2">  1       21 0.75814286E-01 0.17652706E+03</pdfrwt>
<totfact> 0.62375392E+04</totfact>
</mgrwt>
</event>
<event>
12    1  0.1029207E-001  0.1799306E+03  0.7546771E-02  0.1168423E+00
         21   -1    0    0  503  502  0.00000000000E+00  0.00000000000E+00  0.37953434501E+02  0.37953434501E+02  0.00000000000E+00 0. -1.
         21   -1    0    0  501  503 -0.00000000000E+00 -0.00000000000E+00 -0.12983275783E+04  0.12983275783E+04  0.00000000000E+00 0. -1.
          6    2    1    2  501    0 -0.35982473002E+02 -0.25239915981E+02 -0.10235655188E+04  0.10388699640E+04  0.17214133510E+03 0.  0.
         24    2    3    3    0    0  0.33727861513E+02 -0.28025548959E+02 -0.24312664405E+03  0.25530489485E+03  0.64397393182E+02 0.  0.
         -6    2    1    2    0  502  0.35982473002E+02  0.25239915981E+02 -0.23680862499E+03  0.29741104872E+03  0.17447984213E+03 0.  0.
        -24    2    5    5    0    0  0.18402035586E+02  0.80726608513E+02 -0.15796966328E+03  0.19930133100E+03  0.88944846874E+02 0.  0.
          5    1    3    3  501    0 -0.69710334515E+02  0.27856329782E+01 -0.78043887471E+03  0.78356506919E+03  0.47000000000E+01 0. -1.
        -11    1    4    4    0    0  0.15545673852E+02  0.14786779258E+02 -0.14653637322E+03  0.14809870186E+03  0.00000000000E+00 0.  1.
         12    1    4    4    0    0  0.18182187661E+02 -0.42812328217E+02 -0.96590270835E+02  0.10720619299E+03  0.00000000000E+00 0. -1.
         -5    1    5    5    0  502  0.17580437416E+02 -0.55486692532E+02 -0.78838961714E+02  0.98109717725E+02  0.47000000000E+01 0.  1.
         13    1    6    6    0    0  0.40764344568E+02  0.19005912303E+02 -0.10739204582E+03  0.11643027096E+03  0.00000000000E+00 0. -1.
        -14    1    6    6    0    0 -0.22362308983E+02  0.61720696210E+02 -0.50577617455E+02  0.82871060034E+02  0.00000000000E+00 0.  1.
<mgrwt>
<rscale>  2 0.17936118E+03</rscale>
<asrwt>0</asrwt>
<pdfrwt beam="1">  1       21 0.58389887E-02 0.17993056E+03</pdfrwt>
<pdfrwt beam="2">  1       21 0.19974275E+00 0.17993056E+03</pdfrwt>
<totfact> 0.28101146E+04</totfact>
</mgrwt>
</event>
<event>
12    1  0.1029207E-001  0.2342980E+03  0.7546771E-02  0.1123657E+00
         21   -1    0    0  501  502  0.00000000000E+00  0.00000000000E+00  0.16302911783E+03  0.16302911783E+03  0.00000000000E+00 0. -1.
         21   -1    0    0  502  503 -0.00000000000E+00 -0.00000000000E+00 -0.41914531013E+03  0.41914531013E+03  0.00000000000E+00 0.  1.
         -6    2    1    2    0  503  0.14332526321E+03  0.69158504290E+02  0.10554000508E+01  0.23430041817E+03  0.17196087431E+03 0.  0.
        -24    2    3    3    0    0  0.11509048773E+03  0.80599290726E+02 -0.54786527183E+02  0.17051558472E+03  0.79573456879E+02 0.  0.
          6    2    1    2  501    0 -0.14332526321E+03 -0.69158504290E+02 -0.25717159235E+03  0.34787400979E+03  0.17191296922E+03 0.  0.
         24    2    5    5    0    0 -0.92967821005E+02 -0.47519593455E+01 -0.61614599823E+02  0.13586291965E+03  0.77438860811E+02 0.  0.
          5    1    5    5  501    0 -0.50357442208E+02 -0.64406544944E+02 -0.19555699253E+03  0.21201109014E+03  0.47000000000E+01 0. -1.
        -13    1    6    6    0    0 -0.10700564623E+01  0.24498859273E+02 -0.15015012559E+02  0.28753951531E+02  0.00000000000E+00 0.  1.
         14    1    6    6    0    0 -0.91897764543E+02 -0.29250818618E+02 -0.46599587264E+02  0.10710896812E+03  0.00000000000E+00 0. -1.
         -5    1    3    3    0  503  0.28234775485E+02 -0.11440786436E+02  0.55841927234E+02  0.63784833450E+02  0.47000000000E+01 0.  1.
         11    1    4    4    0    0  0.68678605616E+01 -0.12138402294E+02  0.64859463039E+01  0.15381021371E+02  0.00000000000E+00 0. -1.
        -12    1    4    4    0    0  0.10822262717E+03  0.92737693020E+02 -0.61272473487E+02  0.15513456335E+03  0.00000000000E+00 0.  1.
<mgrwt>
<rscale>  2 0.23428925E+03</rscale>
<asrwt>0</asrwt>
<pdfrwt beam="1">  1       21 0.25081403E-01 0.23429804E+03</pdfrwt>
<pdfrwt beam="2">  1       21 0.64483893E-01 0.23429804E+03</pdfrwt>
<totfact> 0.32677666E+04</totfact>
</mgrwt>
</event>
<event>
12    1  0.1029207E-001  0.2284565E+03  0.7546771E-02  0.1128457E+00
         21   -1    0    0  501  502  0.00000000000E+00  0.00000000000E+00  0.22575234028E+03  0.22575234028E+03  0.00000000000E+00 0.  1.
         21   -1    0    0  502  503 -0.00000000000E+00 -0.00000000000E+00 -0.25889789589E+03  0.25889789589E+03  0.00000000000E+00 0. -1.
         -6    2    1    2    0  503  0.95784970746E+02 -0.11472546977E+03 -0.10135123239E+03  0.24622967169E+03  0.16739260699E+03 0.  0.
        -24    2    3    3    0    0  0.71971890503E+02 -0.13111489684E+03 -0.32733825906E+02  0.17162327395E+03  0.77536930598E+02 0.  0.
          6    2    1    2  501    0 -0.95784970746E+02  0.11472546977E+03  0.68205676775E+02  0.23842056448E+03  0.17278789653E+03 0.  0.
         24    2    5    5    0    0 -0.11869626201E+03  0.86721758034E+02  0.95771112257E+02  0.19269225408E+03  0.79678936419E+02 0.  0.
          5    1    5    5  501    0  0.22911291264E+02  0.28003711740E+02 -0.27565435482E+02  0.45728310399E+02  0.47000000000E+01 0. -1.
        -11    1    6    6    0    0 -0.12511842326E+03  0.81871975801E+02  0.68888112926E+02  0.16463053290E+03  0.00000000000E+00 0.  1.
         12    1    6    6    0    0  0.64221612473E+01  0.48497822330E+01  0.26882999331E+02  0.28061721184E+02  0.00000000000E+00 0. -1.
         -5    1    3    3    0  503  0.23813080243E+02  0.16389427071E+02 -0.68617406483E+02  0.74606397734E+02  0.47000000000E+01 0.  1.
         13    1    4    4    0    0  0.63258745382E+02 -0.72667622502E+02 -0.51983407492E+02  0.10947386392E+03  0.00000000000E+00 0. -1.
        -14    1    4    4    0    0  0.87131451212E+01 -0.58447274343E+02  0.19249581586E+02  0.62149410032E+02  0.00000000000E+00 0.  1.
<mgrwt>
<rscale>  2 0.22743643E+03</rscale>
<asrwt>0</asrwt>
<pdfrwt beam="1">  1       21 0.34731129E-01 0.22845645E+03</pdfrwt>
<pdfrwt beam="2">  1       21 0.39830445E-01 0.22845645E+03</pdfrwt>
<totfact> 0.47736877E+04</totfact>
</mgrwt>
</event>
<event>
12    1  0.1029207E-001  0.1976220E+03  0.7546771E-02  0.1152172E+00
         21   -1    0    0  503  502  0.00000000000E+00  0.00000000000E+00  0.33370177281E+03  0.33370177281E+03  0.00000000000E+00 0. -1.
         21   -1    0    0  501  503 -0.00000000000E+00 -0.00000000000E+00 -0.17024542441E+03  0.17024542441E+03  0.00000000000E+00 0. -1.
          6    2    1    2  501    0  0.13612007628E+02 -0.90401154163E+02 -0.60894317296E+02  0.20496948034E+03  0.17305119059E+03 0.  0.
         24    2    3    3    0    0  0.62746175737E+01 -0.97591842569E+02 -0.10180988170E+03  0.16252284675E+03  0.80528784562E+02 0.  0.
         -6    2    1    2    0  502 -0.13612007628E+02  0.90401154163E+02  0.22435066570E+03  0.29897771689E+03  0.17520501868E+03 0.  0.
        -24    2    5    5    0    0 -0.26290625024E+02  0.61626725640E+02  0.48251961798E+02  0.12003203074E+03  0.87122823126E+02 0.  0.
          5    1    3    3  501    0  0.73373900542E+01  0.71906884060E+01  0.40915564403E+02  0.42446633588E+02  0.47000000000E+01 0. -1.
        -11    1    4    4    0    0 -0.35920943194E+02 -0.29644671078E+02 -0.34004708304E+02  0.57666635675E+02  0.00000000000E+00 0.  1.
         12    1    4    4    0    0  0.42195560768E+02 -0.67947171491E+02 -0.67805173396E+02  0.10485621108E+03  0.00000000000E+00 0. -1.
         -5    1    5    5    0  502  0.12678617396E+02  0.28774428523E+02  0.17609870390E+03  0.17894568615E+03  0.47000000000E+01 0.  1.
         11    1    6    6    0    0 -0.55985554475E+02  0.46447219901E+02  0.47102634789E+02  0.86662476023E+02  0.00000000000E+00 0. -1.
        -12    1    6    6    0    0  0.29694929451E+02  0.15179505739E+02  0.11493270087E+01  0.33369554719E+02  0.00000000000E+00 0.  1.
<mgrwt>
<rscale>  2 0.19714352E+03</rscale>
<asrwt>0</asrwt>
<pdfrwt beam="1">  1       21 0.51338734E-01 0.19762200E+03</pdfrwt>
<pdfrwt beam="2">  1       21 0.26191604E-01 0.19762200E+03</pdfrwt>
<totfact> 0.49838796E+04</totfact>
</mgrwt>
</event>
<event>
12    1  0.1029207E-001  0.1834740E+03  0.7546771E-02  0.1164685E+00
         21   -1    0    0  501  502  0.00000000000E+00  0.00000000000E+00  0.70696393244E+03  0.70696393244E+03  0.00000000000E+00 0. -1.
         21   -1    0    0  502  503 -0.00000000000E+00 -0.00000000000E+00 -0.63116412082E+02  0.63116412082E+02  0.00000000000E+00 0. -1.
         -6    2    1    2    0  503 -0.33935620167E+02 -0.46512147226E+02  0.13031679655E+03  0.22504480778E+03  0.17420588936E+03 0.  0.
        -24    2    3    3    0    0 -0.82874337477E+02 -0.56650844809E+02  0.12443730336E+03  0.17450324389E+03  0.69923283884E+02 0.  0.
          6    2    1    2  501    0  0.33935620167E+02  0.46512147226E+02  0.51353072380E+03  0.54503553674E+03  0.17330587371E+03 0.  0.
         24    2    5    5    0    0  0.12064729939E+01  0.61295738135E+02  0.15492520951E+03  0.18460557612E+03  0.79490723359E+02 0.  0.
          5    1    5    5  501    0  0.32729147173E+02 -0.14783590909E+02  0.35860551429E+03  0.36042996062E+03  0.47000000000E+01 0. -1.
        -11    1    6    6    0    0  0.64849537527E+01  0.38411586362E+01  0.11308282146E+03  0.11333372682E+03  0.00000000000E+00 0.  1.
         12    1    6    6    0    0 -0.52784807588E+01  0.57454579499E+02  0.41842388051E+02  0.71271849297E+02  0.00000000000E+00 0. -1.
         -5    1    3    3    0  503  0.48938717310E+02  0.10138697582E+02  0.58794931904E+01  0.50541563893E+02  0.47000000000E+01 0.  1.
         11    1    4    4    0    0 -0.80819202252E+02 -0.37368476429E+02  0.60397387430E+02  0.10759177892E+03  0.00000000000E+00 0. -1.
        -12    1    4    4    0    0 -0.20551352253E+01 -0.19282368380E+02  0.64039915932E+02  0.66911464965E+02  0.00000000000E+00 0.  1.
<mgrwt>
<rscale>  2 0.18326001E+03</rscale>
<asrwt>0</asrwt>
<pdfrwt beam="1">  1       21 0.10876368E+00 0.18347397E+03</pdfrwt>
<pdfrwt beam="2">  1       21 0.97102177E-02 0.18347397E+03</pdfrwt>
<totfact> 0.57622956E+04</totfact>
</mgrwt>
</event>
<event>
12    1  0.1029207E-001  0.1790336E+03  0.7546771E-02  0.1168795E+00
         21   -1    0    0  501  502  0.00000000000E+00  0.00000000000E+00  0.45143232053E+03  0.45143232053E+03  0.00000000000E+00 0. -1.
         21   -1    0    0  502  503 -0.00000000000E+00 -0.00000000000E+00 -0.71525932409E+02  0.71525932409E+02  0.00000000000E+00 0. -1.
         -6    2    1    2    0  503  0.26799168857E+02  0.30153537608E+02  0.16592558729E+03  0.24409899621E+03  0.17442932136E+03 0.  0.
        -24    2    3    3    0    0  0.85331655734E+02  0.96269075656E+01  0.10593487964E+03  0.15767926718E+03  0.79160493651E+02 0.  0.
          6    2    1    2  501    0 -0.26799168857E+02 -0.30153537608E+02  0.21398080083E+03  0.27885925673E+03  0.17420468036E+03 0.  0.
         24    2    5    5    0    0  0.51685585804E+02 -0.31820303837E+02  0.13009490755E+03  0.16387417980E+03  0.79032463710E+02 0.  0.
          5    1    5    5  501    0 -0.78484754661E+02  0.16667662285E+01  0.83885893287E+02  0.11498507693E+03  0.47000000000E+01 0. -1.
        -11    1    6    6    0    0  0.45096741654E+02 -0.49590748255E+02  0.12840357165E+03  0.14484624825E+03  0.00000000000E+00 0.  1.
         12    1    6    6    0    0  0.65888441497E+01  0.17770444418E+02  0.16913358996E+01  0.19027931552E+02  0.00000000000E+00 0. -1.
         -5    1    3    3    0  503 -0.58532486877E+02  0.20526630043E+02  0.59990707652E+02  0.86419729029E+02  0.47000000000E+01 0.  1.
         13    1    4    4    0    0  0.43074398764E+02 -0.33075006756E+02  0.66315317276E+02  0.85715116556E+02  0.00000000000E+00 0. -1.
        -14    1    4    4    0    0  0.42257256970E+02  0.42701914321E+02  0.39619562359E+02  0.71964150623E+02  0.00000000000E+00 0.  1.
<mgrwt>
<rscale>  2 0.17897883E+03</rscale>
<asrwt>0</asrwt>
<pdfrwt beam="1">  1       21 0.69451125E-01 0.17903357E+03</pdfrwt>
<pdfrwt beam="2">  1       21 0.11003990E-01 0.17903357E+03</pdfrwt>
<totfact> 0.12974960E+05</totfact>
</mgrwt>
</event>
<event>
12    1  0.1029207E-001  0.2755253E+03  0.7546771E-02  0.1098229E+00
         21   -1    0    0  501  502  0.00000000000E+00  0.00000000000E+00  0.75983964268E+02  0.75983964268E+02  0.00000000000E+00 0. -1.
         21   -1    0    0  502  503 -0.00000000000E+00 -0.00000000000E+00 -0.14500890001E+04  0.14500890001E+04  0.00000000000E+00 0.  1.
         -6    2    1    2    0  503  0.70535244890E+02  0.20382215068E+03 -0.11130205443E+04  0.11464951381E+04  0.17063903347E+03 0.  0.
        -24    2    3    3    0    0  0.29745140551E+02  0.31317441138E+02 -0.49288034693E+03  0.50150082663E+03  0.81893145060E+02 0.  0.
          6    2    1    2  501    0 -0.70535244890E+02 -0.20382215068E+03 -0.26108449159E+03  0.37957782634E+03  0.17145123103E+03 0.  0.
         24    2    5    5    0    0 -0.63591774251E+02 -0.67168670750E+02 -0.60665801750E+02  0.13685962225E+03  0.80589531685E+02 0.  0.
          5    1    5    5  501    0 -0.69434706394E+01 -0.13665347993E+03 -0.20041868984E+03  0.24271820409E+03  0.47000000000E+01 0. -1.
        -13    1    6    6    0    0  0.10300458589E+02 -0.41888344320E+02 -0.11749406725E+02  0.44707733061E+02  0.00000000000E+00 0.  1.
         14    1    6    6    0    0 -0.73892232841E+02 -0.25280326430E+02 -0.48916395025E+02  0.92151889187E+02  0.00000000000E+00 0. -1.
         -5    1    3    3    0  503  0.40790104340E+02  0.17250470954E+03 -0.62014019733E+03  0.64499431142E+03  0.47000000000E+01 0.  1.
         13    1    4    4    0    0  0.28555315164E+02  0.18756650083E+02 -0.64975735780E+02  0.73410245788E+02  0.00000000000E+00 0. -1.
        -14    1    4    4    0    0  0.11898253870E+01  0.12560791054E+02 -0.42790461115E+03  0.42809058084E+03  0.00000000000E+00 0.  1.
<mgrwt>
<rscale>  2 0.27539909E+03</rscale>
<asrwt>0</asrwt>
<pdfrwt beam="1">  1       21 0.11689841E-01 0.27552534E+03</pdfrwt>
<pdfrwt beam="2">  1       21 0.22309061E+00 0.27552534E+03</pdfrwt>
<totfact> 0.55360707E+03</totfact>
</mgrwt>
</event>
<event>
12    1  0.1029207E-001  0.2290852E+03  0.7546771E-02  0.1127628E+00
         21   -1    0    0  501  502  0.00000000000E+00  0.00000000000E+00  0.40833206109E+02  0.40833206109E+02  0.00000000000E+00 0.  1.
         21   -1    0    0  502  503 -0.00000000000E+00 -0.00000000000E+00 -0.14289817495E+04  0.14289817495E+04  0.00000000000E+00 0. -1.
         -6    2    1    2    0  503 -0.12715026944E+03  0.74178835029E+02 -0.93838250378E+03  0.96594086806E+03  0.17552876285E+03 0.  0.
        -24    2    3    3    0    0 -0.77323633199E+02  0.52552768306E+02 -0.86602553785E+03  0.87534284953E+03  0.86510891283E+02 0.  0.
          6    2    1    2  501    0  0.12715026944E+03 -0.74178835029E+02 -0.44976603963E+03  0.50387408758E+03  0.17300264490E+03 0.  0.
         24    2    5    5    0    0  0.14866457399E+03 -0.86469683665E+02 -0.32014941306E+03  0.37182678491E+03  0.78621558969E+02 0.  0.
          5    1    5    5  501    0 -0.21514304548E+02  0.12290848637E+02 -0.12961662657E+03  0.13204730267E+03  0.47000000000E+01 0. -1.
        -13    1    6    6    0    0  0.56550432228E+02 -0.19190716200E+02 -0.47591333796E+02  0.76362098098E+02  0.00000000000E+00 0.  1.
         14    1    6    6    0    0  0.92114141763E+02 -0.67278967465E+02 -0.27255807927E+03  0.29546468681E+03  0.00000000000E+00 0. -1.
         -5    1    3    3    0  503 -0.49826636244E+02  0.21626066723E+02 -0.72356965934E+02  0.90598018524E+02  0.47000000000E+01 0.  1.
         13    1    4    4    0    0 -0.14442110238E+02  0.67309297155E+01 -0.53725097282E+03  0.53748719776E+03  0.00000000000E+00 0. -1.
        -14    1    4    4    0    0 -0.62881522961E+02  0.45821838590E+02 -0.32877456503E+03  0.33785565177E+03  0.00000000000E+00 0.  1.
<mgrwt>
<rscale>  2 0.22860125E+03</rscale>
<asrwt>0</asrwt>
<pdfrwt beam="1">  1       21 0.62820323E-02 0.22908522E+03</pdfrwt>
<pdfrwt beam="2">  1       21 0.21984333E+00 0.22908522E+03</pdfrwt>
<totfact> 0.17865407E+04</totfact>
</mgrwt>
</event>
<event>
12    1  0.1029207E-001  0.2701905E+03  0.7546771E-02  0.1101473E+00
         21   -1    0    0  501  502  0.00000000000E+00  0.00000000000E+00  0.20369299298E+03  0.20369299298E+03  0.00000000000E+00 0. -1.
         21   -1    0    0  502  503 -0.00000000000E+00 -0.00000000000E+00 -0.62083637540E+03  0.62083637540E+03  0.00000000000E+00 0. -1.
         -6    2    1    2    0  503  0.18934148659E+03  0.78063054125E+02 -0.47756499959E+03  0.54766540281E+03  0.17298851302E+03 0.  0.
        -24    2    3    3    0    0  0.15609239985E+03  0.74763534462E+02 -0.22996739674E+03  0.29777932569E+03  0.76374733199E+02 0.  0.
          6    2    1    2  501    0 -0.18934148659E+03 -0.78063054125E+02  0.60421617169E+02  0.27686396557E+03  0.17623519695E+03 0.  0.
         24    2    5    5    0    0 -0.16767555577E+03 -0.67995381206E+02  0.10693762120E+03  0.22436063970E+03  0.78508457817E+02 0.  0.
          5    1    5    5  501    0 -0.21665930821E+02 -0.10067672919E+02 -0.46516004031E+02  0.52503325869E+02  0.47000000000E+01 0. -1.
        -13    1    6    6    0    0 -0.86530187046E+02 -0.45594671116E+02  0.10002361962E+03  0.13989664680E+03  0.00000000000E+00 0.  1.
         14    1    6    6    0    0 -0.81145368725E+02 -0.22400710091E+02  0.69140015801E+01  0.84463992896E+02  0.00000000000E+00 0. -1.
         -5    1    3    3    0  503  0.33249086746E+02  0.32995196629E+01 -0.24759760286E+03  0.24988607712E+03  0.47000000000E+01 0.  1.
         11    1    4    4    0    0  0.42235919848E+02  0.27863384018E+01 -0.10825602922E+03  0.11623684644E+03  0.00000000000E+00 0. -1.
        -12    1    4    4    0    0  0.11385648000E+03  0.71977196061E+02 -0.12171136751E+03  0.18154247925E+03  0.00000000000E+00 0.  1.
<mgrwt>
<rscale>  2 0.26966231E+03</rscale>
<asrwt>0</asrwt>
<pdfrwt beam="1">  1       21 0.31337384E-01 0.27019046E+03</pdfrwt>
<pdfrwt beam="2">  1       21 0.95513287E-01 0.27019046E+03</pdfrwt>
<totfact> 0.85276785E+03</totfact>
</mgrwt>
</event>
<event>
12    1  0.1029207E-001  0.2622637E+03  0.7546771E-02  0.1106030E+00
         21   -1    0    0  503  502  0.00000000000E+00  0.00000000000E+00  0.40554952595E+03  0.40554952595E+03  0.00000000000E+00 0.  1.
         21   -1    0    0  501  503 -0.00000000000E+00 -0.00000000000E+00 -0.39398439076E+03  0.39398439076E+03  0.00000000000E+00 0.  1.
          6    2    1    2  501    0  0.43849921887E+02  0.19087555604E+03 -0.29661164227E+03  0.39486718685E+03  0.17200388187E+03 0.  0.
         24    2    3    3    0    0 -0.12744327144E+02  0.16313700963E+03 -0.27047292448E+03  0.32647377673E+03  0.81568512486E+02 0.  0.
         -6    2    1    2    0  502 -0.43849921887E+02 -0.19087555604E+03  0.30817677747E+03  0.40466672986E+03  0.17443033723E+03 0.  0.
        -24    2    5    5    0    0  0.37290890038E+02 -0.83750096932E+02  0.19240866629E+03  0.22722930170E+03  0.78786873717E+02 0.  0.
          5    1    3    3  501    0  0.56594249030E+02  0.27738546411E+02 -0.26138717786E+02  0.68393410120E+02  0.47000000000E+01 0. -1.
        -13    1    4    4    0    0  0.45286709781E+01  0.32016844007E+02 -0.12824341786E+03  0.13225717896E+03  0.00000000000E+00 0.  1.
         14    1    4    4    0    0 -0.17272998122E+02  0.13112016562E+03 -0.14222950662E+03  0.19421659777E+03  0.00000000000E+00 0. -1.
         -5    1    5    5    0  502 -0.81140811925E+02 -0.10712545911E+03  0.11576811118E+03  0.17743742817E+03  0.47000000000E+01 0.  1.
         11    1    6    6    0    0  0.16313464489E+02 -0.11556060496E+01 -0.47331256086E+00  0.16361191087E+02  0.00000000000E+00 0. -1.
        -12    1    6    6    0    0  0.20977425549E+02 -0.82594490882E+02  0.19288197885E+03  0.21086811061E+03  0.00000000000E+00 0.  1.
<mgrwt>
<rscale>  2 0.26186087E+03</rscale>
<asrwt>0</asrwt>
<pdfrwt beam="1">  1       21 0.62392235E-01 0.26226368E+03</pdfrwt>
<pdfrwt beam="2">  1       21 0.60612983E-01 0.26226368E+03</pdfrwt>
<totfact> 0.57645321E+03</totfact>
</mgrwt>
</event>
<event>
12    1  0.1029207E-001  0.2450072E+03  0.7546771E-02  0.1117015E+00
         21   -1    0    0  503  502  0.00000000000E+00  0.00000000000E+00  0.65804604087E+03  0.65804604087E+03  0.00000000000E+00 0.  1.
         21   -1    0    0  501  503 -0.00000000000E+00 -0.00000000000E+00 -0.92784725216E+02  0.92784725216E+02  0.00000000000E+00 0. -1.
          6    2    1    2  501    0  0.16981368968E+03 -0.26654187307E+01  0.21646988361E+03  0.32458671693E+03  0.17220201112E+03 0.  0.
         24    2    3    3    0    0  0.29447274755E+02  0.37537665936E+02  0.73181391587E+02  0.11995851652E+03  0.82208948763E+02 0.  0.
         -6    2    1    2    0  502 -0.16981368968E+03  0.26654187307E+01  0.34879143204E+03  0.42624404916E+03  0.17659199506E+03 0.  0.
        -24    2    5    5    0    0 -0.18592609076E+02  0.84568790499E+01  0.70338638116E+02  0.10929073292E+03  0.81115574181E+02 0.  0.
          5    1    3    3  501    0  0.14036641492E+03 -0.40203084667E+02  0.14328849203E+03  0.20462820041E+03  0.47000000000E+01 0. -1.
        -11    1    4    4    0    0 -0.19193470494E+02  0.32529436323E+02  0.57143472897E+02  0.68497664426E+02  0.00000000000E+00 0.  1.
         12    1    4    4    0    0  0.48640745250E+02  0.50082296132E+01  0.16037918690E+02  0.51460852094E+02  0.00000000000E+00 0. -1.
         -5    1    5    5    0  502 -0.15122108060E+03 -0.57914603192E+01  0.27845279393E+03  0.31695331624E+03  0.47000000000E+01 0.  1.
         13    1    6    6    0    0 -0.16051611376E+02 -0.31682891900E+02  0.56538949565E+02  0.66769099775E+02  0.00000000000E+00 0. -1.
        -14    1    6    6    0    0 -0.25409976995E+01  0.40139770950E+02  0.13799688551E+02  0.42521633145E+02  0.00000000000E+00 0.  1.
<mgrwt>
<rscale>  2 0.24421714E+03</rscale>
<asrwt>0</asrwt>
<pdfrwt beam="1">  1       21 0.10123785E+00 0.24500720E+03</pdfrwt>
<pdfrwt beam="2">  1       21 0.14274574E-01 0.24500720E+03</pdfrwt>
<totfact> 0.33310648E+04</totfact>
</mgrwt>
</event>
<event>
12    1  0.1029207E-001  0.2935766E+03  0.7546771E-02  0.1088793E+00
         21   -1    0    0  503  502  0.00000000000E+00  0.00000000000E+00  0.11562164116E+04  0.11562164116E+04  0.00000000000E+00 0. -1.
         21   -1    0    0  501  503 -0.00000000000E+00 -0.00000000000E+00 -0.74606186306E+02  0.74606186306E+02  0.00000000000E+00 0. -1.
          6    2    1    2  501    0 -0.99539699969E+02 -0.21570694010E+03  0.48142725737E+03  0.56268576604E+03  0.16853910905E+03 0.  0.
         24    2    3    3    0    0 -0.22029522487E+02 -0.26658793981E+02  0.16046387510E+03  0.18217740618E+03  0.79018737967E+02 0.  0.
         -6    2    1    2    0  502  0.99539699969E+02  0.21570694010E+03  0.60018296792E+03  0.66813683187E+03  0.17248070977E+03 0.  0.
        -24    2    5    5    0    0  0.94830722275E+02  0.73069016500E+02  0.36850612390E+03  0.39598980952E+03  0.81726487933E+02 0.  0.
          5    1    3    3  501    0 -0.77510177482E+02 -0.18904814612E+03  0.32096338227E+03  0.38050835986E+03  0.47000000000E+01 0. -1.
        -13    1    4    4    0    0  0.48409062139E+01 -0.11059761291E+02 -0.55455084989E+01  0.13285531878E+02  0.00000000000E+00 0.  1.
         14    1    4    4    0    0 -0.26870428701E+02 -0.15599032690E+02  0.16600938360E+03  0.16889187430E+03  0.00000000000E+00 0. -1.
         -5    1    5    5    0  502  0.47089776938E+01  0.14263792360E+03  0.23167684402E+03  0.27214702235E+03  0.47000000000E+01 0.  1.
         11    1    6    6    0    0  0.62849740362E+02  0.83230237397E+02  0.21633683160E+03  0.24016449985E+03  0.00000000000E+00 0. -1.
        -12    1    6    6    0    0  0.31980981914E+02 -0.10161220897E+02  0.15216929229E+03  0.15582530966E+03  0.00000000000E+00 0.  1.
<mgrwt>
<rscale>  2 0.29300035E+03</rscale>
<asrwt>0</asrwt>
<pdfrwt beam="1">  1       21 0.17787943E+00 0.29357662E+03</pdfrwt>
<pdfrwt beam="2">  1       21 0.11477876E-01 0.29357662E+03</pdfrwt>
<totfact> 0.11195101E+04</totfact>
</mgrwt>
</event>
<event>
12    1  0.1029207E-001  0.1952759E+03  0.7546771E-02  0.1153790E+00
         21   -1    0    0  501  502  0.00000000000E+00  0.00000000000E+00  0.32277411606E+03  0.32277411606E+03  0.00000000000E+00 0. -1.
         21   -1    0    0  502  503 -0.00000000000E+00 -0.00000000000E+00 -0.12741155604E+03  0.12741155604E+03  0.00000000000E+00 0.  1.
         -6    2    1    2    0  503 -0.88056393541E+02  0.17051160489E+02  0.36934951950E+02  0.19872597436E+03  0.17344495291E+03 0.  0.
        -24    2    3    3    0    0 -0.76792297604E+02  0.44885103336E+02  0.83033926529E+02  0.14350991067E+03  0.76083717270E+02 0.  0.
          6    2    1    2  501    0  0.88056393541E+02 -0.17051160489E+02  0.15842760807E+03  0.25145969775E+03  0.17345893484E+03 0.  0.
         24    2    5    5    0    0  0.58935773386E+02  0.55121849235E+02  0.11842666359E+03  0.16382911284E+03  0.79393072236E+02 0.  0.
          5    1    5    5  501    0  0.29120620155E+02 -0.72173009725E+02  0.40000944481E+02  0.87630584902E+02  0.47000000000E+01 0. -1.
        -13    1    6    6    0    0  0.41179061664E+01  0.54591828597E+02  0.38580759019E+02  0.66975367615E+02  0.00000000000E+00 0.  1.
         14    1    6    6    0    0  0.54817867220E+02  0.53002063818E+00  0.79845904569E+02  0.96853745229E+02  0.00000000000E+00 0. -1.
         -5    1    3    3    0  503 -0.11264095938E+02 -0.27833942847E+02 -0.46098974579E+02  0.55216063685E+02  0.47000000000E+01 0.  1.
         11    1    4    4    0    0 -0.36462217082E+02  0.62303449193E+02  0.60218137750E+02  0.94007644210E+02  0.00000000000E+00 0. -1.
        -12    1    4    4    0    0 -0.40330080521E+02 -0.17418345857E+02  0.22815788779E+02  0.49502266462E+02  0.00000000000E+00 0.  1.
<mgrwt>
<rscale>  2 0.19527278E+03</rscale>
<asrwt>0</asrwt>
<pdfrwt beam="1">  1       21 0.49657556E-01 0.19527589E+03</pdfrwt>
<pdfrwt beam="2">  1       21 0.19601778E-01 0.19527589E+03</pdfrwt>
<totfact> 0.92541045E+04</totfact>
</mgrwt>
</event>
<event>
12    1  0.1029207E-001  0.2488085E+03  0.7546771E-02  0.1114099E+00
         21   -1    0    0  501  502  0.00000000000E+00  0.00000000000E+00  0.48524720165E+02  0.48524720165E+02  0.00000000000E+00 0. -1.
         21   -1    0    0  502  503 -0.00000000000E+00 -0.00000000000E+00 -0.14002944943E+04  0.14002944943E+04  0.00000000000E+00 0. -1.
         -6    2    1    2    0  503 -0.17930150423E+03 -0.22596624029E+01 -0.45906379527E+03  0.52215442213E+03  0.17248633838E+03 0.  0.
        -24    2    3    3    0    0 -0.63520972679E+02  0.85648169298E+01 -0.34420739663E+03  0.35864178302E+03  0.77697661329E+02 0.  0.
          6    2    1    2  501    0  0.17930150423E+03  0.22596624029E+01 -0.89270597890E+03  0.92666479237E+03  0.17213232459E+03 0.  0.
         24    2    5    5    0    0  0.26830717130E+01 -0.21021978520E+02 -0.23499138860E+03  0.24523491498E+03  0.66858719367E+02 0.  0.
          5    1    5    5  501    0  0.17661843251E+03  0.23281640923E+02 -0.65771459030E+03  0.68142987739E+03  0.47000000000E+01 0. -1.
        -11    1    6    6    0    0 -0.22267041190E+02  0.88684831649E+01 -0.14799411849E+03  0.14992241402E+03  0.00000000000E+00 0.  1.
         12    1    6    6    0    0  0.24950112904E+02 -0.29890461685E+02 -0.86997270108E+02  0.95312500963E+02  0.00000000000E+00 0. -1.
         -5    1    3    3    0  503 -0.11578053155E+03 -0.10824479333E+02 -0.11485639864E+03  0.16351263911E+03  0.47000000000E+01 0.  1.
         13    1    4    4    0    0 -0.12738434083E+02 -0.27031420796E+02 -0.19157605780E+03  0.19389262837E+03  0.00000000000E+00 0. -1.
        -14    1    4    4    0    0 -0.50782538597E+02  0.35596237726E+02 -0.15263133883E+03  0.16474915465E+03  0.00000000000E+00 0.  1.
<mgrwt>
<rscale>  2 0.24874716E+03</rscale>
<asrwt>0</asrwt>
<pdfrwt beam="1">  1       21 0.74653408E-02 0.24880851E+03</pdfrwt>
<pdfrwt beam="2">  1       21 0.21542994E+00 0.24880851E+03</pdfrwt>
<totfact> 0.13925048E+04</totfact>
</mgrwt>
</event>
<event>
12    1  0.1029207E-001  0.2075727E+03  0.7546771E-02  0.1143701E+00
         21   -1    0    0  503  502  0.00000000000E+00  0.00000000000E+00  0.12602086738E+03  0.12602086738E+03  0.00000000000E+00 0. -1.
         21   -1    0    0  501  503 -0.00000000000E+00 -0.00000000000E+00 -0.34545537210E+03  0.34545537210E+03  0.00000000000E+00 0. -1.
          6    2    1    2  501    0  0.42230944930E+02 -0.10571794090E+03 -0.13830911211E+03  0.24861359856E+03  0.17239366334E+03 0.  0.
         24    2    3    3    0    0  0.27270499849E+02 -0.12018303185E+03 -0.45983618511E+02  0.15385527153E+03  0.79807957607E+02 0.  0.
         -6    2    1    2    0  502 -0.42230944930E+02  0.10571794090E+03 -0.81125392614E+02  0.22286264092E+03  0.17357042275E+03 0.  0.
        -24    2    5    5    0    0  0.42185528613E+02  0.70694009941E+02 -0.51740762597E+02  0.12674623636E+03  0.81303382774E+02 0.  0.
          5    1    3    3  501    0  0.14960445080E+02  0.14465090958E+02 -0.92325493600E+02  0.94758327033E+02  0.47000000000E+01 0. -1.
        -11    1    4    4    0    0  0.54422600064E+02 -0.96434455424E+02 -0.33617061780E+02  0.11572178029E+03  0.00000000000E+00 0.  1.
         12    1    4    4    0    0 -0.27152100215E+02 -0.23748576431E+02 -0.12366556730E+02  0.38133491237E+02  0.00000000000E+00 0. -1.
         -5    1    5    5    0  502 -0.84416473543E+02  0.35023930955E+02 -0.29384630017E+02  0.96116404563E+02  0.47000000000E+01 0.  1.
         13    1    6    6    0    0 -0.21830031146E+02  0.17807779869E+02 -0.29483480887E+02  0.40779197257E+02  0.00000000000E+00 0. -1.
        -14    1    6    6    0    0  0.64015559759E+02  0.52886230072E+02 -0.22257281711E+02  0.85967039100E+02  0.00000000000E+00 0.  1.
<mgrwt>
<rscale>  2 0.20732652E+03</rscale>
<asrwt>0</asrwt>
<pdfrwt beam="1">  1       21 0.19387826E-01 0.20757270E+03</pdfrwt>
<pdfrwt beam="2">  1       21 0.53146980E-01 0.20757270E+03</pdfrwt>
<totfact> 0.81497448E+04</totfact>
</mgrwt>
</event>
<event>
12    1  0.1029207E-001  0.1729806E+03  0.7546771E-02  0.1175132E+00
         21   -1    0    0  503  502  0.00000000000E+00  0.00000000000E+00  0.17661040387E+04  0.17661040387E+04  0.00000000000E+00 0. -1.
         21   -1    0    0  501  503 -0.00000000000E+00 -0.00000000000E+00 -0.32492679538E+02  0.32492679538E+02  0.00000000000E+00 0. -1.
          6    2    1    2  501    0  0.71779102126E+01  0.28072993639E+01  0.24377518357E+03  0.29891238120E+03  0.17280876189E+03 0.  0.
         24    2    3    3    0    0  0.33815642984E+02 -0.22785223179E+02  0.24573981609E+03  0.26162302885E+03  0.79974295316E+02 0.  0.
         -6    2    1    2    0  502 -0.71779102126E+01 -0.28072993639E+01  0.14898361756E+04  0.14996843370E+04  0.17141142706E+03 0.  0.
        -24    2    5    5    0    0  0.11396752525E+00  0.64971291903E+02  0.86597495066E+03  0.87209209132E+03  0.80066964506E+02 0.  0.
          5    1    3    3  501    0 -0.26637732771E+02  0.25592522542E+02 -0.19646325188E+01  0.37289352343E+02  0.47000000000E+01 0. -1.
        -11    1    4    4    0    0  0.36665922255E+02 -0.45197183834E+02  0.11438849835E+03  0.12834291502E+03  0.00000000000E+00 0.  1.
         12    1    4    4    0    0 -0.28502792717E+01  0.22411960655E+02  0.13135131774E+03  0.13328011384E+03  0.00000000000E+00 0. -1.
         -5    1    5    5    0  502 -0.72918777379E+01 -0.67778591267E+02  0.62386122489E+03  0.62759224568E+03  0.47000000000E+01 0.  1.
         11    1    6    6    0    0 -0.16315385031E+02 -0.10148200669E+02  0.33814454493E+03  0.33868999252E+03  0.00000000000E+00 0. -1.
        -12    1    6    6    0    0  0.16429352556E+02  0.75119492572E+02  0.52783040573E+03  0.53340209880E+03  0.00000000000E+00 0.  1.
<mgrwt>
<rscale>  2 0.17263051E+03</rscale>
<asrwt>0</asrwt>
<pdfrwt beam="1">  1       21 0.27170824E+00 0.17298055E+03</pdfrwt>
<pdfrwt beam="2">  1       21 0.49988752E-02 0.17298055E+03</pdfrwt>
<totfact> 0.13640629E+04</totfact>
</mgrwt>
</event>
<event>
12    1  0.1029207E-001  0.1910398E+03  0.7546771E-02  0.1157726E+00
         21   -1    0    0  503  502  0.00000000000E+00  0.00000000000E+00  0.11496039590E+04  0.11496039590E+04  0.00000000000E+00 0. -1.
         21   -1    0    0  501  503 -0.00000000000E+00 -0.00000000000E+00 -0.50413954752E+02  0.50413954752E+02  0.00000000000E+00 0.  1.
          6    2    1    2  501    0  0.33282135961E+02  0.74087252322E+02  0.18385125062E+03  0.26513671390E+03  0.17291493044E+03 0.  0.
         24    2    3    3    0    0 -0.21661264777E+02 -0.17073154621E+02  0.81725410232E+02  0.11755360391E+03  0.79869293937E+02 0.  0.
         -6    2    1    2    0  502 -0.33282135961E+02 -0.74087252322E+02  0.91533875368E+03  0.93488119991E+03  0.17193371519E+03 0.  0.
        -24    2    5    5    0    0 -0.62690276542E+02 -0.10197102603E+03  0.79192005732E+03  0.80489424603E+03  0.79932528901E+02 0.  0.
          5    1    3    3  501    0  0.54943400738E+02  0.91160406943E+02  0.10212584039E+03  0.14758310999E+03  0.47000000000E+01 0. -1.
        -13    1    4    4    0    0  0.19740698128E+02 -0.23862893697E+02  0.68399189743E+01  0.31716200115E+02  0.00000000000E+00 0.  1.
         14    1    4    4    0    0 -0.41401962906E+02  0.67897390760E+01  0.74885491258E+02  0.85837403794E+02  0.00000000000E+00 0. -1.
         -5    1    5    5    0  502  0.29408140582E+02  0.27883773703E+02  0.12341869636E+03  0.12998695388E+03  0.47000000000E+01 0.  1.
         13    1    6    6    0    0 -0.10187014000E+02 -0.16771651780E+02  0.39721613458E+03  0.39770054202E+03  0.00000000000E+00 0. -1.
        -14    1    6    6    0    0 -0.52503262542E+02 -0.85199374246E+02  0.39470392274E+03  0.40719370400E+03  0.00000000000E+00 0.  1.
<mgrwt>
<rscale>  2 0.19081747E+03</rscale>
<asrwt>0</asrwt>
<pdfrwt beam="1">  1       21 0.17686213E+00 0.19103977E+03</pdfrwt>
<pdfrwt beam="2">  1       21 0.77559939E-02 0.19103977E+03</pdfrwt>
<totfact> 0.24239509E+04</totfact>
</mgrwt>
</event>
<event>
12    1  0.1029207E-001  0.2093229E+03  0.7546771E-02  0.1142779E+00
         21   -1    0    0  503  502  0.00000000000E+00  0.00000000000E+00  0.14879926469E+04  0.14879926469E+04  0.00000000000E+00 0.  1.
         21   -1    0    0  501  503 -0.00000000000E+00 -0.00000000000E+00 -0.30351636609E+02  0.30351636609E+02  0.00000000000E+00 0.  1.
          6    2    1    2  501    0  0.19111824291E+02 -0.11754201572E+03  0.57276471272E+03  0.60981596237E+03  0.17214733382E+03 0.  0.
         24    2    3    3    0    0 -0.24798059947E+02 -0.13773978514E+03  0.33242674552E+03  0.36462123099E+03  0.53421987630E+02 0.  0.
         -6    2    1    2    0  502 -0.19111824291E+02  0.11754201572E+03  0.88487629755E+03  0.90852832111E+03  0.16803648715E+03 0.  0.
        -24    2    5    5    0    0 -0.14819736730E+02  0.62982421339E+02  0.80660668310E+03  0.81290722563E+03  0.77571942560E+02 0.  0.
          5    1    3    3  501    0  0.43909884239E+02  0.20197769415E+02  0.24033796720E+03  0.24519473139E+03  0.47000000000E+01 0. -1.
        -11    1    4    4    0    0  0.19517892930E+01 -0.11392744200E+03  0.24901230646E+03  0.27384375160E+03  0.00000000000E+00 0.  1.
         12    1    4    4    0    0 -0.26749849240E+02 -0.23812343140E+02  0.83414439058E+02  0.90777479385E+02  0.00000000000E+00 0. -1.
         -5    1    5    5    0  502 -0.42920875615E+01  0.54559594381E+02  0.78269614452E+02  0.95621095481E+02  0.47000000000E+01 0.  1.
         13    1    6    6    0    0  0.54791446861E+01 -0.16762209716E+02  0.10218106744E+03  0.10369167394E+03  0.00000000000E+00 0. -1.
        -14    1    6    6    0    0 -0.20298881416E+02  0.79744631055E+02  0.70442561566E+03  0.70921555169E+03  0.00000000000E+00 0.  1.
<mgrwt>
<rscale>  2 0.20847594E+03</rscale>
<asrwt>0</asrwt>
<pdfrwt beam="1">  1       21 0.22892189E+00 0.20932294E+03</pdfrwt>
<pdfrwt beam="2">  1       21 0.46694837E-02 0.20932294E+03</pdfrwt>
<totfact> 0.26465716E+04</totfact>
</mgrwt>
</event>
<event>
12    1  0.1029207E-001  0.1749879E+03  0.7546771E-02  0.1172766E+00
         21   -1    0    0  503  502  0.00000000000E+00  0.00000000000E+00  0.10150481716E+03  0.10150481716E+03  0.00000000000E+00 0.  1.
         21   -1    0    0  501  503 -0.00000000000E+00 -0.00000000000E+00 -0.69340634147E+03  0.69340634147E+03  0.00000000000E+00 0.  1.
          6    2    1    2  501    0 -0.17537474212E+02  0.14157686956E+02 -0.59478098856E+03  0.61998804786E+03  0.17353026260E+03 0.  0.
         24    2    3    3    0    0 -0.34290534168E+02  0.49672117905E+01 -0.13359068424E+03  0.15837812959E+03  0.77695862755E+02 0.  0.
         -6    2    1    2    0  502  0.17537474212E+02 -0.14157686956E+02  0.28794642477E+01  0.17492311076E+03  0.17344105703E+03 0.  0.
        -24    2    5    5    0    0 -0.27991114802E+02  0.40833865314E+02  0.29175843128E+02  0.98696391165E+02  0.80242387443E+02 0.  0.
          5    1    3    3  501    0  0.16753059956E+02  0.91904751651E+01 -0.46119030432E+03  0.46160991827E+03  0.47000000000E+01 0. -1.
        -13    1    4    4    0    0  0.18750997397E+02 -0.19126856921E+02 -0.40169576205E+02  0.48280756120E+02  0.00000000000E+00 0.  1.
         14    1    4    4    0    0 -0.53041531565E+02  0.24094068711E+02 -0.93421108037E+02  0.11009737347E+03  0.00000000000E+00 0. -1.
         -5    1    5    5    0  502  0.45528589013E+02 -0.54991552269E+02 -0.26296378880E+02  0.76226719598E+02  0.47000000000E+01 0.  1.
         13    1    6    6    0    0 -0.26670153988E+01  0.37137685414E+02 -0.20727002825E+02  0.42613721912E+02  0.00000000000E+00 0. -1.
        -14    1    6    6    0    0 -0.25324099403E+02  0.36961798993E+01  0.49902845953E+02  0.56082669254E+02  0.00000000000E+00 0.  1.
<mgrwt>
<rscale>  2 0.17496575E+03</rscale>
<asrwt>0</asrwt>
<pdfrwt beam="1">  1       21 0.15616126E-01 0.17498787E+03</pdfrwt>
<pdfrwt beam="2">  1       21 0.10667789E+00 0.17498787E+03</pdfrwt>
<totfact> 0.25907933E+04</totfact>
</mgrwt>
</event>
<event>
12    1  0.1029207E-001  0.1860237E+03  0.7546771E-02  0.1163884E+00
         21   -1    0    0  503  502  0.00000000000E+00  0.00000000000E+00  0.53029647566E+03  0.53029647566E+03  0.00000000000E+00 0.  1.
         21   -1    0    0  501  503 -0.00000000000E+00 -0.00000000000E+00 -0.12742377181E+03  0.12742377181E+03  0.00000000000E+00 0. -1.
          6    2    1    2  501    0  0.49250807207E+02  0.62591920068E+01 -0.30982352258E+02  0.18858610240E+03  0.17927630176E+03 0.  0.
         24    2    3    3    0    0 -0.33283761986E+02  0.40421983544E+02 -0.11585823470E+02  0.97058146201E+02  0.80896890379E+02 0.  0.
         -6    2    1    2    0  502 -0.49250807207E+02 -0.62591920068E+01  0.43385505611E+03  0.46913414507E+03  0.17144041783E+03 0.  0.
        -24    2    5    5    0    0  0.26683842241E+02 -0.39618512532E+02  0.18467704112E+03  0.20647335925E+03  0.79018887568E+02 0.  0.
          5    1    3    3  501    0  0.82534569193E+02 -0.34162791537E+02 -0.19396528788E+02  0.91527956202E+02  0.47000000000E+01 0. -1.
        -11    1    4    4    0    0  0.26267155385E+02  0.18019639551E+02  0.22944381075E+01  0.31936426033E+02  0.00000000000E+00 0.  1.
         12    1    4    4    0    0 -0.59550917371E+02  0.22402343993E+02 -0.13880261577E+02  0.65121720168E+02  0.00000000000E+00 0. -1.
         -5    1    5    5    0  502 -0.75934649448E+02  0.33359320525E+02  0.24917801499E+03  0.26266078581E+03  0.47000000000E+01 0.  1.
         13    1    6    6    0    0 -0.21794174494E+02 -0.40301438729E+01  0.15830435418E+02  0.27236570765E+02  0.00000000000E+00 0. -1.
        -14    1    6    6    0    0  0.48478016736E+02 -0.35588368659E+02  0.16884660570E+03  0.17923678849E+03  0.00000000000E+00 0.  1.
<mgrwt>
<rscale>  2 0.18410949E+03</rscale>
<asrwt>0</asrwt>
<pdfrwt beam="1">  1       21 0.81584072E-01 0.18602369E+03</pdfrwt>
<pdfrwt beam="2">  1       21 0.19603658E-01 0.18602369E+03</pdfrwt>
<totfact> 0.31637780E+04</totfact>
</mgrwt>
</event>
<event>
12    1  0.1029207E-001  0.2345086E+03  0.7546771E-02  0.1123606E+00
         21   -1    0    0  503  502  0.00000000000E+00  0.00000000000E+00  0.13351127908E+04  0.13351127908E+04  0.00000000000E+00 0.  1.
         21   -1    0    0  501  503 -0.00000000000E+00 -0.00000000000E+00 -0.60947552733E+02  0.60947552733E+02  0.00000000000E+00 0.  1.
          6    2    1    2  501    0  0.31857750769E+02  0.15512180675E+03  0.23916674362E+03  0.33495520972E+03  0.17296407156E+03 0.  0.
         24    2    3    3    0    0  0.34152617965E+02  0.41359971793E+02  0.38000303286E+02  0.10379066178E+03  0.80320793331E+02 0.  0.
         -6    2    1    2    0  502 -0.31857750769E+02 -0.15512180675E+03  0.10349984944E+04  0.10611051338E+04  0.17217587023E+03 0.  0.
        -24    2    5    5    0    0 -0.22592039142E+02 -0.45800853531E+01  0.40418734761E+03  0.41249627150E+03  0.79084667439E+02 0.  0.
          5    1    3    3  501    0 -0.22948671959E+01  0.11376183496E+03  0.20116644034E+03  0.23116454794E+03  0.47000000000E+01 0. -1.
        -13    1    4    4    0    0  0.15880935049E+00  0.57462615936E+02  0.13908852974E+02  0.59122192463E+02  0.00000000000E+00 0.  1.
         14    1    4    4    0    0  0.33993808614E+02 -0.16102644143E+02  0.24091450313E+02  0.44668469312E+02  0.00000000000E+00 0. -1.
         -5    1    5    5    0  502 -0.92657116263E+01 -0.15054172140E+03  0.63081114680E+03  0.64860886227E+03  0.47000000000E+01 0.  1.
         13    1    6    6    0    0 -0.56662143991E+01 -0.21773454958E+02  0.29835299823E+02  0.37367558684E+02  0.00000000000E+00 0. -1.
        -14    1    6    6    0    0 -0.16925824743E+02  0.17193369605E+02  0.37435204778E+03  0.37512871282E+03  0.00000000000E+00 0.  1.
<mgrwt>
<rscale>  2 0.23436323E+03</rscale>
<asrwt>0</asrwt>
<pdfrwt beam="1">  1       21 0.20540195E+00 0.23450855E+03</pdfrwt>
<pdfrwt beam="2">  1       21 0.93765476E-02 0.23450855E+03</pdfrwt>
<totfact> 0.10909209E+04</totfact>
</mgrwt>
</event>
<event>
12    1  0.1029207E-001  0.1848205E+03  0.7546771E-02  0.1163287E+00
         21   -1    0    0  503  502  0.00000000000E+00  0.00000000000E+00  0.12140536503E+03  0.12140536503E+03  0.00000000000E+00 0.  1.
         21   -1    0    0  501  503 -0.00000000000E+00 -0.00000000000E+00 -0.28221356173E+03  0.28221356173E+03  0.00000000000E+00 0.  1.
          6    2    1    2  501    0 -0.22251215951E+02 -0.58977615755E+02 -0.94072707555E+02  0.20711896935E+03  0.17342179041E+03 0.  0.
         24    2    3    3    0    0 -0.19951090854E+01  0.14817702419E+02  0.56012687260E+01  0.81369017475E+02  0.79787204665E+02 0.  0.
         -6    2    1    2    0  502  0.22251215951E+02  0.58977615755E+02 -0.66735489149E+02  0.19649995741E+03  0.17373868878E+03 0.  0.
        -24    2    5    5    0    0  0.41453893128E+02 -0.20759439153E+02 -0.17465835776E+02  0.10070679753E+03  0.87677956634E+02 0.  0.
          5    1    3    3  501    0 -0.20256106865E+02 -0.73795318175E+02 -0.99673976281E+02  0.12574995188E+03  0.47000000000E+01 0. -1.
        -13    1    4    4    0    0  0.28352889339E+01 -0.26079137668E+02 -0.19904154232E+02  0.32929252050E+02  0.00000000000E+00 0.  1.
         14    1    4    4    0    0 -0.48303980192E+01  0.40896840088E+02  0.25505422958E+02  0.48439765425E+02  0.00000000000E+00 0. -1.
         -5    1    5    5    0  502 -0.19202677177E+02  0.79737054908E+02 -0.49269653373E+02  0.95793159879E+02  0.47000000000E+01 0.  1.
         13    1    6    6    0    0  0.63505738556E+02  0.17111232800E+01 -0.25105702851E+02  0.68309611974E+02  0.00000000000E+00 0. -1.
        -14    1    6    6    0    0 -0.22051845428E+02 -0.22470562433E+02  0.76398670749E+01  0.32397185553E+02  0.00000000000E+00 0.  1.
<mgrwt>
<rscale>  2 0.18474596E+03</rscale>
<asrwt>0</asrwt>
<pdfrwt beam="1">  1       21 0.18677749E-01 0.18482047E+03</pdfrwt>
<pdfrwt beam="2">  1       21 0.43417470E-01 0.18482047E+03</pdfrwt>
<totfact> 0.13404595E+05</totfact>
</mgrwt>
</event>
<event>
12    1  0.1029207E-001  0.2218728E+03  0.7546771E-02  0.1132859E+00
         21   -1    0    0  503  502  0.00000000000E+00  0.00000000000E+00  0.46019736998E+03  0.46019736998E+03  0.00000000000E+00 0.  1.
         21   -1    0    0  501  503 -0.00000000000E+00 -0.00000000000E+00 -0.13772011527E+03  0.13772011527E+03  0.00000000000E+00 0.  1.
          6    2    1    2  501    0  0.10703178284E+03  0.84802859763E+02  0.18368516500E+02  0.22263181399E+03  0.17487193783E+03 0.  0.
         24    2    3    3    0    0  0.13103607332E+03  0.82676388246E+02 -0.22433994598E+02  0.17501183127E+03  0.78230552139E+02 0.  0.
         -6    2    1    2    0  502 -0.10703178284E+03 -0.84802859763E+02  0.30410873821E+03  0.37528567125E+03  0.17236555000E+03 0.  0.
        -24    2    5    5    0    0 -0.11061529000E+03 -0.53938398419E+02  0.31034860087E+03  0.34324690748E+03  0.79731375419E+02 0.  0.
          5    1    3    3  501    0 -0.24004290477E+02  0.21264715173E+01  0.40802511098E+02  0.47619982721E+02  0.47000000000E+01 0. -1.
        -13    1    4    4    0    0  0.15388894797E+02 -0.79724073000E+00 -0.28345798315E+02  0.32263570137E+02  0.00000000000E+00 0.  1.
         14    1    4    4    0    0  0.11564717852E+03  0.83473628976E+02  0.59118037171E+01  0.14274826114E+03  0.00000000000E+00 0. -1.
         -5    1    5    5    0  502  0.35835071566E+01 -0.30864461344E+02 -0.62398626642E+01  0.32038763766E+02  0.47000000000E+01 0.  1.
         11    1    6    6    0    0 -0.22862074667E+02 -0.16744880285E+02  0.13341466637E+02  0.31321880625E+02  0.00000000000E+00 0. -1.
        -12    1    6    6    0    0 -0.87753215331E+02 -0.37193518134E+02  0.29700713424E+03  0.31192502686E+03  0.00000000000E+00 0.  1.
<mgrwt>
<rscale>  2 0.22137860E+03</rscale>
<asrwt>0</asrwt>
<pdfrwt beam="1">  1       21 0.70799595E-01 0.22187276E+03</pdfrwt>
<pdfrwt beam="2">  1       21 0.21187710E-01 0.22187276E+03</pdfrwt>
<totfact> 0.36882004E+04</totfact>
</mgrwt>
</event>
<event>
12    1  0.1029207E-001  0.2902652E+03  0.7546771E-02  0.1090278E+00
         21   -1    0    0  501  502  0.00000000000E+00  0.00000000000E+00  0.29714922209E+03  0.29714922209E+03  0.00000000000E+00 0.  1.
         21   -1    0    0  502  503 -0.00000000000E+00 -0.00000000000E+00 -0.28944659374E+03  0.28944659374E+03  0.00000000000E+00 0. -1.
         -6    2    1    2    0  503  0.18809562886E+03 -0.13607728976E+03 -0.39789815358E+02  0.29297967826E+03  0.17423222458E+03 0.  0.
        -24    2    3    3    0    0  0.41802629245E+02 -0.91980972605E+02 -0.52549804176E+02  0.13958139196E+03  0.80706405760E+02 0.  0.
          6    2    1    2  501    0 -0.18809562886E+03  0.13607728976E+03  0.47492443714E+02  0.29361613757E+03  0.17337217092E+03 0.  0.
         24    2    5    5    0    0 -0.17650803765E+03  0.65239450721E+02  0.73611405203E+02  0.21708796068E+03  0.79355342681E+02 0.  0.
          5    1    5    5  501    0 -0.11587591215E+02  0.70837839036E+02 -0.26118961489E+02  0.76528176894E+02  0.47000000000E+01 0. -1.
        -11    1    6    6    0    0 -0.11718586161E+03  0.81451136471E+02  0.52721332606E+02  0.15213925432E+03  0.00000000000E+00 0.  1.
         12    1    6    6    0    0 -0.59322176036E+02 -0.16211685750E+02  0.20890072597E+02  0.64948706358E+02  0.00000000000E+00 0. -1.
         -5    1    3    3    0  503  0.14629299962E+03 -0.44096317152E+02  0.12759988818E+02  0.15339828629E+03  0.47000000000E+01 0.  1.
         11    1    4    4    0    0  0.14998701353E+02  0.13140687502E+02 -0.14349314887E+02  0.24567082611E+02  0.00000000000E+00 0. -1.
        -12    1    4    4    0    0  0.26803927892E+02 -0.10512166011E+03 -0.38200489289E+02  0.11501430935E+03  0.00000000000E+00 0.  1.
<mgrwt>
<rscale>  2 0.29013621E+03</rscale>
<asrwt>0</asrwt>
<pdfrwt beam="1">  1       21 0.45715265E-01 0.29026516E+03</pdfrwt>
<pdfrwt beam="2">  1       21 0.44530245E-01 0.29026516E+03</pdfrwt>
<totfact> 0.21161655E+04</totfact>
</mgrwt>
</event>
<event>
12    1  0.1029207E-001  0.1861195E+03  0.7546771E-02  0.1162261E+00
         21   -1    0    0  501  502  0.00000000000E+00  0.00000000000E+00  0.40335766224E+03  0.40335766224E+03  0.00000000000E+00 0. -1.
         21   -1    0    0  502  503 -0.00000000000E+00 -0.00000000000E+00 -0.24329294647E+03  0.24329294647E+03  0.00000000000E+00 0. -1.
         -6    2    1    2    0  503 -0.29193447896E+02 -0.47575859650E+02 -0.18053626396E+03  0.25851469722E+03  0.17641084505E+03 0.  0.
        -24    2    3    3    0    0  0.24450564862E+02 -0.43611978146E+02 -0.18223777688E+03  0.20449268682E+03  0.78146125194E+02 0.  0.
          6    2    1    2  501    0  0.29193447896E+02  0.47575859650E+02  0.34060097974E+03  0.38813591149E+03  0.17755207284E+03 0.  0.
         24    2    5    5    0    0 -0.33878142842E+02 -0.30340291662E+02  0.18489839436E+03  0.20289461672E+03  0.70075298059E+02 0.  0.
          5    1    5    5  501    0  0.63071590738E+02  0.77916151312E+02  0.15570258538E+03  0.18524129477E+03  0.47000000000E+01 0. -1.
        -13    1    6    6    0    0  0.70000386372E+01 -0.17215077577E+02  0.69511885787E+01  0.19841332101E+02  0.00000000000E+00 0.  1.
         14    1    6    6    0    0 -0.40878181479E+02 -0.13125214085E+02  0.17794720578E+03  0.18305328462E+03  0.00000000000E+00 0. -1.
         -5    1    3    3    0  503 -0.53644012758E+02 -0.39638815045E+01  0.17015129141E+01  0.54022010399E+02  0.47000000000E+01 0.  1.
         13    1    4    4    0    0  0.35402453726E+02 -0.38005818904E+02 -0.51385593466E+02  0.73063364392E+02  0.00000000000E+00 0. -1.
        -14    1    4    4    0    0 -0.10951888864E+02 -0.56061592415E+01 -0.13085218341E+03  0.13142932243E+03  0.00000000000E+00 0.  1.
<mgrwt>
<rscale>  2 0.18584678E+03</rscale>
<asrwt>0</asrwt>
<pdfrwt beam="1">  1       21 0.62055025E-01 0.18611947E+03</pdfrwt>
<pdfrwt beam="2">  1       21 0.37429684E-01 0.18611947E+03</pdfrwt>
<totfact> 0.16657325E+04</totfact>
</mgrwt>
</event>
<event>
11    1  0.1029207E-001  0.2222012E+03  0.7546771E-02  0.1132258E+00
         21   -1    0    0  501  502  0.00000000000E+00  0.00000000000E+00  0.10515510758E+04  0.10515510758E+04  0.00000000000E+00 0. -1.
         21   -1    0    0  502  503 -0.00000000000E+00 -0.00000000000E+00 -0.16494718730E+03  0.16494718730E+03  0.00000000000E+00 0.  1.
         -6    2    1    2    0  503 -0.13112103930E+03  0.45512997970E+02 -0.71165745413E+02  0.23329125366E+03  0.17348223477E+03 0.  0.
          6    2    1    2  501    0  0.13112103930E+03 -0.45512997970E+02  0.95776963388E+03  0.98320700941E+03  0.17352000414E+03 0.  0.
         24    2    4    4    0    0  0.78058261688E+02  0.23444083533E+02  0.32874415362E+03  0.34817481946E+03  0.80686238572E+02 0.  0.
          5    1    4    4  501    0  0.53062777613E+02 -0.68957081502E+02  0.62902548026E+03  0.63503218995E+03  0.47000000000E+01 0. -1.
        -11    1    5    5    0    0  0.55633239101E+01  0.38056818921E+02  0.14730066811E+03  0.15223915024E+03  0.00000000000E+00 0.  1.
         12    1    5    5    0    0  0.72494937778E+02 -0.14612735388E+02  0.18144348551E+03  0.19593566922E+03  0.00000000000E+00 0. -1.
         -5    1    3    3    0  503 -0.16606056324E+03  0.63205257837E+02 -0.61608431959E+02  0.18811885650E+03  0.47000000000E+01 0.  1.
         11    1    3    3    0    0  0.23069380623E+02 -0.66479001230E+01 -0.14714291443E+02  0.28158502642E+02  0.00000000000E+00 0. -1.
        -12    1    3    3    0    0  0.11870143319E+02 -0.11044359745E+02  0.51569779887E+01  0.17013894514E+02  0.00000000000E+00 0.  1.
<mgrwt>
<rscale>  2 0.22219378E+03</rscale>
<asrwt>0</asrwt>
<pdfrwt beam="1">  1       21 0.16177708E+00 0.22220115E+03</pdfrwt>
<pdfrwt beam="2">  1       21 0.25376491E-01 0.22220115E+03</pdfrwt>
<totfact> 0.35055042E+03</totfact>
</mgrwt>
</event>
<event>
11    1  0.1029207E-001  0.2132550E+03  0.7546771E-02  0.1139161E+00
         21   -1    0    0  501  502  0.00000000000E+00  0.00000000000E+00  0.13995489027E+03  0.13995489027E+03  0.00000000000E+00 0. -1.
         21   -1    0    0  502  503 -0.00000000000E+00 -0.00000000000E+00 -0.33272975708E+03  0.33272975708E+03  0.00000000000E+00 0.  1.
         -6    2    1    2    0  503  0.92856221511E+02  0.81299537127E+02 -0.13529347283E+03  0.25255104735E+03  0.17391324019E+03 0.  0.
        -24    2    3    3    0    0  0.20662680088E+02 -0.22080516530E+02 -0.48411753302E+02  0.99352267633E+02  0.81318384560E+02 0.  0.
          6    2    1    2  501    0 -0.92856221511E+02 -0.81299537127E+02 -0.57481393980E+02  0.22013360000E+03  0.17298207591E+03 0.  0.
          5    1    5    5  501    0 -0.10302802185E+02 -0.48859941201E+02  0.15120085670E+02  0.52384621576E+02  0.47000000000E+01 0. -1.
        -11    1    5    5    0    0 -0.62266480392E+02 -0.69357879654E+02 -0.82502430570E+02  0.12447602621E+03  0.00000000000E+00 0.  1.
         12    1    5    5    0    0 -0.20286938934E+02  0.36918283727E+02  0.99009509202E+01  0.43272952220E+02  0.00000000000E+00 0. -1.
         -5    1    3    3    0  503  0.72193541423E+02  0.10338005366E+03 -0.86881719528E+02  0.15319877971E+03  0.47000000000E+01 0.  1.
         11    1    4    4    0    0  0.28001131201E+02 -0.15760676297E+02  0.14818721920E+02  0.35384414440E+02  0.00000000000E+00 0. -1.
        -12    1    4    4    0    0 -0.73384511139E+01 -0.63198402333E+01 -0.63230475222E+02  0.63967853193E+02  0.00000000000E+00 0.  1.
<mgrwt>
<rscale>  2 0.21306510E+03</rscale>
<asrwt>0</asrwt>
<pdfrwt beam="1">  1       21 0.21531522E-01 0.21325503E+03</pdfrwt>
<pdfrwt beam="2">  1       21 0.51189193E-01 0.21325503E+03</pdfrwt>
<totfact> 0.72270458E+04</totfact>
</mgrwt>
</event>
<event>
12    1  0.1029207E-001  0.2082758E+03  0.7546771E-02  0.1143419E+00
         21   -1    0    0  501  502  0.00000000000E+00  0.00000000000E+00  0.12776688465E+03  0.12776688465E+03  0.00000000000E+00 0.  1.
         21   -1    0    0  502  503 -0.00000000000E+00 -0.00000000000E+00 -0.35853197930E+03  0.35853197930E+03  0.00000000000E+00 0.  1.
         -6    2    1    2    0  503  0.88183515031E+02  0.71954566635E+02 -0.17620595805E+03  0.27099560469E+03  0.17157006186E+03 0.  0.
        -24    2    3    3    0    0  0.33439605206E+02  0.45499740386E+02 -0.17143889542E+02  0.10064424681E+03  0.81528632365E+02 0.  0.
          6    2    1    2  501    0 -0.88183515031E+02 -0.71954566635E+02 -0.54559136595E+02  0.21530325926E+03  0.17442764138E+03 0.  0.
         24    2    5    5    0    0 -0.36735674278E+01 -0.90427755987E+02 -0.40149000350E+02  0.12747995941E+03  0.80302700279E+02 0.  0.
          5    1    5    5  501    0 -0.84509947603E+02  0.18473189352E+02 -0.14410136246E+02  0.87823299843E+02  0.47000000000E+01 0. -1.
        -13    1    6    6    0    0 -0.34548970958E+02 -0.78303544737E+02 -0.17618720792E+02  0.87381324292E+02  0.00000000000E+00 0.  1.
         14    1    6    6    0    0  0.30875403530E+02 -0.12124211250E+02 -0.22530279558E+02  0.40098635121E+02  0.00000000000E+00 0. -1.
         -5    1    3    3    0  503  0.54743909825E+02  0.26454826249E+02 -0.15906206851E+03  0.17035135789E+03  0.47000000000E+01 0.  1.
         13    1    4    4    0    0  0.39494908642E+02 -0.11888034247E+02 -0.10468639969E+02  0.42553091423E+02  0.00000000000E+00 0. -1.
        -14    1    4    4    0    0 -0.60553034360E+01  0.57387774633E+02 -0.66752495735E+01  0.58091155384E+02  0.00000000000E+00 0.  1.
<mgrwt>
<rscale>  2 0.20767637E+03</rscale>
<asrwt>0</asrwt>
<pdfrwt beam="1">  1       21 0.19656444E-01 0.20827576E+03</pdfrwt>
<pdfrwt beam="2">  1       21 0.55158766E-01 0.20827576E+03</pdfrwt>
<totfact> 0.73406984E+04</totfact>
</mgrwt>
</event>
<event>
12    1  0.1029207E-001  0.1792938E+03  0.7546771E-02  0.1168571E+00
         21   -1    0    0  503  502  0.00000000000E+00  0.00000000000E+00  0.12170759134E+04  0.12170759134E+04  0.00000000000E+00 0. -1.
         21   -1    0    0  501  503 -0.00000000000E+00 -0.00000000000E+00 -0.30521348427E+02  0.30521348427E+02  0.00000000000E+00 0. -1.
          6    2    1    2  501    0 -0.21910318025E+02 -0.36103902334E+02  0.82305694754E+03  0.84228653377E+03  0.17389741881E+03 0.  0.
         24    2    3    3    0    0 -0.48742622133E+02 -0.75997363952E+02  0.45107766382E+03  0.46718369675E+03  0.81474567614E+02 0.  0.
         -6    2    1    2    0  502  0.21910318025E+02  0.36103902334E+02  0.36349761739E+03  0.40531072801E+03  0.17424900171E+03 0.  0.
        -24    2    5    5    0    0  0.14532859793E+02 -0.39707545686E+01  0.35359907443E+03  0.36311503903E+03  0.81198862253E+02 0.  0.
          5    1    3    3  501    0  0.26832304108E+02  0.39893461619E+02  0.37197928372E+03  0.37510283702E+03  0.47000000000E+01 0. -1.
        -11    1    4    4    0    0  0.23753289776E+01 -0.66954149961E+02  0.20428306777E+03  0.21498853961E+03  0.00000000000E+00 0.  1.
         12    1    4    4    0    0 -0.51117951111E+02 -0.90432139915E+01  0.24679459605E+03  0.25219515714E+03  0.00000000000E+00 0. -1.
         -5    1    5    5    0  502  0.73774582322E+01  0.40074656902E+02  0.98985429601E+01  0.42195688980E+02  0.47000000000E+01 0.  1.
         11    1    6    6    0    0  0.18296129296E+02 -0.32450856013E+02  0.82776777091E+02  0.90773350874E+02  0.00000000000E+00 0. -1.
        -12    1    6    6    0    0 -0.37632695037E+01  0.28480101445E+02  0.27082229734E+03  0.27234168816E+03  0.00000000000E+00 0.  1.
<mgrwt>
<rscale>  2 0.17920833E+03</rscale>
<asrwt>0</asrwt>
<pdfrwt beam="1">  1       21 0.18724241E+00 0.17929380E+03</pdfrwt>
<pdfrwt beam="2">  1       21 0.46955930E-02 0.17929380E+03</pdfrwt>
<totfact> 0.49077385E+04</totfact>
</mgrwt>
</event>
<event>
12    1  0.1029207E-001  0.1960432E+03  0.7546771E-02  0.1154554E+00
         21   -1    0    0  503  502  0.00000000000E+00  0.00000000000E+00  0.14220637117E+04  0.14220637117E+04  0.00000000000E+00 0.  1.
         21   -1    0    0  501  503 -0.00000000000E+00 -0.00000000000E+00 -0.26215436139E+02  0.26215436139E+02  0.00000000000E+00 0. -1.
          6    2    1    2  501    0  0.80919697559E+02  0.41473270906E+02  0.72576024039E+03  0.75010231315E+03  0.16630551407E+03 0.  0.
         24    2    3    3    0    0  0.32950581610E+02  0.81540325081E+02  0.56682069767E+03  0.57925070164E+03  0.80691428310E+02 0.  0.
         -6    2    1    2    0  502 -0.80919697559E+02 -0.41473270906E+02  0.67008803515E+03  0.69817683466E+03  0.17368041905E+03 0.  0.
        -24    2    5    5    0    0 -0.12341412993E+03 -0.37324908606E+02  0.54674406856E+03  0.56756745604E+03  0.81114390691E+02 0.  0.
          5    1    3    3  501    0  0.47969115949E+02 -0.40067054175E+02  0.15893954271E+03  0.17085161150E+03  0.47000000000E+01 0. -1.
        -11    1    4    4    0    0  0.13495885989E+01  0.21733634867E+02  0.37892709574E+03  0.37955225748E+03  0.00000000000E+00 0.  1.
         12    1    4    4    0    0  0.31600993011E+02  0.59806690213E+02  0.18789360193E+03  0.19969844416E+03  0.00000000000E+00 0. -1.
         -5    1    5    5    0  502  0.42494432369E+02 -0.41483622997E+01  0.12334396659E+03  0.13060937863E+03  0.47000000000E+01 0.  1.
         13    1    6    6    0    0 -0.35168411844E+01  0.44237352111E+01 -0.60839517282E+00  0.56839906598E+01  0.00000000000E+00 0. -1.
        -14    1    6    6    0    0 -0.11989728874E+03 -0.41748643818E+02  0.54735246373E+03  0.56188346538E+03  0.00000000000E+00 0.  1.
<mgrwt>
<rscale>  2 0.19439684E+03</rscale>
<asrwt>0</asrwt>
<pdfrwt beam="1">  1       21 0.21877897E+00 0.19604315E+03</pdfrwt>
<pdfrwt beam="2">  1       21 0.40331451E-02 0.19604315E+03</pdfrwt>
<totfact> 0.39458282E+04</totfact>
</mgrwt>
</event>
<event>
12    1  0.1029207E-001  0.1949416E+03  0.7546771E-02  0.1154362E+00
         21   -1    0    0  503  502  0.00000000000E+00  0.00000000000E+00  0.74432694416E+03  0.74432694416E+03  0.00000000000E+00 0. -1.
         21   -1    0    0  501  503 -0.00000000000E+00 -0.00000000000E+00 -0.57765361684E+02  0.57765361684E+02  0.00000000000E+00 0. -1.
          6    2    1    2  501    0  0.88586703951E+02 -0.59592204110E+01  0.48437902542E+03  0.52213529983E+03  0.17354859446E+03 0.  0.
         24    2    3    3    0    0 -0.70127153314E+01  0.39742137582E+02  0.24600289568E+03  0.26122701648E+03  0.78060961966E+02 0.  0.
         -6    2    1    2    0  502 -0.88586703951E+02  0.59592204110E+01  0.20218255706E+03  0.27995700602E+03  0.17209015780E+03 0.  0.
        -24    2    5    5    0    0 -0.15971612264E+02  0.37158033188E+02  0.17749424574E+03  0.19702377881E+03  0.75354829422E+02 0.  0.
          5    1    3    3  501    0  0.95599419282E+02 -0.45701357993E+02  0.23837612974E+03  0.26090828334E+03  0.47000000000E+01 0. -1.
        -11    1    4    4    0    0 -0.10635910976E+02 -0.22601978457E+02  0.82720851866E+02  0.86410134625E+02  0.00000000000E+00 0.  1.
         12    1    4    4    0    0  0.36231956446E+01  0.62344116039E+02  0.16328204381E+03  0.17481688186E+03  0.00000000000E+00 0. -1.
         -5    1    5    5    0  502 -0.72615091687E+02 -0.31198812777E+02  0.24688311327E+02  0.82933227210E+02  0.47000000000E+01 0.  1.
         11    1    6    6    0    0 -0.86187257866E+00  0.58689845611E+02  0.11209423481E+03  0.12653204448E+03  0.00000000000E+00 0. -1.
        -12    1    6    6    0    0 -0.15109739685E+02 -0.21531812423E+02  0.65400010921E+02  0.70491734325E+02  0.00000000000E+00 0.  1.
<mgrwt>
<rscale>  2 0.19461649E+03</rscale>
<asrwt>0</asrwt>
<pdfrwt beam="1">  1       21 0.11451183E+00 0.19494161E+03</pdfrwt>
<pdfrwt beam="2">  1       21 0.88869792E-02 0.19494161E+03</pdfrwt>
<totfact> 0.59094384E+04</totfact>
</mgrwt>
</event>
<event>
12    1  0.1029207E-001  0.1785677E+03  0.7546771E-02  0.1172879E+00
         21   -1    0    0  503  502  0.00000000000E+00  0.00000000000E+00  0.13162766826E+03  0.13162766826E+03  0.00000000000E+00 0. -1.
         21   -1    0    0  501  503 -0.00000000000E+00 -0.00000000000E+00 -0.22484887544E+03  0.22484887544E+03  0.00000000000E+00 0.  1.
          6    2    1    2  501    0 -0.40980823512E+01  0.48761802324E+02 -0.28994844644E+02  0.16670974613E+03  0.15670651165E+03 0.  0.
         24    2    3    3    0    0 -0.20287099904E+02  0.26376429671E+02  0.37343834648E+02  0.94695167270E+02  0.80407277366E+02 0.  0.
         -6    2    1    2    0  502  0.40980823512E+01 -0.48761802324E+02 -0.64226362529E+02  0.18976679757E+03  0.17173207089E+03 0.  0.
        -24    2    5    5    0    0 -0.17521473305E+02 -0.40691146932E+02  0.26665510670E+02  0.95873436364E+02  0.80733480512E+02 0.  0.
          5    1    3    3  501    0  0.16189017553E+02  0.22385372654E+02 -0.66338679291E+02  0.72014578859E+02  0.47000000000E+01 0. -1.
        -13    1    4    4    0    0 -0.41578884150E+01  0.47648507884E+02 -0.11583286290E+01  0.47843600041E+02  0.00000000000E+00 0.  1.
         14    1    4    4    0    0 -0.16129211489E+02 -0.21272078214E+02  0.38502163276E+02  0.46851567229E+02  0.00000000000E+00 0. -1.
         -5    1    5    5    0  502  0.21619555657E+02 -0.80706553927E+01 -0.90891873199E+02  0.93893361208E+02  0.47000000000E+01 0.  1.
         13    1    6    6    0    0  0.26540630263E+02  0.36903022387E+01 -0.24128327638E+01  0.26904370413E+02  0.00000000000E+00 0. -1.
        -14    1    6    6    0    0 -0.44062103568E+02 -0.44381449170E+02  0.29078343434E+02  0.68969065951E+02  0.00000000000E+00 0.  1.
<mgrwt>
<rscale>  2 0.17485371E+03</rscale>
<asrwt>0</asrwt>
<pdfrwt beam="1">  1       21 0.20250411E-01 0.17856767E+03</pdfrwt>
<pdfrwt beam="2">  1       21 0.34592134E-01 0.17856767E+03</pdfrwt>
<totfact> 0.18240677E+05</totfact>
</mgrwt>
</event>
<event>
12    1  0.1029207E-001  0.1893079E+03  0.7546771E-02  0.1159250E+00
         21   -1    0    0  503  502  0.00000000000E+00  0.00000000000E+00  0.18816725405E+03  0.18816725405E+03  0.00000000000E+00 0.  1.
         21   -1    0    0  501  503 -0.00000000000E+00 -0.00000000000E+00 -0.19583571568E+03  0.19583571568E+03  0.00000000000E+00 0.  1.
          6    2    1    2  501    0  0.53225746020E+02  0.53987522950E+02 -0.37734956179E+02  0.19303213868E+03  0.17346425272E+03 0.  0.
         24    2    3    3    0    0  0.94473082781E+02  0.47621371207E+02  0.62862315525E+01  0.13218950850E+03  0.79003740956E+02 0.  0.
         -6    2    1    2    0  502 -0.53225746020E+02 -0.53987522950E+02  0.30066494554E+02  0.19097083105E+03  0.17267956319E+03 0.  0.
        -24    2    5    5    0    0  0.81723040908E+01  0.59892355490E+01  0.58279229097E+02  0.10049994895E+03  0.81247238101E+02 0.  0.
          5    1    3    3  501    0 -0.41247336761E+02  0.63661517430E+01 -0.44021187731E+02  0.60842630180E+02  0.47000000000E+01 0. -1.
        -11    1    4    4    0    0  0.77146108068E+02  0.56023949943E+02 -0.22116540631E+02  0.97874135126E+02  0.00000000000E+00 0.  1.
         12    1    4    4    0    0  0.17326974713E+02 -0.84025787365E+01  0.28402772184E+02  0.34315373375E+02  0.00000000000E+00 0. -1.
         -5    1    5    5    0  502 -0.61398050111E+02 -0.59976758499E+02 -0.28212734544E+02  0.90470882099E+02  0.47000000000E+01 0.  1.
         11    1    6    6    0    0  0.21925891905E+02  0.39255806941E+02  0.39741286319E+02  0.60009440530E+02  0.00000000000E+00 0. -1.
        -12    1    6    6    0    0 -0.13753587814E+02 -0.33266571392E+02  0.18537942778E+02  0.40490508424E+02  0.00000000000E+00 0.  1.
<mgrwt>
<rscale>  2 0.18912795E+03</rscale>
<asrwt>0</asrwt>
<pdfrwt beam="1">  1       21 0.28948809E-01 0.18930790E+03</pdfrwt>
<pdfrwt beam="2">  1       21 0.30128571E-01 0.18930790E+03</pdfrwt>
<totfact> 0.12084529E+05</totfact>
</mgrwt>
</event>
<event>
12    1  0.1029207E-001  0.1755744E+03  0.7546771E-02  0.1172575E+00
         21   -1    0    0  501  502  0.00000000000E+00  0.00000000000E+00  0.43389764899E+03  0.43389764899E+03  0.00000000000E+00 0.  1.
         21   -1    0    0  502  503 -0.00000000000E+00 -0.00000000000E+00 -0.74077614640E+02  0.74077614640E+02  0.00000000000E+00 0.  1.
         -6    2    1    2    0  503  0.13196116903E+01 -0.21203294522E+02  0.12392186434E+03  0.21490229021E+03  0.17428437910E+03 0.  0.
        -24    2    3    3    0    0  0.74859919581E+01  0.36793488177E+02  0.13552908970E+02  0.89982126264E+02  0.80643045934E+02 0.  0.
          6    2    1    2  501    0 -0.13196116903E+01  0.21203294522E+02  0.23589817001E+03  0.29307297342E+03  0.17260504067E+03 0.  0.
         24    2    5    5    0    0 -0.64912742285E+02 -0.46941930431E+01  0.16280488873E+03  0.19267634057E+03  0.79893935071E+02 0.  0.
          5    1    5    5  501    0  0.63593130595E+02  0.25897487565E+02  0.73093281274E+02  0.10039663285E+03  0.47000000000E+01 0. -1.
        -11    1    6    6    0    0 -0.23204178515E+01  0.27977542501E+02  0.74503281357E+02  0.79616996655E+02  0.00000000000E+00 0.  1.
         12    1    6    6    0    0 -0.62592324433E+02 -0.32671735544E+02  0.88301607376E+02  0.11305934392E+03  0.00000000000E+00 0. -1.
         -5    1    3    3    0  503 -0.61663802678E+01 -0.57996782700E+02  0.11036895537E+03  0.12492016394E+03  0.47000000000E+01 0.  1.
         11    1    4    4    0    0  0.20266671273E+02  0.58186110386E+02 -0.16237687300E-02  0.61614620091E+02  0.00000000000E+00 0. -1.
        -12    1    4    4    0    0 -0.12780679315E+02 -0.21392622209E+02  0.13554532738E+02  0.28367506173E+02  0.00000000000E+00 0.  1.
<mgrwt>
<rscale>  2 0.17515618E+03</rscale>
<asrwt>0</asrwt>
<pdfrwt beam="1">  1       21 0.66753483E-01 0.17557439E+03</pdfrwt>
<pdfrwt beam="2">  1       21 0.11396556E-01 0.17557439E+03</pdfrwt>
<totfact> 0.13312734E+05</totfact>
</mgrwt>
</event>
<event>
12    1  0.1029207E-001  0.2720870E+03  0.7546771E-02  0.1100123E+00
         21   -1    0    0  501  502  0.00000000000E+00  0.00000000000E+00  0.51026501016E+03  0.51026501016E+03  0.00000000000E+00 0. -1.
         21   -1    0    0  502  503 -0.00000000000E+00 -0.00000000000E+00 -0.15685385079E+03  0.15685385079E+03  0.00000000000E+00 0. -1.
         -6    2    1    2    0  503  0.20734028865E+03 -0.29283561627E+02  0.84807235978E+02  0.28478469099E+03  0.17338549729E+03 0.  0.
        -24    2    3    3    0    0  0.17745318607E+03  0.12391581360E+02  0.12094326596E+02  0.19568186480E+03  0.80634576593E+02 0.  0.
          6    2    1    2  501    0 -0.20734028865E+03  0.29283561627E+02  0.26860392339E+03  0.38233416996E+03  0.17373493483E+03 0.  0.
         24    2    5    5    0    0 -0.80075007222E+02 -0.29340788230E+02  0.61494035442E+02  0.13223446597E+03  0.80196938590E+02 0.  0.
          5    1    5    5  501    0 -0.12726528142E+03  0.58624349857E+02  0.20710988794E+03  0.25009970399E+03  0.47000000000E+01 0. -1.
        -11    1    6    6    0    0 -0.41193567955E+02 -0.27635769800E+01 -0.13707628207E+02  0.43502258214E+02  0.00000000000E+00 0.  1.
         12    1    6    6    0    0 -0.38881439267E+02 -0.26577211250E+02  0.75201663649E+02  0.88732207754E+02  0.00000000000E+00 0. -1.
         -5    1    3    3    0  503  0.29887102575E+02 -0.41675142987E+02  0.72712909382E+02  0.89102826185E+02  0.47000000000E+01 0.  1.
         13    1    4    4    0    0  0.24940537473E+02 -0.25777641657E+02  0.13867422703E+02  0.38455462958E+02  0.00000000000E+00 0. -1.
        -14    1    4    4    0    0  0.15251264860E+03  0.38169223017E+02 -0.17730961071E+01  0.15722640185E+03  0.00000000000E+00 0.  1.
<mgrwt>
<rscale>  2 0.27203126E+03</rscale>
<asrwt>0</asrwt>
<pdfrwt beam="1">  1       21 0.78502308E-01 0.27208703E+03</pdfrwt>
<pdfrwt beam="2">  1       21 0.24131362E-01 0.27208703E+03</pdfrwt>
<totfact> 0.22321012E+04</totfact>
</mgrwt>
</event>
<event>
12    1  0.1029207E-001  0.2414172E+03  0.7546771E-02  0.1118971E+00
         21   -1    0    0  503  502  0.00000000000E+00  0.00000000000E+00  0.19347236442E+03  0.19347236442E+03  0.00000000000E+00 0. -1.
         21   -1    0    0  501  503 -0.00000000000E+00 -0.00000000000E+00 -0.32716311021E+03  0.32716311021E+03  0.00000000000E+00 0.  1.
          6    2    1    2  501    0  0.34279952513E+01 -0.16750594206E+03 -0.14146100714E+03  0.27980974360E+03  0.17381681246E+03 0.  0.
         24    2    3    3    0    0  0.19704884694E+02 -0.10100803698E+03 -0.16113907697E+03  0.20842189489E+03  0.82963715741E+02 0.  0.
         -6    2    1    2    0  502 -0.34279952513E+01  0.16750594206E+03  0.77702613423E+01  0.24082573103E+03  0.17281974421E+03 0.  0.
        -24    2    5    5    0    0 -0.31185785819E+02  0.17189867079E+02  0.91093402091E+01  0.87890122138E+02  0.79835134641E+02 0.  0.
          5    1    3    3  501    0 -0.16276889443E+02 -0.66497905086E+02  0.19678069832E+02  0.71387848707E+02  0.47000000000E+01 0. -1.
        -13    1    4    4    0    0  0.45468910801E+02 -0.61797916403E+02 -0.13347960740E+03  0.15395846814E+03  0.00000000000E+00 0.  1.
         14    1    4    4    0    0 -0.25764026107E+02 -0.39210120572E+02 -0.27659469570E+02  0.54463426750E+02  0.00000000000E+00 0. -1.
         -5    1    5    5    0  502  0.27757790567E+02  0.15031607498E+03 -0.13390788667E+01  0.15293560889E+03  0.47000000000E+01 0.  1.
         11    1    6    6    0    0 -0.45376115973E+02  0.24310741060E+02  0.31567721329E+02  0.60386464225E+02  0.00000000000E+00 0. -1.
        -12    1    6    6    0    0  0.14190330154E+02 -0.71208739815E+01 -0.22458381120E+02  0.27503657914E+02  0.00000000000E+00 0.  1.
<mgrwt>
<rscale>  2 0.24123780E+03</rscale>
<asrwt>0</asrwt>
<pdfrwt beam="1">  1       21 0.29764979E-01 0.24141722E+03</pdfrwt>
<pdfrwt beam="2">  1       21 0.50332786E-01 0.24141722E+03</pdfrwt>
<totfact> 0.39726628E+04</totfact>
</mgrwt>
</event>
<event>
12    1  0.1029207E-001  0.1980777E+03  0.7546771E-02  0.1151655E+00
         21   -1    0    0  503  502  0.00000000000E+00  0.00000000000E+00  0.16455632545E+03  0.16455632545E+03  0.00000000000E+00 0.  1.
         21   -1    0    0  501  503 -0.00000000000E+00 -0.00000000000E+00 -0.32335589609E+03  0.32335589609E+03  0.00000000000E+00 0.  1.
          6    2    1    2  501    0 -0.15926231849E+02  0.94438686865E+02 -0.20539612811E+03  0.28442753096E+03  0.17186954498E+03 0.  0.
         24    2    3    3    0    0  0.55647021898E+02  0.57789416119E+02 -0.95438255927E+02  0.14812374029E+03  0.79974834049E+02 0.  0.
         -6    2    1    2    0  502  0.15926231849E+02 -0.94438686865E+02  0.46596557465E+02  0.20348469057E+03  0.17338532144E+03 0.  0.
        -24    2    5    5    0    0  0.73911250022E+02 -0.40351353226E+02  0.20813307699E+02  0.11997081171E+03  0.82877604326E+02 0.  0.
          5    1    3    3  501    0 -0.71573253747E+02  0.36649270747E+02 -0.10995787218E+03  0.13630379067E+03  0.47000000000E+01 0. -1.
        -13    1    4    4    0    0  0.52052863564E+02  0.46591080297E+02 -0.10944132739E+03  0.12983694971E+03  0.00000000000E+00 0.  1.
         14    1    4    4    0    0  0.35941583340E+01  0.11198335821E+02  0.14003071464E+02  0.18286790580E+02  0.00000000000E+00 0. -1.
         -5    1    5    5    0  502 -0.57985018173E+02 -0.54087333639E+02  0.25783249767E+02  0.83513878854E+02  0.47000000000E+01 0.  1.
         13    1    6    6    0    0  0.56479579669E+02 -0.43229244946E+02 -0.21346359696E+02  0.74258855435E+02  0.00000000000E+00 0. -1.
        -14    1    6    6    0    0  0.17431670352E+02  0.28778917196E+01  0.42159667394E+02  0.45711956279E+02  0.00000000000E+00 0.  1.
<mgrwt>
<rscale>  2 0.19774551E+03</rscale>
<asrwt>0</asrwt>
<pdfrwt beam="1">  1       21 0.25316358E-01 0.19807771E+03</pdfrwt>
<pdfrwt beam="2">  1       21 0.49747060E-01 0.19807771E+03</pdfrwt>
<totfact> 0.56798922E+04</totfact>
</mgrwt>
</event>
<event>
12    1  0.1029207E-001  0.2049308E+03  0.7546771E-02  0.1145780E+00
         21   -1    0    0  501  502  0.00000000000E+00  0.00000000000E+00  0.57037537913E+03  0.57037537913E+03  0.00000000000E+00 0. -1.
         21   -1    0    0  502  503 -0.00000000000E+00 -0.00000000000E+00 -0.97825577334E+02  0.97825577334E+02  0.00000000000E+00 0. -1.
         -6    2    1    2    0  503 -0.69351402012E+02 -0.85679399852E+02  0.69588698655E+02  0.21642371142E+03  0.17276012087E+03 0.  0.
        -24    2    3    3    0    0 -0.11314211531E+03 -0.78443586024E+02  0.47853792731E+02  0.16678018506E+03  0.81062384655E+02 0.  0.
          6    2    1    2  501    0  0.69351402012E+02  0.85679399852E+02  0.40296110315E+03  0.45177724505E+03  0.17197224189E+03 0.  0.
         24    2    5    5    0    0 -0.20391181532E+02  0.78479288022E+01  0.19439941869E+03  0.21171155527E+03  0.80952198108E+02 0.  0.
          5    1    5    5  501    0  0.89742583543E+02  0.77831471050E+02  0.20856168446E+03  0.24006568978E+03  0.47000000000E+01 0. -1.
        -11    1    6    6    0    0 -0.81640260578E+01 -0.32506359253E+02  0.13347514921E+03  0.13761878567E+03  0.00000000000E+00 0.  1.
         12    1    6    6    0    0 -0.12227155474E+02  0.40354288055E+02  0.60924269476E+02  0.74092769598E+02  0.00000000000E+00 0. -1.
         -5    1    3    3    0  503  0.43790713300E+02 -0.72358138284E+01  0.21734905924E+02  0.49643526351E+02  0.47000000000E+01 0.  1.
         11    1    4    4    0    0 -0.47215065486E+02 -0.71368173591E+01 -0.16223214873E+02  0.50432026250E+02  0.00000000000E+00 0. -1.
        -12    1    4    4    0    0 -0.65927049826E+02 -0.71306768665E+02  0.64077007604E+02  0.11634815881E+03  0.00000000000E+00 0.  1.
<mgrwt>
<rscale>  2 0.20476467E+03</rscale>
<asrwt>0</asrwt>
<pdfrwt beam="1">  1       21 0.87750056E-01 0.20493081E+03</pdfrwt>
<pdfrwt beam="2">  1       21 0.15050089E-01 0.20493081E+03</pdfrwt>
<totfact> 0.43151771E+04</totfact>
</mgrwt>
</event>
<event>
12    1  0.1029207E-001  0.2052445E+03  0.7546771E-02  0.1145440E+00
         21   -1    0    0  503  502  0.00000000000E+00  0.00000000000E+00  0.14881726868E+04  0.14881726868E+04  0.00000000000E+00 0. -1.
         21   -1    0    0  501  503 -0.00000000000E+00 -0.00000000000E+00 -0.62452019098E+02  0.62452019098E+02  0.00000000000E+00 0. -1.
          6    2    1    2  501    0 -0.16925593580E+02 -0.10870373955E+03  0.13948376780E+03  0.24815527684E+03  0.17326956234E+03 0.  0.
         24    2    3    3    0    0 -0.67021985642E+02 -0.46250930176E+02  0.11837453275E+03  0.16522342710E+03  0.81579138004E+02 0.  0.
         -6    2    1    2    0  502  0.16925593580E+02  0.10870373955E+03  0.12862369000E+04  0.13024694291E+04  0.17296899217E+03 0.  0.
        -24    2    5    5    0    0 -0.52066909728E+02  0.82727086499E+02  0.93494000197E+03  0.94348983004E+03  0.80656792472E+02 0.  0.
          5    1    3    3  501    0  0.50096392062E+02 -0.62452809372E+02  0.21109235041E+02  0.82931849732E+02  0.47000000000E+01 0. -1.
        -11    1    4    4    0    0 -0.79403954972E+02 -0.30416510560E+02  0.61608473864E+02  0.10500360104E+03  0.00000000000E+00 0.  1.
         12    1    4    4    0    0  0.12381969329E+02 -0.15834419615E+02  0.56766058891E+02  0.60219826063E+02  0.00000000000E+00 0. -1.
         -5    1    5    5    0  502  0.68992503309E+02  0.25976653048E+02  0.35129689798E+03  0.35897959907E+03  0.47000000000E+01 0.  1.
         11    1    6    6    0    0  0.67561936484E+01  0.64780597262E+02  0.46239014126E+03  0.46695483151E+03  0.00000000000E+00 0. -1.
        -12    1    6    6    0    0 -0.58823103376E+02  0.17946489237E+02  0.47254986071E+03  0.47653499853E+03  0.00000000000E+00 0.  1.
<mgrwt>
<rscale>  2 0.20518109E+03</rscale>
<asrwt>0</asrwt>
<pdfrwt beam="1">  1       21 0.22894962E+00 0.20524454E+03</pdfrwt>
<pdfrwt beam="2">  1       21 0.96080041E-02 0.20524454E+03</pdfrwt>
<totfact> 0.76381528E+03</totfact>
</mgrwt>
</event>
<event>
12    1  0.1029207E-001  0.1816151E+03  0.7546771E-02  0.1166757E+00
         21   -1    0    0  501  502  0.00000000000E+00  0.00000000000E+00  0.60963315999E+03  0.60963315999E+03  0.00000000000E+00 0.  1.
         21   -1    0    0  502  503 -0.00000000000E+00 -0.00000000000E+00 -0.54376044138E+02  0.54376044138E+02  0.00000000000E+00 0.  1.
         -6    2    1    2    0  503 -0.31962968719E+02 -0.32691996268E+02  0.23335989771E+03  0.29441230949E+03  0.17358389364E+03 0.  0.
        -24    2    3    3    0    0  0.19303924841E+02 -0.64105866902E+02  0.18503591817E+03  0.21713085867E+03  0.91789515117E+02 0.  0.
          6    2    1    2  501    0  0.31962968719E+02  0.32691996268E+02  0.32189721814E+03  0.36959689464E+03  0.17576588829E+03 0.  0.
         24    2    5    5    0    0  0.75534461508E+02  0.36768408911E+02  0.13862941082E+03  0.18111805942E+03  0.80797692630E+02 0.  0.
          5    1    5    5  501    0 -0.43571492789E+02 -0.40764126433E+01  0.18326780733E+03  0.18847883522E+03  0.47000000000E+01 0. -1.
        -11    1    6    6    0    0 -0.30843456257E+01  0.30872748786E+02  0.14932858426E+02  0.34432979341E+02  0.00000000000E+00 0.  1.
         12    1    6    6    0    0  0.78618807133E+02  0.58956601253E+01  0.12369655239E+03  0.14668508008E+03  0.00000000000E+00 0. -1.
         -5    1    3    3    0  503 -0.51266893559E+02  0.31413870634E+02  0.48323979534E+02  0.77281450824E+02  0.47000000000E+01 0.  1.
         13    1    4    4    0    0  0.35686120956E+01 -0.33583271188E+01 -0.10599531568E+02  0.11677475018E+02  0.00000000000E+00 0. -1.
        -14    1    4    4    0    0  0.15735312745E+02 -0.60747539783E+02  0.19563544974E+03  0.20545338365E+03  0.00000000000E+00 0.  1.
<mgrwt>
<rscale>  2 0.18108507E+03</rscale>
<asrwt>0</asrwt>
<pdfrwt beam="1">  1       21 0.93789712E-01 0.18161510E+03</pdfrwt>
<pdfrwt beam="2">  1       21 0.83655457E-02 0.18161510E+03</pdfrwt>
<totfact> 0.10642858E+05</totfact>
</mgrwt>
</event>
<event>
12    1  0.1029207E-001  0.2347944E+03  0.7546771E-02  0.1123927E+00
         21   -1    0    0  501  502  0.00000000000E+00  0.00000000000E+00  0.52194328067E+03  0.52194328067E+03  0.00000000000E+00 0.  1.
         21   -1    0    0  502  503 -0.00000000000E+00 -0.00000000000E+00 -0.10957038956E+03  0.10957038956E+03  0.00000000000E+00 0.  1.
         -6    2    1    2    0  503 -0.11690801230E+03 -0.10484450415E+03  0.13362786474E+03  0.26705897807E+03  0.16971811377E+03 0.  0.
        -24    2    3    3    0    0  0.81227457102E+01 -0.36416036242E+02  0.49838110066E+02  0.10165656377E+03  0.80362385782E+02 0.  0.
          6    2    1    2  501    0  0.11690801230E+03  0.10484450415E+03  0.27874502637E+03  0.36445469215E+03  0.17455251221E+03 0.  0.
         24    2    5    5    0    0  0.32746578418E+02 -0.50599474760E+01  0.16121576477E+03  0.18280295731E+03  0.79551599127E+02 0.  0.
          5    1    5    5  501    0  0.84161433885E+02  0.10990445163E+03  0.11752926159E+03  0.18165173484E+03  0.47000000000E+01 0. -1.
        -11    1    6    6    0    0  0.27302255356E+02  0.21512051845E+02  0.22375866478E+02  0.41338371071E+02  0.00000000000E+00 0.  1.
         12    1    6    6    0    0  0.54443230619E+01 -0.26571999321E+02  0.13883989830E+03  0.14146458624E+03  0.00000000000E+00 0. -1.
         -5    1    3    3    0  503 -0.12503075801E+03 -0.68428467909E+02  0.83789754676E+02  0.16540241431E+03  0.47000000000E+01 0.  1.
         13    1    4    4    0    0 -0.22317298234E+02  0.14636435088E+02  0.27048370241E+02  0.37998702152E+02  0.00000000000E+00 0. -1.
        -14    1    4    4    0    0  0.30440043944E+02 -0.51052471330E+02  0.22789739825E+02  0.63657861616E+02  0.00000000000E+00 0.  1.
<mgrwt>
<rscale>  2 0.23389646E+03</rscale>
<asrwt>0</asrwt>
<pdfrwt beam="1">  1       21 0.80298965E-01 0.23479445E+03</pdfrwt>
<pdfrwt beam="2">  1       21 0.16856983E-01 0.23479445E+03</pdfrwt>
<totfact> 0.42331315E+04</totfact>
</mgrwt>
</event>
<event>
12    1  0.1029207E-001  0.1986908E+03  0.7546771E-02  0.1151592E+00
         21   -1    0    0  501  502  0.00000000000E+00  0.00000000000E+00  0.20641481662E+03  0.20641481662E+03  0.00000000000E+00 0.  1.
         21   -1    0    0  502  503 -0.00000000000E+00 -0.00000000000E+00 -0.19967858902E+03  0.19967858902E+03  0.00000000000E+00 0.  1.
         -6    2    1    2    0  503 -0.89537133778E+02 -0.91900847871E+00 -0.45897465553E+02  0.20054939050E+03  0.17348123179E+03 0.  0.
        -24    2    3    3    0    0 -0.11587534860E+03  0.35669622404E+02 -0.17078296199E+02  0.14683659880E+03  0.81054920710E+02 0.  0.
          6    2    1    2  501    0  0.89537133778E+02  0.91900847871E+00  0.52633693146E+02  0.20554401515E+03  0.17737049813E+03 0.  0.
         24    2    5    5    0    0 -0.15269446574E+02  0.21969893826E+02 -0.24096466623E+01  0.85213560496E+02  0.80868487447E+02 0.  0.
          5    1    5    5  501    0  0.10480658035E+03 -0.21050885347E+02  0.55043339809E+02  0.12033045465E+03  0.47000000000E+01 0. -1.
        -11    1    6    6    0    0  0.27563976646E+02 -0.97749017862E+01  0.91821999527E+01  0.30653455098E+02  0.00000000000E+00 0.  1.
         12    1    6    6    0    0 -0.42833423220E+02  0.31744795612E+02 -0.11591846615E+02  0.54560105399E+02  0.00000000000E+00 0. -1.
         -5    1    3    3    0  503  0.26338214818E+02 -0.36588630882E+02 -0.28819169354E+02  0.53712791697E+02  0.47000000000E+01 0.  1.
         11    1    4    4    0    0 -0.62440185036E+01  0.14378341132E+02  0.23299403162E+02  0.28081784995E+02  0.00000000000E+00 0. -1.
        -12    1    4    4    0    0 -0.10963133009E+03  0.21291281271E+02 -0.40377699361E+02  0.11875481380E+03  0.00000000000E+00 0.  1.
<mgrwt>
<rscale>  2 0.19781907E+03</rscale>
<asrwt>0</asrwt>
<pdfrwt beam="1">  1       21 0.31756126E-01 0.19869081E+03</pdfrwt>
<pdfrwt beam="2">  1       21 0.30719783E-01 0.19869081E+03</pdfrwt>
<totfact> 0.96769259E+04</totfact>
</mgrwt>
</event>
<event>
12    1  0.1029207E-001  0.3253085E+03  0.7546771E-02  0.1073313E+00
         21   -1    0    0  501  502  0.00000000000E+00  0.00000000000E+00  0.22072177686E+04  0.22072177686E+04  0.00000000000E+00 0. -1.
         21   -1    0    0  502  503 -0.00000000000E+00 -0.00000000000E+00 -0.48249403006E+02  0.48249403006E+02  0.00000000000E+00 0. -1.
         -6    2    1    2    0  503 -0.81179819115E+02 -0.26218482533E+03  0.11846203609E+04  0.12284750866E+04  0.17462701189E+03 0.  0.
        -24    2    3    3    0    0 -0.99445716626E+02 -0.11179610573E+03  0.57398103319E+03  0.59930667629E+03  0.85594660863E+02 0.  0.
          6    2    1    2  501    0  0.81179819115E+02  0.26218482533E+03  0.97434800467E+03  0.10269920850E+04  0.17328491780E+03 0.  0.
         24    2    5    5    0    0  0.50162646770E+02  0.23363845817E+03  0.61128830678E+03  0.66146316096E+03  0.82200359118E+02 0.  0.
          5    1    5    5  501    0  0.31017172345E+02  0.28546367161E+02  0.36305969789E+03  0.36552892401E+03  0.47000000000E+01 0. -1.
        -11    1    6    6    0    0 -0.17615816838E+02  0.61710965003E+02  0.11218436514E+03  0.12924353750E+03  0.00000000000E+00 0.  1.
         12    1    6    6    0    0  0.67778463608E+02  0.17192749317E+03  0.49910394164E+03  0.53221962346E+03  0.00000000000E+00 0. -1.
         -5    1    3    3    0  503  0.18265897511E+02 -0.15038871960E+03  0.61063932768E+03  0.62916841029E+03  0.47000000000E+01 0.  1.
         13    1    4    4    0    0 -0.43315559911E+02 -0.99578128030E+02  0.29210093419E+03  0.31163279203E+03  0.00000000000E+00 0. -1.
        -14    1    4    4    0    0 -0.56130156716E+02 -0.12217977695E+02  0.28188009900E+03  0.28767388426E+03  0.00000000000E+00 0.  1.
<mgrwt>
<rscale>  2 0.32512876E+03</rscale>
<asrwt>0</asrwt>
<pdfrwt beam="1">  1       21 0.33957189E+00 0.32530853E+03</pdfrwt>
<pdfrwt beam="2">  1       21 0.74229868E-02 0.32530853E+03</pdfrwt>
<totfact> 0.24093595E+03</totfact>
</mgrwt>
</event>
<event>
12    1  0.1029207E-001  0.2105370E+03  0.7546771E-02  0.1141698E+00
         21   -1    0    0  501  502  0.00000000000E+00  0.00000000000E+00  0.28188485802E+03  0.28188485802E+03  0.00000000000E+00 0. -1.
         21   -1    0    0  502  503 -0.00000000000E+00 -0.00000000000E+00 -0.15523922452E+03  0.15523922452E+03  0.00000000000E+00 0. -1.
         -6    2    1    2    0  503 -0.10130052699E+03 -0.58441385029E+02  0.58920486231E+02  0.21862627485E+03  0.17506750728E+03 0.  0.
        -24    2    3    3    0    0 -0.50710624478E+02 -0.11726415384E+01 -0.30139458926E+02  0.10118347580E+03  0.82199551509E+02 0.  0.
          6    2    1    2  501    0  0.10130052699E+03  0.58441385029E+02  0.67725147267E+02  0.21849780768E+03  0.17168984867E+03 0.  0.
         24    2    5    5    0    0 -0.12293305319E+02  0.38872882882E+02  0.51077697275E+02  0.10194004258E+03  0.78234357812E+02 0.  0.
          5    1    5    5  501    0  0.11359383231E+03  0.19568502147E+02  0.16647449992E+02  0.11655776511E+03  0.47000000000E+01 0. -1.
        -11    1    6    6    0    0  0.51275858800E+01  0.58307483614E+01  0.62421222767E+02  0.62902295786E+02  0.00000000000E+00 0.  1.
         12    1    6    6    0    0 -0.17420891199E+02  0.33042134520E+02 -0.11343525492E+02  0.39037746790E+02  0.00000000000E+00 0. -1.
         -5    1    3    3    0  503 -0.50589902513E+02 -0.57268743490E+02  0.89059945157E+02  0.11744279905E+03  0.47000000000E+01 0.  1.
         13    1    4    4    0    0 -0.45826473176E+02 -0.32184662742E+02 -0.39377699438E+02  0.68458172431E+02  0.00000000000E+00 0. -1.
        -14    1    4    4    0    0 -0.48841513024E+01  0.31012021204E+02  0.92382405122E+01  0.32725303373E+02  0.00000000000E+00 0.  1.
<mgrwt>
<rscale>  2 0.20983344E+03</rscale>
<asrwt>0</asrwt>
<pdfrwt beam="1">  1       21 0.43366901E-01 0.21053699E+03</pdfrwt>
<pdfrwt beam="2">  1       21 0.23882958E-01 0.21053699E+03</pdfrwt>
<totfact> 0.83830139E+04</totfact>
</mgrwt>
</event>
<event>
12    1  0.1029207E-001  0.2560399E+03  0.7546771E-02  0.1109664E+00
         21   -1    0    0  503  502  0.00000000000E+00  0.00000000000E+00  0.95930581770E+03  0.95930581770E+03  0.00000000000E+00 0.  1.
         21   -1    0    0  501  503 -0.00000000000E+00 -0.00000000000E+00 -0.76467209302E+02  0.76467209302E+02  0.00000000000E+00 0. -1.
          6    2    1    2  501    0 -0.17187213039E+03 -0.78226042915E+02  0.26983938586E+03  0.37145046281E+03  0.17176381798E+03 0.  0.
         24    2    3    3    0    0 -0.14339590290E+03  0.73457635825E+01  0.18793995907E+03  0.24953641232E+03  0.79565367132E+02 0.  0.
         -6    2    1    2    0  502  0.17187213039E+03  0.78226042915E+02  0.61299922255E+03  0.66432256420E+03  0.17290771950E+03 0.  0.
        -24    2    5    5    0    0  0.26197849946E+02  0.52602051090E+01  0.13592095878E+03  0.16016904668E+03  0.80409075219E+02 0.  0.
          5    1    3    3  501    0 -0.28476227491E+02 -0.85571806498E+02  0.81899426785E+02  0.12191405049E+03  0.47000000000E+01 0. -1.
        -13    1    4    4    0    0 -0.12366790874E+03 -0.25069844174E+02  0.14263217728E+03  0.19043683135E+03  0.00000000000E+00 0.  1.
         14    1    4    4    0    0 -0.19727994155E+02  0.32415607757E+02  0.45307781793E+02  0.59099580968E+02  0.00000000000E+00 0. -1.
         -5    1    5    5    0  502  0.14567428044E+03  0.72965837806E+02  0.47707826376E+03  0.50415351752E+03  0.47000000000E+01 0.  1.
         11    1    6    6    0    0  0.65953483407E+01 -0.26234898405E+02  0.11381349157E+03  0.11698409882E+03  0.00000000000E+00 0. -1.
        -12    1    6    6    0    0  0.19602501606E+02  0.31495103514E+02  0.22107467211E+02  0.43184947852E+02  0.00000000000E+00 0.  1.
<mgrwt>
<rscale>  2 0.25584689E+03</rscale>
<asrwt>0</asrwt>
<pdfrwt beam="1">  1       21 0.14758550E+00 0.25603988E+03</pdfrwt>
<pdfrwt beam="2">  1       21 0.11764187E-01 0.25603988E+03</pdfrwt>
<totfact> 0.18245933E+04</totfact>
</mgrwt>
</event>
<event>
12    1  0.1029207E-001  0.2483656E+03  0.7546771E-02  0.1114972E+00
         21   -1    0    0  501  502  0.00000000000E+00  0.00000000000E+00  0.33561580249E+03  0.33561580249E+03  0.00000000000E+00 0. -1.
         21   -1    0    0  502  503 -0.00000000000E+00 -0.00000000000E+00 -0.22314262688E+03  0.22314262688E+03  0.00000000000E+00 0.  1.
         -6    2    1    2    0  503 -0.10758869494E+03 -0.13442705551E+03 -0.64943876188E+02  0.25671609701E+03  0.17899577335E+03 0.  0.
        -24    2    3    3    0    0  0.10770769656E+02 -0.61213887277E+02 -0.56259188104E+02  0.11719317893E+03  0.81890142671E+02 0.  0.
          6    2    1    2  501    0  0.10758869494E+03  0.13442705551E+03  0.17741705180E+03  0.30204233236E+03  0.17351311113E+03 0.  0.
         24    2    5    5    0    0  0.47958029692E+02  0.15837593111E+03  0.12371919191E+03  0.21816793199E+03  0.70056405394E+02 0.  0.
          5    1    5    5  501    0  0.59630665245E+02 -0.23948875595E+02  0.53697859893E+02  0.83874400367E+02  0.47000000000E+01 0. -1.
        -11    1    6    6    0    0  0.54344175595E+02  0.60001334150E+02  0.51196683489E+02  0.95783870882E+02  0.00000000000E+00 0.  1.
         12    1    6    6    0    0 -0.63861459033E+01  0.98374596957E+02  0.72522508417E+02  0.12238406111E+03  0.00000000000E+00 0. -1.
         -5    1    3    3    0  503 -0.11835946459E+03 -0.73213168235E+02 -0.86846880840E+01  0.13952291808E+03  0.47000000000E+01 0.  1.
         13    1    4    4    0    0  0.34821969105E+02  0.19617887895E+01 -0.14756834534E+02  0.37870599587E+02  0.00000000000E+00 0. -1.
        -14    1    4    4    0    0 -0.24051199449E+02 -0.63175676067E+02 -0.41502353570E+02  0.79322579341E+02  0.00000000000E+00 0.  1.
<mgrwt>
<rscale>  2 0.24737925E+03</rscale>
<asrwt>0</asrwt>
<pdfrwt beam="1">  1       21 0.51633201E-01 0.24836555E+03</pdfrwt>
<pdfrwt beam="2">  1       21 0.34329635E-01 0.24836555E+03</pdfrwt>
<totfact> 0.28319207E+04</totfact>
</mgrwt>
</event>
<event>
12    1  0.1029207E-001  0.2247041E+03  0.7546771E-02  0.1130673E+00
         21   -1    0    0  501  502  0.00000000000E+00  0.00000000000E+00  0.30023171457E+03  0.30023171457E+03  0.00000000000E+00 0. -1.
         21   -1    0    0  502  503 -0.00000000000E+00 -0.00000000000E+00 -0.31940339675E+03  0.31940339675E+03  0.00000000000E+00 0. -1.
         -6    2    1    2    0  503 -0.81754854449E+02  0.11665822604E+03 -0.22350325993E+03  0.31693161571E+03  0.17377843338E+03 0.  0.
        -24    2    3    3    0    0 -0.67743447838E+02  0.15175557033E+03 -0.19832108043E+03  0.27127665699E+03  0.81491385042E+02 0.  0.
          6    2    1    2  501    0  0.81754854449E+02 -0.11665822604E+03  0.20433157775E+03  0.30270349561E+03  0.17200294957E+03 0.  0.
         24    2    5    5    0    0  0.13920896263E+02 -0.69836728889E+02  0.33516031962E+02  0.11298333548E+03  0.81061394278E+02 0.  0.
          5    1    5    5  501    0  0.67833958186E+02 -0.46821497150E+02  0.17081554578E+03  0.18972016013E+03  0.47000000000E+01 0. -1.
        -13    1    6    6    0    0  0.35369700073E+02 -0.32329478941E+01  0.22773596392E+02  0.42191282606E+02  0.00000000000E+00 0.  1.
         14    1    6    6    0    0 -0.21448803810E+02 -0.66603780995E+02  0.10742435570E+02  0.70792052871E+02  0.00000000000E+00 0. -1.
         -5    1    3    3    0  503 -0.14011406610E+02 -0.35097344287E+02 -0.25182179500E+02  0.45654958718E+02  0.47000000000E+01 0.  1.
         13    1    4    4    0    0 -0.62370359360E+02  0.52024519330E+02 -0.61482874165E+02  0.10186636419E+03  0.00000000000E+00 0. -1.
        -14    1    4    4    0    0 -0.53730884782E+01  0.99731050996E+02 -0.13683820627E+03  0.16941029280E+03  0.00000000000E+00 0.  1.
<mgrwt>
<rscale>  2 0.22436077E+03</rscale>
<asrwt>0</asrwt>
<pdfrwt beam="1">  1       21 0.46189495E-01 0.22470412E+03</pdfrwt>
<pdfrwt beam="2">  1       21 0.49138984E-01 0.22470412E+03</pdfrwt>
<totfact> 0.17408880E+04</totfact>
</mgrwt>
</event>
<event>
12    1  0.1029207E-001  0.1809307E+03  0.7546771E-02  0.1167193E+00
         21   -1    0    0  501  502  0.00000000000E+00  0.00000000000E+00  0.28874947404E+03  0.28874947404E+03  0.00000000000E+00 0. -1.
         21   -1    0    0  502  503 -0.00000000000E+00 -0.00000000000E+00 -0.13768091201E+03  0.13768091201E+03  0.00000000000E+00 0. -1.
         -6    2    1    2    0  503  0.51785547094E+02  0.72490165676E+01 -0.15216879431E+02  0.18156948598E+03  0.17320979675E+03 0.  0.
        -24    2    3    3    0    0  0.31746004291E+02  0.52540003450E+02 -0.57891656637E+02  0.11602497150E+03  0.79637235973E+02 0.  0.
          6    2    1    2  501    0 -0.51785547094E+02 -0.72490165676E+01  0.16628544146E+03  0.24486090007E+03  0.17196430214E+03 0.  0.
         24    2    5    5    0    0 -0.38011321196E+02  0.30491528715E+02  0.22381527041E+02  0.95380116547E+02  0.78878641072E+02 0.  0.
          5    1    5    5  501    0 -0.13774225898E+02 -0.37740545282E+02  0.14390391442E+03  0.14948078352E+03  0.47000000000E+01 0. -1.
        -11    1    6    6    0    0 -0.20718103782E+02 -0.18429971030E+02 -0.14908142947E+02  0.31482636208E+02  0.00000000000E+00 0.  1.
         12    1    6    6    0    0 -0.17293217415E+02  0.48921499745E+02  0.37289669988E+02  0.63897480339E+02  0.00000000000E+00 0. -1.
         -5    1    3    3    0  503  0.20039542804E+02 -0.45290986883E+02  0.42674777207E+02  0.65544514479E+02  0.47000000000E+01 0.  1.
         11    1    4    4    0    0  0.52371621688E+02  0.49991645381E+02 -0.24012487110E+02  0.76279426475E+02  0.00000000000E+00 0. -1.
        -12    1    4    4    0    0 -0.20625617397E+02  0.25483580694E+01 -0.33879169527E+02  0.39745545030E+02  0.00000000000E+00 0.  1.
<mgrwt>
<rscale>  2 0.18063198E+03</rscale>
<asrwt>0</asrwt>
<pdfrwt beam="1">  1       21 0.44422996E-01 0.18093072E+03</pdfrwt>
<pdfrwt beam="2">  1       21 0.21181679E-01 0.18093072E+03</pdfrwt>
<totfact> 0.10131262E+05</totfact>
</mgrwt>
</event>
<event>
12    1  0.1029207E-001  0.2015662E+03  0.7546771E-02  0.1148670E+00
         21   -1    0    0  501  502  0.00000000000E+00  0.00000000000E+00  0.12607504623E+04  0.12607504623E+04  0.00000000000E+00 0.  1.
         21   -1    0    0  502  503 -0.00000000000E+00 -0.00000000000E+00 -0.44036287705E+02  0.44036287705E+02  0.00000000000E+00 0.  1.
         -6    2    1    2    0  503 -0.98083905931E+02 -0.27491508503E+02  0.26653899995E+03  0.33346712535E+03  0.17257186778E+03 0.  0.
        -24    2    3    3    0    0 -0.18252591811E+02 -0.11338170608E+02  0.22947412113E+03  0.24385761535E+03  0.79664628766E+02 0.  0.
          6    2    1    2  501    0  0.98083905931E+02  0.27491508503E+02  0.95017517460E+03  0.97131962461E+03  0.17393307649E+03 0.  0.
         24    2    5    5    0    0  0.56043059271E+02  0.83809818377E+02  0.68925460387E+03  0.70105897442E+03  0.79037121086E+02 0.  0.
          5    1    5    5  501    0  0.42040846660E+02 -0.56318309874E+02  0.26092057073E+03  0.27026065020E+03  0.47000000000E+01 0. -1.
        -13    1    6    6    0    0  0.68051489878E+02  0.86039301008E+02  0.52431556519E+03  0.53566834748E+03  0.00000000000E+00 0.  1.
         14    1    6    6    0    0 -0.12008430607E+02 -0.22294826308E+01  0.16493903868E+03  0.16539062694E+03  0.00000000000E+00 0. -1.
         -5    1    3    3    0  503 -0.79831314120E+02 -0.16153337895E+02  0.37064878826E+02  0.89609509996E+02  0.47000000000E+01 0.  1.
         11    1    4    4    0    0  0.11915529072E+02  0.95434873831E+01  0.45061557068E+01  0.15917393749E+02  0.00000000000E+00 0. -1.
        -12    1    4    4    0    0 -0.30168120883E+02 -0.20881657992E+02  0.22496796542E+03  0.22794022160E+03  0.00000000000E+00 0.  1.
<mgrwt>
<rscale>  2 0.20127225E+03</rscale>
<asrwt>0</asrwt>
<pdfrwt beam="1">  1       21 0.19396158E+00 0.20156624E+03</pdfrwt>
<pdfrwt beam="2">  1       21 0.67748145E-02 0.20156624E+03</pdfrwt>
<totfact> 0.23360651E+04</totfact>
</mgrwt>
</event>
<event>
12    1  0.1029207E-001  0.2066118E+03  0.7546771E-02  0.1144345E+00
         21   -1    0    0  501  502  0.00000000000E+00  0.00000000000E+00  0.10251515439E+03  0.10251515439E+03  0.00000000000E+00 0. -1.
         21   -1    0    0  502  503 -0.00000000000E+00 -0.00000000000E+00 -0.42881468563E+03  0.42881468563E+03  0.00000000000E+00 0.  1.
         -6    2    1    2    0  503 -0.79633301602E+02 -0.77834472459E+02 -0.11688946417E+03  0.23738492154E+03  0.17403673840E+03 0.  0.
        -24    2    3    3    0    0 -0.64864301913E+02 -0.11171627922E+03 -0.12736551801E+03  0.19868171902E+03  0.81021883383E+02 0.  0.
          6    2    1    2  501    0  0.79633301602E+02  0.77834472459E+02 -0.20941006707E+03  0.29394491848E+03  0.17364150161E+03 0.  0.
         24    2    5    5    0    0  0.63218032379E+01  0.10046585775E+03 -0.13107152964E+03  0.18419168691E+03  0.81323292345E+02 0.  0.
          5    1    5    5  501    0  0.73311498364E+02 -0.22631385286E+02 -0.78338537428E+02  0.10975323156E+03  0.47000000000E+01 0. -1.
        -11    1    6    6    0    0  0.22346492698E+02  0.34723202689E+02 -0.10293353891E+03  0.11090707811E+03  0.00000000000E+00 0.  1.
         12    1    6    6    0    0 -0.16024689461E+02  0.65742655056E+02 -0.28137990727E+02  0.73284608809E+02  0.00000000000E+00 0. -1.
         -5    1    3    3    0  503 -0.14768999690E+02  0.33881806765E+02  0.10476053840E+02  0.38703202523E+02  0.47000000000E+01 0.  1.
         11    1    4    4    0    0 -0.40152280068E+02 -0.92497369252E+02 -0.44724399369E+02  0.11030974940E+03  0.00000000000E+00 0. -1.
        -12    1    4    4    0    0 -0.24712021845E+02 -0.19218909973E+02 -0.82641118639E+02  0.88371969618E+02  0.00000000000E+00 0.  1.
<mgrwt>
<rscale>  2 0.20652859E+03</rscale>
<asrwt>0</asrwt>
<pdfrwt beam="1">  1       21 0.15771563E-01 0.20661184E+03</pdfrwt>
<pdfrwt beam="2">  1       21 0.65971489E-01 0.20661184E+03</pdfrwt>
<totfact> 0.75072470E+04</totfact>
</mgrwt>
</event>
<event>
12    1  0.1029207E-001  0.1999612E+03  0.7546771E-02  0.1149806E+00
         21   -1    0    0  501  502  0.00000000000E+00  0.00000000000E+00  0.20168085496E+02  0.20168085496E+02  0.00000000000E+00 0.  1.
         21   -1    0    0  502  503 -0.00000000000E+00 -0.00000000000E+00 -0.25295161659E+04  0.25295161659E+04  0.00000000000E+00 0.  1.
         -6    2    1    2    0  503  0.98285250453E+02 -0.23752382950E+01 -0.18479463640E+04  0.18587163125E+04  0.17393945431E+03 0.  0.
        -24    2    3    3    0    0  0.58006258933E+02  0.25163842441E+02 -0.16959324588E+04  0.16989943181E+04  0.79980265630E+02 0.  0.
          6    2    1    2  501    0 -0.98285250453E+02  0.23752382950E+01 -0.66140171642E+03  0.69096793896E+03  0.17412303111E+03 0.  0.
         24    2    5    5    0    0 -0.12203003781E+03 -0.38431859297E+02 -0.53634389466E+03  0.55721225524E+03  0.80326745979E+02 0.  0.
          5    1    5    5  501    0  0.23744787359E+02  0.40807097592E+02 -0.12505782177E+03  0.13375568371E+03  0.47000000000E+01 0. -1.
        -13    1    6    6    0    0 -0.22385964204E+02  0.42331017989E+01 -0.22356343048E+02  0.31919533497E+02  0.00000000000E+00 0.  1.
         14    1    6    6    0    0 -0.99644073608E+02 -0.42664961096E+02 -0.51398755161E+03  0.52529272174E+03  0.00000000000E+00 0. -1.
         -5    1    3    3    0  503  0.40278991520E+02 -0.27539080736E+02 -0.15201390518E+03  0.15972199440E+03  0.47000000000E+01 0.  1.
         13    1    4    4    0    0  0.41019804196E+02  0.31775645282E+02 -0.45834753340E+03  0.46127516446E+03  0.00000000000E+00 0. -1.
        -14    1    4    4    0    0  0.16986454737E+02 -0.66118028412E+01 -0.12375849254E+04  0.12377191536E+04  0.00000000000E+00 0.  1.
<mgrwt>
<rscale>  2 0.19992118E+03</rscale>
<asrwt>0</asrwt>
<pdfrwt beam="1">  1       21 0.31027827E-02 0.19996115E+03</pdfrwt>
<pdfrwt beam="2">  1       21 0.38915629E+00 0.19996115E+03</pdfrwt>
<totfact> 0.60260870E+03</totfact>
</mgrwt>
</event>
<event>
11    1  0.1029207E-001  0.1815039E+03  0.7546771E-02  0.1166796E+00
         21   -1    0    0  503  502  0.00000000000E+00  0.00000000000E+00  0.84006814275E+02  0.84006814275E+02  0.00000000000E+00 0. -1.
         21   -1    0    0  501  503 -0.00000000000E+00 -0.00000000000E+00 -0.39520841192E+03  0.39520841192E+03  0.00000000000E+00 0. -1.
          6    2    1    2  501    0 -0.16363772643E+02  0.46291246272E+02 -0.18670320162E+03  0.25911637171E+03  0.17283679023E+03 0.  0.
         -6    2    1    2    0  502  0.16363772643E+02 -0.46291246272E+02 -0.12449839602E+03  0.22009885448E+03  0.17473695258E+03 0.  0.
        -24    2    4    4    0    0 -0.25607733797E+02 -0.59250590029E+01 -0.10449456893E+01  0.83519643669E+02  0.79269014203E+02 0.  0.
          5    1    3    3  501    0 -0.83344891281E+02  0.21047010272E+02 -0.13460299297E+03  0.15977923288E+03  0.47000000000E+01 0. -1.
        -13    1    3    3    0    0  0.59235324573E+02  0.58921056239E+01 -0.23617244803E+02  0.64041508712E+02  0.00000000000E+00 0.  1.
         14    1    3    3    0    0  0.77457940646E+01  0.19352130376E+02 -0.28482963852E+02  0.35295630120E+02  0.00000000000E+00 0. -1.
         -5    1    4    4    0  502  0.41971506440E+02 -0.40366187269E+02 -0.12345345033E+03  0.13657921082E+03  0.47000000000E+01 0.  1.
         11    1    5    5    0    0 -0.89346895299E+01 -0.38571341701E+02  0.16483597097E+02  0.42886898360E+02  0.00000000000E+00 0. -1.
        -12    1    5    5    0    0 -0.16673044267E+02  0.32646282698E+02 -0.17528542787E+02  0.40632745309E+02  0.00000000000E+00 0.  1.
<mgrwt>
<rscale>  2 0.18104499E+03</rscale>
<asrwt>0</asrwt>
<pdfrwt beam="1">  1       21 0.12924125E-01 0.18150387E+03</pdfrwt>
<pdfrwt beam="2">  1       21 0.60801293E-01 0.18150387E+03</pdfrwt>
<totfact> 0.12986967E+05</totfact>
</mgrwt>
</event>
<event>
12    1  0.1029207E-001  0.1961027E+03  0.7546771E-02  0.1153702E+00
         21   -1    0    0  503  502  0.00000000000E+00  0.00000000000E+00  0.14034187506E+04  0.14034187506E+04  0.00000000000E+00 0. -1.
         21   -1    0    0  501  503 -0.00000000000E+00 -0.00000000000E+00 -0.37316561132E+03  0.37316561132E+03  0.00000000000E+00 0. -1.
          6    2    1    2  501    0 -0.80550876503E+02  0.22764434623E+02 -0.34014940050E+03  0.39262946229E+03  0.17734039812E+03 0.  0.
         24    2    3    3    0    0 -0.11070273998E+03  0.29848039450E+02 -0.33205792094E+03  0.36027402426E+03  0.79930642408E+02 0.  0.
         -6    2    1    2    0  502  0.80550876503E+02 -0.22764434623E+02  0.13704025397E+04  0.13839548996E+04  0.17413035347E+03 0.  0.
        -24    2    5    5    0    0  0.74305418779E+02  0.47578830140E+02  0.96558062152E+03  0.97299254595E+03  0.81138877785E+02 0.  0.
          5    1    3    3  501    0  0.30151863482E+02 -0.70836048278E+01 -0.80914795619E+01  0.32355438033E+02  0.47000000000E+01 0. -1.
        -11    1    4    4    0    0 -0.27103981428E+02 -0.25700415165E+02 -0.64862043618E+02  0.74847991631E+02  0.00000000000E+00 0.  1.
         12    1    4    4    0    0 -0.83598758556E+02  0.55548454615E+02 -0.26719587732E+03  0.28542603263E+03  0.00000000000E+00 0. -1.
         -5    1    5    5    0  502  0.62454577238E+01 -0.70343264762E+02  0.40482191822E+03  0.41096235364E+03  0.47000000000E+01 0.  1.
         13    1    6    6    0    0  0.65797675377E+02  0.38905664359E+02  0.39755204936E+03  0.40483406076E+03  0.00000000000E+00 0. -1.
        -14    1    6    6    0    0  0.85077434015E+01  0.86731657808E+01  0.56802857216E+03  0.56815848519E+03  0.00000000000E+00 0.  1.
<mgrwt>
<rscale>  2 0.19537416E+03</rscale>
<asrwt>0</asrwt>
<pdfrwt beam="1">  1       21 0.21591057E+00 0.19610273E+03</pdfrwt>
<pdfrwt beam="2">  1       21 0.57410095E-01 0.19610273E+03</pdfrwt>
<totfact> 0.30222912E+02</totfact>
</mgrwt>
</event>
<event>
12    1  0.1029207E-001  0.2168871E+03  0.7546771E-02  0.1136367E+00
         21   -1    0    0  503  502  0.00000000000E+00  0.00000000000E+00  0.14943966754E+04  0.14943966754E+04  0.00000000000E+00 0.  1.
         21   -1    0    0  501  503 -0.00000000000E+00 -0.00000000000E+00 -0.55082609897E+02  0.55082609897E+02  0.00000000000E+00 0. -1.
          6    2    1    2  501    0  0.10515503040E+03  0.72850896857E+02  0.21062919548E+03  0.30179882074E+03  0.17422122895E+03 0.  0.
         24    2    3    3    0    0  0.19837324153E+02 -0.41388509626E+01  0.14977648099E+03  0.17167705035E+03  0.81420917708E+02 0.  0.
         -6    2    1    2    0  502 -0.10515503040E+03 -0.72850896857E+02  0.12286848701E+04  0.12476804646E+04  0.17514336479E+03 0.  0.
        -24    2    5    5    0    0 -0.97865850055E+02  0.16081246715E+02  0.70397291113E+03  0.71541475261E+03  0.80025480611E+02 0.  0.
          5    1    3    3  501    0  0.85317706251E+02  0.76989747820E+02  0.60852714487E+02  0.13012177039E+03  0.47000000000E+01 0. -1.
        -11    1    4    4    0    0 -0.16527468686E+02  0.30516269658E+01 -0.58164665201E+00  0.16816895110E+02  0.00000000000E+00 0.  1.
         12    1    4    4    0    0  0.36364792840E+02 -0.71904779284E+01  0.15035812764E+03  0.15486015524E+03  0.00000000000E+00 0. -1.
         -5    1    5    5    0  502 -0.72891803488E+01 -0.88932143572E+02  0.52471195893E+03  0.53226571199E+03  0.47000000000E+01 0.  1.
         11    1    6    6    0    0 -0.19793800233E+02  0.23046649860E+02  0.66137175009E+02  0.72780962591E+02  0.00000000000E+00 0. -1.
        -12    1    6    6    0    0 -0.78072049822E+02 -0.69654031450E+01  0.63783573612E+03  0.64263379002E+03  0.00000000000E+00 0.  1.
<mgrwt>
<rscale>  2 0.21670091E+03</rscale>
<asrwt>0</asrwt>
<pdfrwt beam="1">  1       21 0.22990715E+00 0.21688714E+03</pdfrwt>
<pdfrwt beam="2">  1       21 0.84742488E-02 0.21688714E+03</pdfrwt>
<totfact> 0.93033837E+03</totfact>
</mgrwt>
</event>
<event>
12    1  0.1029207E-001  0.2215989E+03  0.7546771E-02  0.1133095E+00
         21   -1    0    0  501  502  0.00000000000E+00  0.00000000000E+00  0.25590313527E+03  0.25590313527E+03  0.00000000000E+00 0. -1.
         21   -1    0    0  502  503 -0.00000000000E+00 -0.00000000000E+00 -0.19894314365E+03  0.19894314365E+03  0.00000000000E+00 0.  1.
         -6    2    1    2    0  503  0.13584345520E+03  0.12055385259E+02  0.76722429876E+02  0.23450461717E+03  0.17466341229E+03 0.  0.
        -24    2    3    3    0    0  0.62824779339E+02  0.55243394683E+02 -0.67203136868E+01  0.11541762109E+03  0.79229281747E+02 0.  0.
          6    2    1    2  501    0 -0.13584345520E+03 -0.12055385259E+02 -0.19762438252E+02  0.22034166175E+03  0.17193346767E+03 0.  0.
         24    2    5    5    0    0 -0.91986381770E+02  0.42083090707E+02 -0.58662534062E+02  0.14040590678E+03  0.77717725138E+02 0.  0.
          5    1    5    5  501    0 -0.43857073425E+02 -0.54138475967E+02  0.38900095811E+02  0.79935754975E+02  0.47000000000E+01 0. -1.
        -13    1    6    6    0    0 -0.44564338380E+01 -0.16298583769E+02 -0.24545379629E+02  0.29798981468E+02  0.00000000000E+00 0.  1.
         14    1    6    6    0    0 -0.87529947932E+02  0.58381674476E+02 -0.34117154433E+02  0.11060692531E+03  0.00000000000E+00 0. -1.
         -5    1    3    3    0  503  0.73018675856E+02 -0.43188009424E+02  0.83442743562E+02  0.11908699608E+03  0.47000000000E+01 0.  1.
         11    1    4    4    0    0  0.76299345379E+02  0.23304650932E+02 -0.10827201200E+02  0.80510403962E+02  0.00000000000E+00 0. -1.
        -12    1    4    4    0    0 -0.13474566040E+02  0.31938743751E+02  0.41068875132E+01  0.34907217125E+02  0.00000000000E+00 0.  1.
<mgrwt>
<rscale>  2 0.22106064E+03</rscale>
<asrwt>0</asrwt>
<pdfrwt beam="1">  1       21 0.39369713E-01 0.22159893E+03</pdfrwt>
<pdfrwt beam="2">  1       21 0.30606637E-01 0.22159893E+03</pdfrwt>
<totfact> 0.62924874E+04</totfact>
</mgrwt>
</event>
<event>
12    1  0.1029207E-001  0.1842135E+03  0.7546771E-02  0.1164542E+00
         21   -1    0    0  503  502  0.00000000000E+00  0.00000000000E+00  0.16512182602E+03  0.16512182602E+03  0.00000000000E+00 0. -1.
         21   -1    0    0  501  503 -0.00000000000E+00 -0.00000000000E+00 -0.20199970482E+03  0.20199970482E+03  0.00000000000E+00 0.  1.
          6    2    1    2  501    0 -0.28301104647E+02  0.52495543531E+02 -0.16460850920E+02  0.18494747240E+03  0.17429249359E+03 0.  0.
         24    2    3    3    0    0 -0.82362630285E+02  0.18762569916E+02 -0.26774323175E+02  0.12022483515E+03  0.81249675125E+02 0.  0.
         -6    2    1    2    0  502  0.28301104647E+02 -0.52495543531E+02 -0.20417027876E+02  0.18217405844E+03  0.17092044327E+03 0.  0.
        -24    2    5    5    0    0  0.76595491808E+02 -0.65585641383E+02  0.12051124592E+01  0.12746294946E+03  0.77955150365E+02 0.  0.
          5    1    3    3  501    0  0.54061525638E+02  0.33732973615E+02  0.10313472255E+02  0.64722637254E+02  0.47000000000E+01 0. -1.
        -11    1    4    4    0    0 -0.73822055628E+02  0.30141858194E+01  0.14443366446E+02  0.75282083178E+02  0.00000000000E+00 0.  1.
         12    1    4    4    0    0 -0.85405746566E+01  0.15748384097E+02 -0.41217689620E+02  0.44942751971E+02  0.00000000000E+00 0. -1.
         -5    1    5    5    0  502 -0.48294387161E+02  0.13090097852E+02 -0.21622140335E+02  0.54711108978E+02  0.47000000000E+01 0.  1.
         13    1    6    6    0    0  0.19117635435E+02 -0.57564965684E+02 -0.22607742453E+02  0.64732675502E+02  0.00000000000E+00 0. -1.
        -14    1    6    6    0    0  0.57477856373E+02 -0.80206756988E+01  0.23812854912E+02  0.62730273959E+02  0.00000000000E+00 0.  1.
<mgrwt>
<rscale>  2 0.18341147E+03</rscale>
<asrwt>0</asrwt>
<pdfrwt beam="1">  1       21 0.25403358E-01 0.18421348E+03</pdfrwt>
<pdfrwt beam="2">  1       21 0.31076877E-01 0.18421348E+03</pdfrwt>
<totfact> 0.14652488E+05</totfact>
</mgrwt>
</event>
<event>
12    1  0.1029207E-001  0.1942164E+03  0.7546771E-02  0.1154786E+00
         21   -1    0    0  501  502  0.00000000000E+00  0.00000000000E+00  0.13620764836E+03  0.13620764836E+03  0.00000000000E+00 0.  1.
         21   -1    0    0  502  503 -0.00000000000E+00 -0.00000000000E+00 -0.28386516967E+03  0.28386516967E+03  0.00000000000E+00 0.  1.
         -6    2    1    2    0  503  0.74425626583E+02  0.45013825248E+02 -0.10770538617E+03  0.22178973838E+03  0.17327671363E+03 0.  0.
        -24    2    3    3    0    0  0.28316259035E+02 -0.34889911917E+02 -0.20196934445E+02  0.94547842329E+02  0.80698586411E+02 0.  0.
          6    2    1    2  501    0 -0.74425626583E+02 -0.45013825248E+02 -0.39952135146E+02  0.19828307965E+03  0.17365076509E+03 0.  0.
         24    2    5    5    0    0 -0.91650980130E+01 -0.81442654984E+02 -0.46529063629E+02  0.12310767002E+03  0.79206310245E+02 0.  0.
          5    1    5    5  501    0 -0.65260528570E+02  0.36428829736E+02  0.65769284826E+01  0.75175409633E+02  0.47000000000E+01 0. -1.
        -13    1    6    6    0    0 -0.42234870211E+02 -0.57992931853E+02 -0.19370800065E+02  0.74311454715E+02  0.00000000000E+00 0.  1.
         14    1    6    6    0    0  0.33069772198E+02 -0.23449723131E+02 -0.27158263564E+02  0.48796215304E+02  0.00000000000E+00 0. -1.
         -5    1    3    3    0  503  0.46109367549E+02  0.79903737165E+02 -0.87508451724E+02  0.12724189606E+03  0.47000000000E+01 0.  1.
         13    1    4    4    0    0 -0.18483124693E+02 -0.35049751751E+02  0.72660320255E+01  0.40285310196E+02  0.00000000000E+00 0. -1.
        -14    1    4    4    0    0  0.46799383727E+02  0.15983983430E+00 -0.27462966470E+02  0.54262532132E+02  0.00000000000E+00 0.  1.
<mgrwt>
<rscale>  2 0.19413274E+03</rscale>
<asrwt>0</asrwt>
<pdfrwt beam="1">  1       21 0.20955023E-01 0.19421639E+03</pdfrwt>
<pdfrwt beam="2">  1       21 0.43671564E-01 0.19421639E+03</pdfrwt>
<totfact> 0.10652534E+05</totfact>
</mgrwt>
</event>
<event>
12    1  0.1029207E-001  0.2250701E+03  0.7546771E-02  0.1130464E+00
         21   -1    0    0  503  502  0.00000000000E+00  0.00000000000E+00  0.50103735933E+03  0.50103735933E+03  0.00000000000E+00 0. -1.
         21   -1    0    0  501  503 -0.00000000000E+00 -0.00000000000E+00 -0.14894902494E+03  0.14894902494E+03  0.00000000000E+00 0. -1.
          6    2    1    2  501    0 -0.11026992624E+03 -0.91675801809E+02 -0.10039068324E+02  0.22361471517E+03  0.17128586830E+03 0.  0.
         24    2    3    3    0    0 -0.49473517785E+02 -0.55004784279E+02 -0.67787459374E+02  0.13197447577E+03  0.85726118258E+02 0.  0.
         -6    2    1    2    0  502  0.11026992624E+03  0.91675801809E+02  0.36212740271E+03  0.42637166909E+03  0.17347228927E+03 0.  0.
        -24    2    5    5    0    0  0.58439703862E+02  0.12494332031E+03  0.22054325023E+03  0.27190075930E+03  0.79149639337E+02 0.  0.
          5    1    3    3  501    0 -0.60796408459E+02 -0.36671017529E+02  0.57748391050E+02  0.91640239399E+02  0.47000000000E+01 0. -1.
        -13    1    4    4    0    0 -0.20765956355E+02  0.16304646544E+02 -0.44342957361E+02  0.51607793111E+02  0.00000000000E+00 0.  1.
         14    1    4    4    0    0 -0.28707561430E+02 -0.71309430823E+02 -0.23444502013E+02  0.80366682663E+02  0.00000000000E+00 0. -1.
         -5    1    5    5    0  502  0.51830222382E+02 -0.33267518506E+02  0.14158415248E+03  0.15447090980E+03  0.47000000000E+01 0.  1.
         11    1    6    6    0    0  0.21512491015E+02  0.10996219524E+03  0.19395947092E+03  0.22399720536E+03  0.00000000000E+00 0. -1.
        -12    1    6    6    0    0  0.36927212847E+02  0.14981125076E+02  0.26583779307E+02  0.47903553933E+02  0.00000000000E+00 0.  1.
<mgrwt>
<rscale>  2 0.22464870E+03</rscale>
<asrwt>0</asrwt>
<pdfrwt beam="1">  1       21 0.77082670E-01 0.22507009E+03</pdfrwt>
<pdfrwt beam="2">  1       21 0.22915235E-01 0.22507009E+03</pdfrwt>
<totfact> 0.26252791E+04</totfact>
</mgrwt>
</event>
<event>
12    1  0.1029207E-001  0.2013034E+03  0.7546771E-02  0.1149113E+00
         21   -1    0    0  503  502  0.00000000000E+00  0.00000000000E+00  0.96636496251E+02  0.96636496251E+02  0.00000000000E+00 0. -1.
         21   -1    0    0  501  503 -0.00000000000E+00 -0.00000000000E+00 -0.42386808903E+03  0.42386808903E+03  0.00000000000E+00 0. -1.
          6    2    1    2  501    0  0.64912869379E+02  0.76445891869E+02 -0.20276479610E+03  0.28572122406E+03  0.17454340533E+03 0.  0.
         24    2    3    3    0    0  0.48054315509E+02 -0.26538871673E+02 -0.99542050918E+02  0.13886381878E+03  0.79755948477E+02 0.  0.
         -6    2    1    2    0  502 -0.64912869379E+02 -0.76445891869E+02 -0.12446679667E+03  0.23478336122E+03  0.17196973059E+03 0.  0.
        -24    2    5    5    0    0 -0.82734238083E+02 -0.11107350978E+03 -0.89627110858E+02  0.18231845092E+03  0.77619068660E+02 0.  0.
          5    1    3    3  501    0  0.16858553869E+02  0.10298476354E+03 -0.10322274519E+03  0.14685740528E+03  0.47000000000E+01 0. -1.
        -11    1    4    4    0    0  0.22139404698E+02  0.19158380347E+00  0.91619162508E+01  0.23961023646E+02  0.00000000000E+00 0.  1.
         12    1    4    4    0    0  0.25914910811E+02 -0.26730455476E+02 -0.10870396717E+03  0.11490279514E+03  0.00000000000E+00 0. -1.
         -5    1    5    5    0  502  0.17821368704E+02  0.34627617914E+02 -0.34839685816E+02  0.52464910299E+02  0.47000000000E+01 0.  1.
         13    1    6    6    0    0 -0.49054257205E+02 -0.95581533897E+01 -0.16021602245E+02  0.52482093943E+02  0.00000000000E+00 0. -1.
        -14    1    6    6    0    0 -0.33679980878E+02 -0.10151535639E+03 -0.73605508613E+02  0.12983635698E+03  0.00000000000E+00 0.  1.
<mgrwt>
<rscale>  2 0.20074421E+03</rscale>
<asrwt>0</asrwt>
<pdfrwt beam="1">  1       21 0.14867153E-01 0.20130339E+03</pdfrwt>
<pdfrwt beam="2">  1       21 0.65210476E-01 0.20130339E+03</pdfrwt>
<totfact> 0.85964488E+04</totfact>
</mgrwt>
</event>
<event>
12    1  0.1029207E-001  0.1839330E+03  0.7546771E-02  0.1164055E+00
         21   -1    0    0  503  502  0.00000000000E+00  0.00000000000E+00  0.87753979199E+02  0.87753979199E+02  0.00000000000E+00 0. -1.
         21   -1    0    0  501  503 -0.00000000000E+00 -0.00000000000E+00 -0.39916412582E+03  0.39916412582E+03  0.00000000000E+00 0. -1.
          6    2    1    2  501    0  0.24232588248E+01 -0.65056662909E+02 -0.11063164032E+03  0.21464091858E+03  0.17202651689E+03 0.  0.
         24    2    3    3    0    0 -0.11172280405E+02 -0.31549855867E+02 -0.14160980801E+03  0.16679448007E+03  0.81528201264E+02 0.  0.
         -6    2    1    2    0  502 -0.24232588248E+01  0.65056662909E+02 -0.20077850630E+03  0.27227718644E+03  0.17200179096E+03 0.  0.
        -24    2    5    5    0    0  0.53825095946E+02  0.66867127943E+02 -0.87104607243E+02  0.14534807030E+03  0.78552499546E+02 0.  0.
          5    1    3    3  501    0  0.13595539230E+02 -0.33506807042E+02  0.30978167684E+02  0.47846438511E+02  0.47000000000E+01 0. -1.
        -13    1    4    4    0    0 -0.39377795054E+02  0.63218180334E+00 -0.38136977092E+02  0.54821888137E+02  0.00000000000E+00 0.  1.
         14    1    4    4    0    0  0.28205514649E+02 -0.32182037671E+02 -0.10347283092E+03  0.11197259193E+03  0.00000000000E+00 0. -1.
         -5    1    5    5    0  502 -0.56248354770E+02 -0.18104650340E+01 -0.11367389906E+03  0.12692911614E+03  0.47000000000E+01 0.  1.
         11    1    6    6    0    0  0.55111041856E+01  0.35487752759E+02 -0.79503897019E+02  0.87238881850E+02  0.00000000000E+00 0. -1.
        -12    1    6    6    0    0  0.48313991760E+02  0.31379375184E+02 -0.76007102235E+01  0.58109188453E+02  0.00000000000E+00 0.  1.
<mgrwt>
<rscale>  2 0.18392726E+03</rscale>
<asrwt>0</asrwt>
<pdfrwt beam="1">  1       21 0.13500612E-01 0.18393304E+03</pdfrwt>
<pdfrwt beam="2">  1       21 0.61409866E-01 0.18393304E+03</pdfrwt>
<totfact> 0.11740972E+05</totfact>
</mgrwt>
</event>
<event>
12    1  0.1029207E-001  0.4498322E+03  0.7546771E-02  0.1027775E+00
         21   -1    0    0  503  502  0.00000000000E+00  0.00000000000E+00  0.16497993139E+03  0.16497993139E+03  0.00000000000E+00 0. -1.
         21   -1    0    0  501  503 -0.00000000000E+00 -0.00000000000E+00 -0.14290629194E+04  0.14290629194E+04  0.00000000000E+00 0. -1.
          6    2    1    2  501    0 -0.41299473118E+03 -0.43059379793E+02 -0.93216577388E+03  0.10350097484E+04  0.17289705345E+03 0.  0.
         24    2    3    3    0    0 -0.12274658074E+03  0.26568349794E+02 -0.30608368005E+03  0.34140114999E+03  0.84231382065E+02 0.  0.
         -6    2    1    2    0  502  0.41299473118E+03  0.43059379793E+02 -0.33191721411E+03  0.55903310239E+03  0.17300350971E+03 0.  0.
        -24    2    5    5    0    0  0.27947941883E+03 -0.37532714816E+02 -0.20603697090E+03  0.35856028634E+03  0.81220658262E+02 0.  0.
          5    1    3    3  501    0 -0.29024815044E+03 -0.69627729587E+02 -0.62608209383E+03  0.69360859840E+03  0.47000000000E+01 0. -1.
        -13    1    4    4    0    0 -0.11275362345E+03  0.30107906361E+02 -0.30908455564E+03  0.33038330490E+03  0.00000000000E+00 0.  1.
         14    1    4    4    0    0 -0.99929572839E+01 -0.35395565675E+01  0.30008755840E+01  0.11017845082E+02  0.00000000000E+00 0. -1.
         -5    1    5    5    0  502  0.13351531235E+03  0.80592094609E+02 -0.12588024321E+03  0.20047281605E+03  0.47000000000E+01 0.  1.
         13    1    6    6    0    0  0.18636112155E+03  0.14211494922E+02 -0.12917728018E+03  0.22719860019E+03  0.00000000000E+00 0. -1.
        -14    1    6    6    0    0  0.93118297282E+02 -0.51744209738E+02 -0.76859690727E+02  0.13136168615E+03  0.00000000000E+00 0.  1.
<mgrwt>
<rscale>  2 0.44982193E+03</rscale>
<asrwt>0</asrwt>
<pdfrwt beam="1">  1       21 0.25381527E-01 0.44983216E+03</pdfrwt>
<pdfrwt beam="2">  1       21 0.21985584E+00 0.44983216E+03</pdfrwt>
<totfact> 0.12354781E+03</totfact>
</mgrwt>
</event>
<event>
12    1  0.1029207E-001  0.1755573E+03  0.7546771E-02  0.1172381E+00
         21   -1    0    0  501  502  0.00000000000E+00  0.00000000000E+00  0.21928242789E+03  0.21928242789E+03  0.00000000000E+00 0.  1.
         21   -1    0    0  502  503 -0.00000000000E+00 -0.00000000000E+00 -0.28002660973E+03  0.28002660973E+03  0.00000000000E+00 0.  1.
         -6    2    1    2    0  503 -0.21888925578E+02  0.75819524005E+01 -0.20694707605E+03  0.27084537237E+03  0.17318635160E+03 0.  0.
        -24    2    3    3    0    0  0.10106118532E+02 -0.42835527248E+02 -0.18394102249E+03  0.20668172532E+03  0.83342784944E+02 0.  0.
          6    2    1    2  501    0  0.21888925578E+02 -0.75819524005E+01  0.14620289422E+03  0.22846366525E+03  0.17402226581E+03 0.  0.
         24    2    5    5    0    0 -0.31464848263E+02  0.34151463188E+02  0.11293179016E+03  0.15285044204E+03  0.91941879946E+02 0.  0.
          5    1    5    5  501    0  0.53353773841E+02 -0.41733415589E+02  0.33271104061E+02  0.75613223216E+02  0.47000000000E+01 0. -1.
        -13    1    6    6    0    0 -0.78210761605E+01  0.12994794902E+02 -0.14827464993E+02  0.21210555037E+02  0.00000000000E+00 0.  1.
         14    1    6    6    0    0 -0.23643772102E+02  0.21156668286E+02  0.12775925515E+03  0.13163988700E+03  0.00000000000E+00 0. -1.
         -5    1    3    3    0  503 -0.31995044110E+02  0.50417479649E+02 -0.23006053567E+02  0.64163647048E+02  0.47000000000E+01 0.  1.
         13    1    4    4    0    0 -0.18587896884E+02  0.14108340744E+02 -0.91175559230E+02  0.94114492986E+02  0.00000000000E+00 0. -1.
        -14    1    4    4    0    0  0.28694015416E+02 -0.56943867992E+02 -0.92765463257E+02  0.11256723234E+03  0.00000000000E+00 0.  1.
<mgrwt>
<rscale>  2 0.17534977E+03</rscale>
<asrwt>0</asrwt>
<pdfrwt beam="1">  1       21 0.33735758E-01 0.17555728E+03</pdfrwt>
<pdfrwt beam="2">  1       21 0.43081017E-01 0.17555728E+03</pdfrwt>
<totfact> 0.44221767E+04</totfact>
</mgrwt>
</event>
<event>
12    1  0.1029207E-001  0.1875607E+03  0.7546771E-02  0.1162350E+00
         21   -1    0    0  501  502  0.00000000000E+00  0.00000000000E+00  0.34829473042E+03  0.34829473042E+03  0.00000000000E+00 0. -1.
         21   -1    0    0  502  503 -0.00000000000E+00 -0.00000000000E+00 -0.10019762426E+03  0.10019762426E+03  0.00000000000E+00 0. -1.
         -6    2    1    2    0  503  0.48819672488E+02  0.54889642077E+02  0.82928144394E+02  0.19857278149E+03  0.16479635672E+03 0.  0.
        -24    2    3    3    0    0  0.87857060342E+02  0.87076849184E+01  0.49595902664E+02  0.12936426210E+03  0.80502620578E+02 0.  0.
          6    2    1    2  501    0 -0.48819672488E+02 -0.54889642077E+02  0.16516896176E+03  0.24991957319E+03  0.17257686375E+03 0.  0.
         24    2    5    5    0    0  0.29223077695E+02 -0.68509401510E+02  0.11434517029E+03  0.15567883633E+03  0.74923666137E+02 0.  0.
          5    1    5    5  501    0 -0.78042750183E+02  0.13619759433E+02  0.50823791480E+02  0.94240736858E+02  0.47000000000E+01 0. -1.
        -11    1    6    6    0    0  0.10203738817E+02 -0.27963722997E+02 -0.31542518833E+01  0.29933850314E+02  0.00000000000E+00 0.  1.
         12    1    6    6    0    0  0.19019338878E+02 -0.40545678513E+02  0.11749942217E+03  0.12574498601E+03  0.00000000000E+00 0. -1.
         -5    1    3    3    0  503 -0.39037387854E+02  0.46181957158E+02  0.33332241730E+02  0.69208519390E+02  0.47000000000E+01 0.  1.
         11    1    4    4    0    0  0.64614518901E+02  0.16107672023E+02 -0.77546871413E+01  0.67041989257E+02  0.00000000000E+00 0. -1.
        -12    1    4    4    0    0  0.23242541441E+02 -0.73999871045E+01  0.57350589805E+02  0.62322272847E+02  0.00000000000E+00 0.  1.
<mgrwt>
<rscale>  2 0.18575136E+03</rscale>
<asrwt>0</asrwt>
<pdfrwt beam="1">  1       21 0.53583804E-01 0.18756068E+03</pdfrwt>
<pdfrwt beam="2">  1       21 0.15415019E-01 0.18756068E+03</pdfrwt>
<totfact> 0.12323497E+05</totfact>
</mgrwt>
</event>
<event>
12    1  0.1029207E-001  0.2479368E+03  0.7546771E-02  0.1115092E+00
         21   -1    0    0  503  502  0.00000000000E+00  0.00000000000E+00  0.36022783159E+03  0.36022783159E+03  0.00000000000E+00 0.  1.
         21   -1    0    0  501  503 -0.00000000000E+00 -0.00000000000E+00 -0.27775249938E+03  0.27775249938E+03  0.00000000000E+00 0.  1.
          6    2    1    2  501    0 -0.36702717717E+02  0.17011689886E+03 -0.15886476220E+03  0.29197787815E+03  0.17241293424E+03 0.  0.
         24    2    3    3    0    0 -0.59071797548E+02  0.18967264758E+03 -0.14051883216E+03  0.25674343208E+03  0.81892961953E+02 0.  0.
         -6    2    1    2    0  502  0.36702717717E+02 -0.17011689886E+03  0.24134009440E+03  0.34600245282E+03  0.17659503795E+03 0.  0.
        -24    2    5    5    0    0  0.49052086958E+02 -0.20238550218E+02  0.10448418907E+03  0.14261205203E+03  0.81274506878E+02 0.  0.
          5    1    3    3  501    0  0.22369079831E+02 -0.19555748725E+02 -0.18345930033E+02  0.35234446064E+02  0.47000000000E+01 0. -1.
        -11    1    4    4    0    0 -0.67767716747E+02  0.16334471868E+03 -0.14495853489E+03  0.22866337133E+03  0.00000000000E+00 0.  1.
         12    1    4    4    0    0  0.86959191994E+01  0.26327928908E+02  0.44397027262E+01  0.28080060748E+02  0.00000000000E+00 0. -1.
         -5    1    5    5    0  502 -0.12349369241E+02 -0.14987834864E+03  0.13685590533E+03  0.20339040080E+03  0.47000000000E+01 0.  1.
         13    1    6    6    0    0  0.57927112490E+02 -0.32240340052E+02  0.42251153945E+02  0.78613929413E+02  0.00000000000E+00 0. -1.
        -14    1    6    6    0    0 -0.88750255320E+01  0.12001789834E+02  0.62233035124E+02  0.63998122614E+02  0.00000000000E+00 0.  1.
<mgrwt>
<rscale>  2 0.24719317E+03</rscale>
<asrwt>0</asrwt>
<pdfrwt beam="1">  1       21 0.55419667E-01 0.24793680E+03</pdfrwt>
<pdfrwt beam="2">  1       21 0.42731153E-01 0.24793680E+03</pdfrwt>
<totfact> 0.15663068E+04</totfact>
</mgrwt>
</event>
<event>
12    1  0.1029207E-001  0.1778416E+03  0.7546771E-02  0.1169914E+00
         21   -1    0    0  503  502  0.00000000000E+00  0.00000000000E+00  0.97203474011E+02  0.97203474011E+02  0.00000000000E+00 0.  1.
         21   -1    0    0  501  503 -0.00000000000E+00 -0.00000000000E+00 -0.69861035868E+03  0.69861035868E+03  0.00000000000E+00 0. -1.
          6    2    1    2  501    0  0.27681872930E+02  0.31667925754E+02 -0.59155154236E+03  0.61769941380E+03  0.17277208957E+03 0.  0.
         24    2    3    3    0    0  0.38052014883E+02  0.37868765822E+02 -0.16435399578E+03  0.19030518822E+03  0.79509933163E+02 0.  0.
         -6    2    1    2    0  502 -0.27681872930E+02 -0.31667925754E+02 -0.98553423075E+01  0.17811441889E+03  0.17279604982E+03 0.  0.
        -24    2    5    5    0    0  0.32753354820E+02  0.14926801393E+01 -0.43457422551E+02  0.10128192359E+03  0.85407670181E+02 0.  0.
          5    1    3    3  501    0 -0.10370141953E+02 -0.62008400674E+01 -0.42719754658E+03  0.42739422559E+03  0.47000000000E+01 0. -1.
        -13    1    4    4    0    0  0.23480495835E+01 -0.67271041940E+01  0.68119995258E+01  0.98575151647E+01  0.00000000000E+00 0.  1.
         14    1    4    4    0    0  0.35703965300E+02  0.44595870016E+02 -0.17116599531E+03  0.18044767305E+03  0.00000000000E+00 0. -1.
         -5    1    5    5    0  502 -0.60435227751E+02 -0.33160605894E+02  0.33602080243E+02  0.76832495294E+02  0.47000000000E+01 0.  1.
         11    1    6    6    0    0 -0.22233997653E+02  0.23334811560E+02 -0.13229162612E+02  0.34840706445E+02  0.00000000000E+00 0. -1.
        -12    1    6    6    0    0  0.54987352473E+02 -0.21842131421E+02 -0.30228259939E+02  0.66441217147E+02  0.00000000000E+00 0.  1.
<mgrwt>
<rscale>  2 0.17783573E+03</rscale>
<asrwt>0</asrwt>
<pdfrwt beam="1">  1       21 0.14954381E-01 0.17784155E+03</pdfrwt>
<pdfrwt beam="2">  1       21 0.10747851E+00 0.17784155E+03</pdfrwt>
<totfact> 0.27484746E+04</totfact>
</mgrwt>
</event>
<event>
12    1  0.1029207E-001  0.3200858E+03  0.7546771E-02  0.1075785E+00
         21   -1    0    0  503  502  0.00000000000E+00  0.00000000000E+00  0.87143210348E+02  0.87143210348E+02  0.00000000000E+00 0. -1.
         21   -1    0    0  501  503 -0.00000000000E+00 -0.00000000000E+00 -0.12512171532E+04  0.12512171532E+04  0.00000000000E+00 0.  1.
          6    2    1    2  501    0  0.21332556221E+03 -0.16464687162E+03 -0.41299299460E+03  0.52251139303E+03  0.17273839884E+03 0.  0.
         24    2    3    3    0    0  0.71607733669E+02 -0.73271624059E+02 -0.88509866803E+02  0.15680007380E+03  0.79094046600E+02 0.  0.
         -6    2    1    2    0  502 -0.21332556221E+03  0.16464687162E+03 -0.75108094830E+03  0.81584897056E+03  0.16991340159E+03 0.  0.
        -24    2    5    5    0    0 -0.10806407426E+03  0.44986862613E+02 -0.21451867558E+03  0.25609932911E+03  0.76595967547E+02 0.  0.
          5    1    3    3  501    0  0.14171782854E+03 -0.91375247563E+02 -0.32448312780E+03  0.36571131924E+03  0.47000000000E+01 0. -1.
        -13    1    4    4    0    0 -0.97716917123E+01  0.85105496565E+01 -0.15769394375E+02  0.20410517223E+02  0.00000000000E+00 0.  1.
         14    1    4    4    0    0  0.81379425381E+02 -0.81782173715E+02 -0.72740472428E+02  0.13638955657E+03  0.00000000000E+00 0. -1.
         -5    1    5    5    0  502 -0.10526148796E+03  0.11966000901E+03 -0.53656227272E+03  0.55974964145E+03  0.47000000000E+01 0.  1.
         13    1    6    6    0    0  0.10345775453E+02  0.11851561266E+02 -0.36482406034E+02  0.39729844251E+02  0.00000000000E+00 0. -1.
        -14    1    6    6    0    0 -0.11840984971E+03  0.33135301347E+02 -0.17803626955E+03  0.21636948486E+03  0.00000000000E+00 0.  1.
<mgrwt>
<rscale>  2 0.31970624E+03</rscale>
<asrwt>0</asrwt>
<pdfrwt beam="1">  1       21 0.13406647E-01 0.32008584E+03</pdfrwt>
<pdfrwt beam="2">  1       21 0.19249495E+00 0.32008584E+03</pdfrwt>
<totfact> 0.66197133E+03</totfact>
</mgrwt>
</event>
<event>
12    1  0.1029207E-001  0.3029938E+03  0.7546771E-02  0.1084458E+00
         21   -1    0    0  503  502  0.00000000000E+00  0.00000000000E+00  0.17437769769E+03  0.17437769769E+03  0.00000000000E+00 0. -1.
         21   -1    0    0  501  503 -0.00000000000E+00 -0.00000000000E+00 -0.86042596686E+03  0.86042596686E+03  0.00000000000E+00 0.  1.
          6    2    1    2  501    0  0.10964117450E+03 -0.22148685611E+03 -0.66809988624E+03  0.73127872954E+03  0.16532848424E+03 0.  0.
         24    2    3    3    0    0  0.69984861305E+02 -0.14453152075E+03 -0.57644881158E+03  0.60511710183E+03  0.89923485606E+02 0.  0.
         -6    2    1    2    0  502 -0.10964117450E+03  0.22148685611E+03 -0.17948382927E+02  0.30352493501E+03  0.17529297519E+03 0.  0.
        -24    2    5    5    0    0 -0.66247380454E+02  0.20653736347E+03 -0.53315097802E+02  0.24539230035E+03  0.10162914686E+03 0.  0.
          5    1    3    3  501    0  0.39656313193E+02 -0.76955335363E+02 -0.91651074666E+02  0.12616162770E+03  0.47000000000E+01 0. -1.
        -13    1    4    4    0    0  0.90591279330E+02 -0.99843620196E+02 -0.42629300167E+03  0.44710317787E+03  0.00000000000E+00 0.  1.
         14    1    4    4    0    0 -0.20606418025E+02 -0.44687900552E+02 -0.15015580991E+03  0.15801392397E+03  0.00000000000E+00 0. -1.
         -5    1    5    5    0  502 -0.43393794044E+02  0.14949492638E+02  0.35366714875E+02  0.58132634662E+02  0.47000000000E+01 0.  1.
         13    1    6    6    0    0 -0.19228837893E+02  0.16837303879E+03 -0.78180447105E+01  0.16964772389E+03  0.00000000000E+00 0. -1.
        -14    1    6    6    0    0 -0.47018542561E+02  0.38164324681E+02 -0.45497053092E+02  0.75744576459E+02  0.00000000000E+00 0.  1.
<mgrwt>
<rscale>  2 0.30157037E+03</rscale>
<asrwt>0</asrwt>
<pdfrwt beam="1">  1       21 0.26827339E-01 0.30299380E+03</pdfrwt>
<pdfrwt beam="2">  1       21 0.13237322E+00 0.30299380E+03</pdfrwt>
<totfact> 0.50798426E+03</totfact>
</mgrwt>
</event>
<event>
12    1  0.1029207E-001  0.1892346E+03  0.7546771E-02  0.1160578E+00
         21   -1    0    0  501  502  0.00000000000E+00  0.00000000000E+00  0.93781028253E+02  0.93781028253E+02  0.00000000000E+00 0. -1.
         21   -1    0    0  502  503 -0.00000000000E+00 -0.00000000000E+00 -0.62997793071E+03  0.62997793071E+03  0.00000000000E+00 0. -1.
         -6    2    1    2    0  503 -0.44329711596E+01  0.57852892404E+02 -0.50338929433E+03  0.53778297364E+03  0.18011978429E+03 0.  0.
        -24    2    3    3    0    0  0.20430531589E+01  0.20401285196E+02 -0.49043859545E+03  0.49735560203E+03  0.80076166616E+02 0.  0.
          6    2    1    2  501    0  0.44329711596E+01 -0.57852892404E+02 -0.32807608123E+02  0.18597598532E+03  0.17362061967E+03 0.  0.
         24    2    5    5    0    0  0.19053378690E+02 -0.88502731701E+02 -0.67215484756E+02  0.13740479078E+03  0.78526367415E+02 0.  0.
          5    1    5    5  501    0 -0.14620407530E+02  0.30649839297E+02  0.34407876633E+02  0.48571194547E+02  0.47000000000E+01 0. -1.
        -13    1    6    6    0    0  0.42560162989E+02 -0.41484980886E+02 -0.11003793526E+02  0.60443813453E+02  0.00000000000E+00 0.  1.
         14    1    6    6    0    0 -0.23506784299E+02 -0.47017750815E+02 -0.56211691230E+02  0.76960977325E+02  0.00000000000E+00 0. -1.
         -5    1    3    3    0  503 -0.64760243186E+01  0.37451607208E+02 -0.12950698880E+02  0.40427371606E+02  0.47000000000E+01 0.  1.
         11    1    4    4    0    0 -0.10722194582E+02 -0.28362339875E+02 -0.23886473543E+03  0.24078153919E+03  0.00000000000E+00 0. -1.
        -12    1    4    4    0    0  0.12765247741E+02  0.48763625071E+02 -0.25157386002E+03  0.25657406284E+03  0.00000000000E+00 0.  1.
<mgrwt>
<rscale>  2 0.18767155E+03</rscale>
<asrwt>0</asrwt>
<pdfrwt beam="1">  1       21 0.14427851E-01 0.18923463E+03</pdfrwt>
<pdfrwt beam="2">  1       21 0.96919676E-01 0.18923463E+03</pdfrwt>
<totfact> 0.37281141E+04</totfact>
</mgrwt>
</event>
<event>
12    1  0.1029207E-001  0.2206839E+03  0.7546771E-02  0.1133444E+00
         21   -1    0    0  503  502  0.00000000000E+00  0.00000000000E+00  0.19380442826E+03  0.19380442826E+03  0.00000000000E+00 0.  1.
         21   -1    0    0  501  503 -0.00000000000E+00 -0.00000000000E+00 -0.30336501638E+03  0.30336501638E+03  0.00000000000E+00 0. -1.
          6    2    1    2  501    0  0.11798505117E+03  0.70231068830E+02 -0.15823339498E+03  0.27154964062E+03  0.17276725588E+03 0.  0.
         24    2    3    3    0    0  0.13611411377E+02  0.60409874186E+02 -0.30043282518E+02  0.10588399095E+03  0.80462396779E+02 0.  0.
         -6    2    1    2    0  502 -0.11798505117E+03 -0.70231068830E+02  0.48672806859E+02  0.22561980402E+03  0.17228574668E+03 0.  0.
        -24    2    5    5    0    0 -0.67117102074E+02 -0.80148759758E+02 -0.26172007497E+02  0.13446200087E+03  0.80414716443E+02 0.  0.
          5    1    3    3  501    0  0.10437363979E+03  0.98211946444E+01 -0.12819011246E+03  0.16566564967E+03  0.47000000000E+01 0. -1.
        -11    1    4    4    0    0  0.23456757446E+02  0.58949988542E+02  0.10348652558E+02  0.64283864451E+02  0.00000000000E+00 0.  1.
         12    1    4    4    0    0 -0.98453460681E+01  0.14598856440E+01 -0.40391935076E+02  0.41600126495E+02  0.00000000000E+00 0. -1.
         -5    1    5    5    0  502 -0.50867949097E+02  0.99176909276E+01  0.74844814356E+02  0.91157803148E+02  0.47000000000E+01 0.  1.
         13    1    6    6    0    0  0.12597988335E+02 -0.17744186085E+02 -0.25099639373E+02  0.33219833632E+02  0.00000000000E+00 0. -1.
        -14    1    6    6    0    0 -0.79715090408E+02 -0.62404573673E+02 -0.10723681246E+01  0.10124216724E+03  0.00000000000E+00 0.  1.
<mgrwt>
<rscale>  2 0.22058969E+03</rscale>
<asrwt>0</asrwt>
<pdfrwt beam="1">  1       21 0.29816066E-01 0.22068394E+03</pdfrwt>
<pdfrwt beam="2">  1       21 0.46671541E-01 0.22068394E+03</pdfrwt>
<totfact> 0.46772717E+04</totfact>
</mgrwt>
</event>
<event>
12    1  0.1029207E-001  0.1986173E+03  0.7546771E-02  0.1151191E+00
         21   -1    0    0  503  502  0.00000000000E+00  0.00000000000E+00  0.56012618820E+03  0.56012618820E+03  0.00000000000E+00 0. -1.
         21   -1    0    0  501  503 -0.00000000000E+00 -0.00000000000E+00 -0.13602325144E+03  0.13602325144E+03  0.00000000000E+00 0.  1.
          6    2    1    2  501    0  0.58301063897E+02 -0.78487562335E+02 -0.30875225969E+02  0.19970815023E+03  0.17137897828E+03 0.  0.
         24    2    3    3    0    0  0.21738899694E+02 -0.75831528281E+02 -0.81698898684E+02  0.13686722347E+03  0.76386689760E+02 0.  0.
         -6    2    1    2    0  502 -0.58301063897E+02  0.78487562335E+02  0.45497816273E+03  0.49644128941E+03  0.17288584031E+03 0.  0.
        -24    2    5    5    0    0  0.34624836057E+02  0.38734781492E+02  0.21436229218E+03  0.23541716480E+03  0.82284789644E+02 0.  0.
          5    1    3    3  501    0  0.36562164203E+02 -0.26560340536E+01  0.50823672715E+02  0.62840926762E+02  0.47000000000E+01 0. -1.
        -11    1    4    4    0    0  0.28370014347E+02  0.47416002674E+01 -0.25140064227E+02  0.38201614056E+02  0.00000000000E+00 0.  1.
         12    1    4    4    0    0 -0.66311146532E+01 -0.80573128549E+02 -0.56558834457E+02  0.98665609413E+02  0.00000000000E+00 0. -1.
         -5    1    5    5    0  502 -0.92925899954E+02  0.39752780843E+02  0.24061587055E+03  0.26102412461E+03  0.47000000000E+01 0.  1.
         11    1    6    6    0    0 -0.10164270154E+02  0.39350698687E+02  0.15947232943E+03  0.16456978377E+03  0.00000000000E+00 0. -1.
        -12    1    6    6    0    0  0.44789106211E+02 -0.61591719514E+00  0.54889962744E+02  0.70847381033E+02  0.00000000000E+00 0.  1.
<mgrwt>
<rscale>  2 0.19828891E+03</rscale>
<asrwt>0</asrwt>
<pdfrwt beam="1">  1       21 0.86173259E-01 0.19861728E+03</pdfrwt>
<pdfrwt beam="2">  1       21 0.20926654E-01 0.19861728E+03</pdfrwt>
<totfact> 0.24539210E+04</totfact>
</mgrwt>
</event>
<event>
12    1  0.1029207E-001  0.3170361E+03  0.7546771E-02  0.1077464E+00
         21   -1    0    0  503  502  0.00000000000E+00  0.00000000000E+00  0.19562665804E+03  0.19562665804E+03  0.00000000000E+00 0.  1.
         21   -1    0    0  501  503 -0.00000000000E+00 -0.00000000000E+00 -0.50777679724E+03  0.50777679724E+03  0.00000000000E+00 0. -1.
          6    2    1    2  501    0 -0.24004453276E+02  0.26412988587E+03 -0.16156130898E+03  0.35582854186E+03  0.17369825634E+03 0.  0.
         24    2    3    3    0    0 -0.44488350946E+02  0.89184738924E+02 -0.11859920768E+03  0.17446364269E+03  0.80241258283E+02 0.  0.
         -6    2    1    2    0  502  0.24004453276E+02 -0.26412988587E+03 -0.15058883022E+03  0.34757491342E+03  0.16670487174E+03 0.  0.
        -24    2    5    5    0    0 -0.37983738189E+02 -0.13588767014E+03 -0.11967430974E+03  0.20174487758E+03  0.80441481554E+02 0.  0.
          5    1    3    3  501    0  0.20483897670E+02  0.17494514695E+03 -0.42962101302E+02  0.18136489918E+03  0.47000000000E+01 0. -1.
        -11    1    4    4    0    0 -0.33046854274E+02  0.16858732655E+02 -0.24764241339E+01  0.37181233446E+02  0.00000000000E+00 0.  1.
         12    1    4    4    0    0 -0.11441496672E+02  0.72326006269E+02 -0.11612278354E+03  0.13728240924E+03  0.00000000000E+00 0. -1.
         -5    1    5    5    0  502  0.61988191465E+02 -0.12824221573E+03 -0.30914520488E+02  0.14583003584E+03  0.47000000000E+01 0.  1.
         11    1    6    6    0    0 -0.21555029890E+02 -0.13787241978E+03 -0.85189655862E+02  0.16349526267E+03  0.00000000000E+00 0. -1.
        -12    1    6    6    0    0 -0.16428708299E+02  0.19847496418E+01 -0.34484653875E+02  0.38249614905E+02  0.00000000000E+00 0.  1.
<mgrwt>
<rscale>  2 0.31608763E+03</rscale>
<asrwt>0</asrwt>
<pdfrwt beam="1">  1       21 0.30096410E-01 0.31703611E+03</pdfrwt>
<pdfrwt beam="2">  1       21 0.78119506E-01 0.31703611E+03</pdfrwt>
<totfact> 0.14415468E+04</totfact>
</mgrwt>
</event>
<event>
12    1  0.1029207E-001  0.1766981E+03  0.7546771E-02  0.1173836E+00
         21   -1    0    0  501  502  0.00000000000E+00  0.00000000000E+00  0.11391426445E+04  0.11391426445E+04  0.00000000000E+00 0.  1.
         21   -1    0    0  502  503 -0.00000000000E+00 -0.00000000000E+00 -0.28848303842E+02  0.28848303842E+02  0.00000000000E+00 0.  1.
         -6    2    1    2    0  503  0.22619244137E+02 -0.25855464973E+02  0.37938363214E+03  0.41851420948E+03  0.17332647787E+03 0.  0.
        -24    2    3    3    0    0 -0.27179980731E+02 -0.64328807310E+01  0.16505184832E+03  0.19756760251E+03  0.10493193805E+03 0.  0.
          6    2    1    2  501    0 -0.22619244137E+02  0.25855464973E+02  0.73091070849E+03  0.74947673883E+03  0.16218749332E+03 0.  0.
         24    2    5    5    0    0  0.26396686306E+02  0.61715602864E+02  0.45602211490E+03  0.46791974671E+03  0.80542655766E+02 0.  0.
          5    1    5    5  501    0 -0.49015930443E+02 -0.35860137891E+02  0.27488859359E+03  0.28155699212E+03  0.47000000000E+01 0. -1.
        -11    1    6    6    0    0  0.26546085448E+02  0.57224055168E+02  0.16178231533E+03  0.17364562965E+03  0.00000000000E+00 0.  1.
         12    1    6    6    0    0 -0.14939914200E+00  0.44915476957E+01  0.29423979957E+03  0.29427411706E+03  0.00000000000E+00 0. -1.
         -5    1    3    3    0  503  0.49799224868E+02 -0.19422584242E+02  0.21433178382E+03  0.22094660697E+03  0.47000000000E+01 0.  1.
         11    1    4    4    0    0  0.12804857189E+02  0.42968496868E+02  0.62504223459E+02  0.76922259723E+02  0.00000000000E+00 0. -1.
        -12    1    4    4    0    0 -0.39984837920E+02 -0.49401377599E+02  0.10254762486E+03  0.12064534279E+03  0.00000000000E+00 0.  1.
<mgrwt>
<rscale>  2 0.17390443E+03</rscale>
<asrwt>0</asrwt>
<pdfrwt beam="1">  1       21 0.17525268E+00 0.17669806E+03</pdfrwt>
<pdfrwt beam="2">  1       21 0.44382015E-02 0.17669806E+03</pdfrwt>
<totfact> 0.65132479E+04</totfact>
</mgrwt>
</event>
<event>
12    1  0.1029207E-001  0.2397386E+03  0.7546771E-02  0.1120136E+00
         21   -1    0    0  501  502  0.00000000000E+00  0.00000000000E+00  0.48437584325E+03  0.48437584325E+03  0.00000000000E+00 0. -1.
         21   -1    0    0  502  503 -0.00000000000E+00 -0.00000000000E+00 -0.11818345736E+03  0.11818345736E+03  0.00000000000E+00 0.  1.
         -6    2    1    2    0  503 -0.16221667079E+03  0.46462495170E-01  0.17834520863E+03  0.29799214144E+03  0.17515151293E+03 0.  0.
        -24    2    3    3    0    0 -0.50101739783E+02 -0.12772653106E+02  0.15480717753E+03  0.18262223034E+03  0.81928577457E+02 0.  0.
          6    2    1    2  501    0  0.16221667079E+03 -0.46462495170E-01  0.18784717726E+03  0.30456715917E+03  0.17652292202E+03 0.  0.
         24    2    5    5    0    0  0.16246854857E+03 -0.20407588111E+01  0.21294414758E+03  0.27895488517E+03  0.77912925773E+02 0.  0.
          5    1    5    5  501    0 -0.25187777525E+00  0.19942963159E+01 -0.25096970318E+02  0.25612273998E+02  0.47000000000E+01 0. -1.
        -11    1    6    6    0    0  0.60696216032E+02  0.26562930000E+02  0.43569874415E+02  0.79296619394E+02  0.00000000000E+00 0.  1.
         12    1    6    6    0    0  0.10177233253E+03 -0.28603688811E+02  0.16937427316E+03  0.19965826578E+03  0.00000000000E+00 0. -1.
         -5    1    3    3    0  503 -0.11211493101E+03  0.12819115601E+02  0.23538031096E+02  0.11536991110E+03  0.47000000000E+01 0.  1.
         11    1    4    4    0    0  0.23352853791E+01  0.29387266746E+02  0.51344173180E+02  0.59205482214E+02  0.00000000000E+00 0. -1.
        -12    1    4    4    0    0 -0.52437025162E+02 -0.42159919852E+02  0.10346300435E+03  0.12341674813E+03  0.00000000000E+00 0.  1.
<mgrwt>
<rscale>  2 0.23948620E+03</rscale>
<asrwt>0</asrwt>
<pdfrwt beam="1">  1       21 0.74519359E-01 0.23973859E+03</pdfrwt>
<pdfrwt beam="2">  1       21 0.18182071E-01 0.23973859E+03</pdfrwt>
<totfact> 0.43458728E+04</totfact>
</mgrwt>
</event>
<event>
12    1  0.1029207E-001  0.2224811E+03  0.7546771E-02  0.1132248E+00
         21   -1    0    0  503  502  0.00000000000E+00  0.00000000000E+00  0.91057738422E+02  0.91057738422E+02  0.00000000000E+00 0. -1.
         21   -1    0    0  501  503 -0.00000000000E+00 -0.00000000000E+00 -0.54659295806E+03  0.54659295806E+03  0.00000000000E+00 0. -1.
          6    2    1    2  501    0 -0.99686152037E+02 -0.99283333772E+02 -0.26081522984E+03  0.34281543060E+03  0.17234652904E+03 0.  0.
         24    2    3    3    0    0 -0.56113059009E+02  0.12370869833E+01 -0.18631795420E+03  0.21024505871E+03  0.79614062088E+02 0.  0.
         -6    2    1    2    0  502  0.99686152037E+02  0.99283333772E+02 -0.19471998980E+03  0.29483526588E+03  0.17093112738E+03 0.  0.
        -24    2    5    5    0    0  0.81753024635E+02  0.12656512586E+03 -0.10942250358E+03  0.20338230314E+03  0.81785015866E+02 0.  0.
          5    1    3    3  501    0 -0.43573093027E+02 -0.10052042076E+03 -0.74497275645E+02  0.13257037189E+03  0.47000000000E+01 0. -1.
        -11    1    4    4    0    0  0.12098629588E+02 -0.21794639858E+02 -0.57560050694E+02  0.62725932439E+02  0.00000000000E+00 0.  1.
         12    1    4    4    0    0 -0.68211688597E+02  0.23031726841E+02 -0.12875790350E+03  0.14751912627E+03  0.00000000000E+00 0. -1.
         -5    1    5    5    0  502  0.17933127401E+02 -0.27281792090E+02 -0.85297486219E+02  0.91452962736E+02  0.47000000000E+01 0.  1.
         13    1    6    6    0    0  0.38780063689E+02  0.41309003938E+01 -0.11000232010E+02  0.40521139940E+02  0.00000000000E+00 0. -1.
        -14    1    6    6    0    0  0.42972960947E+02  0.12243422547E+03 -0.98422271571E+02  0.16286116320E+03  0.00000000000E+00 0.  1.
<mgrwt>
<rscale>  2 0.22220692E+03</rscale>
<asrwt>0</asrwt>
<pdfrwt beam="1">  1       21 0.14008883E-01 0.22248109E+03</pdfrwt>
<pdfrwt beam="2">  1       21 0.84091224E-01 0.22248109E+03</pdfrwt>
<totfact> 0.53771146E+04</totfact>
</mgrwt>
</event>
<event>
12    1  0.1029207E-001  0.2018353E+03  0.7546771E-02  0.1149761E+00
         21   -1    0    0  501  502  0.00000000000E+00  0.00000000000E+00  0.23653972570E+04  0.23653972570E+04  0.00000000000E+00 0. -1.
         21   -1    0    0  502  503 -0.00000000000E+00 -0.00000000000E+00 -0.17199310533E+02  0.17199310533E+02  0.00000000000E+00 0. -1.
         -6    2    1    2    0  503  0.47705723724E+02 -0.91036480066E+02  0.97301388429E+03  0.99372707834E+03  0.17370667925E+03 0.  0.
        -24    2    3    3    0    0  0.74865153845E+02 -0.60050071804E+02  0.39087469386E+03  0.41011254872E+03  0.78730387617E+02 0.  0.
          6    2    1    2  501    0 -0.47705723724E+02  0.91036480066E+02  0.13751840622E+04  0.13888694892E+04  0.16511746237E+03 0.  0.
         24    2    5    5    0    0 -0.68262544836E+02  0.43327006428E+02  0.57863659663E+03  0.59061593822E+03  0.86428415549E+02 0.  0.
          5    1    5    5  501    0  0.20556821112E+02  0.47709473638E+02  0.79654746555E+03  0.79825355098E+03  0.47000000000E+01 0. -1.
        -13    1    6    6    0    0  0.75317541883E+01  0.38385254861E+02  0.13616450436E+03  0.14167190039E+03  0.00000000000E+00 0.  1.
         14    1    6    6    0    0 -0.75794299024E+02  0.49417515665E+01  0.44247209227E+03  0.44894403784E+03  0.00000000000E+00 0. -1.
         -5    1    3    3    0  503 -0.27159430122E+02 -0.30986408262E+02  0.58213919044E+03  0.58361452962E+03  0.47000000000E+01 0.  1.
         11    1    4    4    0    0  0.46891391454E+00 -0.48733535116E+02  0.14401612302E+03  0.15203887995E+03  0.00000000000E+00 0. -1.
        -12    1    4    4    0    0  0.74396239931E+02 -0.11316536688E+02  0.24685857083E+03  0.25807366877E+03  0.00000000000E+00 0.  1.
<mgrwt>
<rscale>  2 0.19997396E+03</rscale>
<asrwt>0</asrwt>
<pdfrwt beam="1">  1       21 0.36390701E+00 0.20183530E+03</pdfrwt>
<pdfrwt beam="2">  1       21 0.26460496E-02 0.20183530E+03</pdfrwt>
<totfact> 0.11133225E+04</totfact>
</mgrwt>
</event>
<event>
12    1  0.1029207E-001  0.2033394E+03  0.7546771E-02  0.1146967E+00
         21   -1    0    0  503  502  0.00000000000E+00  0.00000000000E+00  0.45948003275E+03  0.45948003275E+03  0.00000000000E+00 0.  1.
         21   -1    0    0  501  503 -0.00000000000E+00 -0.00000000000E+00 -0.21577537390E+03  0.21577537390E+03  0.00000000000E+00 0. -1.
          6    2    1    2  501    0  0.19233853944E+02 -0.10454105744E+03 -0.13595693113E+03  0.24460412629E+03  0.17334392879E+03 0.  0.
         24    2    3    3    0    0 -0.36603104155E+02 -0.87403283351E+02 -0.38633810766E+02  0.13100241439E+03  0.81792053809E+02 0.  0.
         -6    2    1    2    0  502 -0.19233853944E+02  0.10454105744E+03  0.37966158997E+03  0.43065128036E+03  0.17325942555E+03 0.  0.
        -24    2    5    5    0    0 -0.52508082840E+02  0.11439363126E+03  0.21406462344E+03  0.26139203292E+03  0.81603493965E+02 0.  0.
          5    1    3    3  501    0  0.55836958099E+02 -0.17137774092E+02 -0.97323120364E+02  0.11360171191E+03  0.47000000000E+01 0. -1.
        -11    1    4    4    0    0  0.21788332997E+01 -0.73641500058E+02 -0.49106285950E+02  0.88539511887E+02  0.00000000000E+00 0.  1.
         12    1    4    4    0    0 -0.38781937455E+02 -0.13761783293E+02  0.10472475184E+02  0.42462902499E+02  0.00000000000E+00 0. -1.
         -5    1    5    5    0  502  0.33274228896E+02 -0.98525738146E+01  0.16559696653E+03  0.16925924744E+03  0.47000000000E+01 0.  1.
         11    1    6    6    0    0 -0.22496380444E+02  0.11672987232E+03  0.15763629012E+03  0.19743644595E+03  0.00000000000E+00 0. -1.
        -12    1    6    6    0    0 -0.30011702396E+02 -0.23362410664E+01  0.56428333321E+02  0.63955586968E+02  0.00000000000E+00 0.  1.
<mgrwt>
<rscale>  2 0.20332134E+03</rscale>
<asrwt>0</asrwt>
<pdfrwt beam="1">  1       21 0.70689235E-01 0.20333935E+03</pdfrwt>
<pdfrwt beam="2">  1       21 0.33196212E-01 0.20333935E+03</pdfrwt>
<totfact> 0.15737083E+04</totfact>
</mgrwt>
</event>
<event>
12    1  0.1029207E-001  0.2499711E+03  0.7546771E-02  0.1113478E+00
         21   -1    0    0  501  502  0.00000000000E+00  0.00000000000E+00  0.62297681190E+03  0.62297681190E+03  0.00000000000E+00 0. -1.
         21   -1    0    0  502  503 -0.00000000000E+00 -0.00000000000E+00 -0.19977244907E+03  0.19977244907E+03  0.00000000000E+00 0. -1.
         -6    2    1    2    0  503 -0.88575920937E+01 -0.17906021551E+03 -0.79458580552E+02  0.26136208149E+03  0.17278730827E+03 0.  0.
        -24    2    3    3    0    0 -0.97074375183E+01 -0.14253464931E+03 -0.12288950881E+03  0.20441320307E+03  0.79199530391E+02 0.  0.
          6    2    1    2  501    0  0.88575920937E+01  0.17906021551E+03  0.50266294338E+03  0.56138717948E+03  0.17419676497E+03 0.  0.
         24    2    5    5    0    0 -0.26395608752E+02  0.19326608081E+03  0.43623214520E+03  0.48470774466E+03  0.81207186067E+02 0.  0.
          5    1    5    5  501    0  0.35253200846E+02 -0.14205865302E+02  0.66430798176E+02  0.76679434825E+02  0.47000000000E+01 0. -1.
        -11    1    6    6    0    0  0.10381528055E+02  0.26009542702E+02  0.19400672760E+02  0.34068439058E+02  0.00000000000E+00 0.  1.
         12    1    6    6    0    0 -0.36777136807E+02  0.16725653811E+03  0.41683147244E+03  0.45063930560E+03  0.00000000000E+00 0. -1.
         -5    1    3    3    0  503  0.84984542451E+00 -0.36525566198E+02  0.43430928262E+02  0.56948878418E+02  0.47000000000E+01 0.  1.
         13    1    4    4    0    0 -0.23448068953E+02 -0.57667320925E+02 -0.95844974553E+02  0.11428731770E+03  0.00000000000E+00 0. -1.
        -14    1    4    4    0    0  0.13740631434E+02 -0.84867328386E+02 -0.27044534261E+02  0.90125885366E+02  0.00000000000E+00 0.  1.
<mgrwt>
<rscale>  2 0.24972566E+03</rscale>
<asrwt>0</asrwt>
<pdfrwt beam="1">  1       21 0.95842585E-01 0.24997106E+03</pdfrwt>
<pdfrwt beam="2">  1       21 0.30734223E-01 0.24997106E+03</pdfrwt>
<totfact> 0.88870676E+03</totfact>
</mgrwt>
</event>
<event>
12    1  0.1029207E-001  0.2051914E+03  0.7546771E-02  0.1145624E+00
         21   -1    0    0  501  502  0.00000000000E+00  0.00000000000E+00  0.90009875327E+03  0.90009875327E+03  0.00000000000E+00 0.  1.
         21   -1    0    0  502  503 -0.00000000000E+00 -0.00000000000E+00 -0.48925821914E+02  0.48925821914E+02  0.00000000000E+00 0. -1.
         -6    2    1    2    0  503 -0.87112861149E+02 -0.63763488711E+02  0.52894995943E+03  0.56701518553E+03  0.17338894998E+03 0.  0.
        -24    2    3    3    0    0 -0.23115769200E+02  0.20320424033E+01  0.11272228883E+03  0.14076145421E+03  0.81049396115E+02 0.  0.
          6    2    1    2  501    0  0.87112861149E+02  0.63763488711E+02  0.32222297193E+03  0.38200938965E+03  0.17449669646E+03 0.  0.
         24    2    5    5    0    0  0.57558004392E+02 -0.63767379235E+01  0.27528381815E+03  0.29246322777E+03  0.79999827548E+02 0.  0.
          5    1    5    5  501    0  0.29554856757E+02  0.70140226634E+02  0.46939153780E+02  0.89546161882E+02  0.47000000000E+01 0. -1.
        -11    1    6    6    0    0  0.54111494777E+02  0.29457522925E+02  0.19441303317E+03  0.20394172450E+03  0.00000000000E+00 0.  1.
         12    1    6    6    0    0  0.34465096147E+01 -0.35834260848E+02  0.80870784973E+02  0.88521503271E+02  0.00000000000E+00 0. -1.
         -5    1    3    3    0  503 -0.63997091949E+02 -0.65795531114E+02  0.41622767060E+03  0.42625373132E+03  0.47000000000E+01 0.  1.
         11    1    4    4    0    0  0.24410253124E+02 -0.11255584452E+02  0.71753272756E+02  0.76622978213E+02  0.00000000000E+00 0. -1.
        -12    1    4    4    0    0 -0.47526022324E+02  0.13287626856E+02  0.40969016075E+02  0.64138476000E+02  0.00000000000E+00 0.  1.
<mgrwt>
<rscale>  2 0.20495574E+03</rscale>
<asrwt>0</asrwt>
<pdfrwt beam="1">  1       21 0.13847672E+00 0.20519145E+03</pdfrwt>
<pdfrwt beam="2">  1       21 0.75270502E-02 0.20519145E+03</pdfrwt>
<totfact> 0.48763650E+04</totfact>
</mgrwt>
</event>
<event>
12    1  0.1029207E-001  0.2342013E+03  0.7546771E-02  0.1124396E+00
         21   -1    0    0  501  502  0.00000000000E+00  0.00000000000E+00  0.42583410534E+03  0.42583410534E+03  0.00000000000E+00 0. -1.
         21   -1    0    0  502  503 -0.00000000000E+00 -0.00000000000E+00 -0.17633187036E+03  0.17633187036E+03  0.00000000000E+00 0.  1.
         -6    2    1    2    0  503 -0.14169664932E+03 -0.67194688989E+02 -0.35796719463E+02  0.23305114637E+03  0.16863678437E+03 0.  0.
        -24    2    3    3    0    0 -0.95276311729E+02 -0.20377075030E+02 -0.83606480088E+02  0.15147541511E+03  0.80386299248E+02 0.  0.
          6    2    1    2  501    0  0.14169664932E+03  0.67194688989E+02  0.28529895444E+03  0.36911482933E+03  0.17394596049E+03 0.  0.
         24    2    5    5    0    0  0.94460162570E+01  0.22645329676E+02  0.16339071083E+03  0.18375413981E+03  0.80417792375E+02 0.  0.
          5    1    5    5  501    0  0.13225063307E+03  0.44549359312E+02  0.12190824361E+03  0.18536068952E+03  0.47000000000E+01 0. -1.
        -13    1    6    6    0    0 -0.34291506349E+02  0.13325866627E+02  0.51789877053E+02  0.63526982411E+02  0.00000000000E+00 0.  1.
         14    1    6    6    0    0  0.43737522606E+02  0.93194630490E+01  0.11160083378E+03  0.12022715740E+03  0.00000000000E+00 0. -1.
         -5    1    3    3    0  503 -0.46420337593E+02 -0.46817613958E+02  0.47809760624E+02  0.81575731256E+02  0.47000000000E+01 0.  1.
         11    1    4    4    0    0  0.11746517048E+02 -0.70792038720E+01  0.18992212416E+01  0.13845679165E+02  0.00000000000E+00 0. -1.
        -12    1    4    4    0    0 -0.10702282878E+03 -0.13297871158E+02 -0.85505701329E+02  0.13762973595E+03  0.00000000000E+00 0.  1.
<mgrwt>
<rscale>  2 0.23321619E+03</rscale>
<asrwt>0</asrwt>
<pdfrwt beam="1">  1       21 0.65512939E-01 0.23420133E+03</pdfrwt>
<pdfrwt beam="2">  1       21 0.27127980E-01 0.23420133E+03</pdfrwt>
<totfact> 0.27139257E+04</totfact>
</mgrwt>
</event>
<event>
12    1  0.1029207E-001  0.1762033E+03  0.7546771E-02  0.1172018E+00
         21   -1    0    0  503  502  0.00000000000E+00  0.00000000000E+00  0.31726450849E+03  0.31726450849E+03  0.00000000000E+00 0. -1.
         21   -1    0    0  501  503 -0.00000000000E+00 -0.00000000000E+00 -0.99931547505E+02  0.99931547505E+02  0.00000000000E+00 0. -1.
          6    2    1    2  501    0 -0.30895716098E+02 -0.56109876940E+01  0.72201562717E+02  0.19042235373E+03  0.17338275199E+03 0.  0.
         24    2    3    3    0    0 -0.54979392716E+02 -0.47297275077E+02  0.55976307820E+01  0.10810623268E+03  0.79974109697E+02 0.  0.
         -6    2    1    2    0  502  0.30895716098E+02  0.56109876940E+01  0.14513139827E+03  0.22677370226E+03  0.17139766865E+03 0.  0.
        -24    2    5    5    0    0  0.55067896431E+02  0.61020377824E+02  0.10649501757E+03  0.15487547746E+03  0.76741546919E+02 0.  0.
          5    1    3    3  501    0  0.24083676618E+02  0.41686287383E+02  0.66603931935E+02  0.82316121048E+02  0.47000000000E+01 0. -1.
        -13    1    4    4    0    0  0.26076384123E+01  0.98960474129E+01  0.22933259129E+02  0.25113062473E+02  0.00000000000E+00 0.  1.
         14    1    4    4    0    0 -0.57587031128E+02 -0.57193322490E+02 -0.17335628347E+02  0.82993170212E+02  0.00000000000E+00 0. -1.
         -5    1    5    5    0  502 -0.24172180333E+02 -0.55409390130E+02  0.38636380701E+02  0.71898224806E+02  0.47000000000E+01 0.  1.
         11    1    6    6    0    0 -0.74225580719E+01  0.40224467935E+02  0.65737180328E+02  0.77424021250E+02  0.00000000000E+00 0. -1.
        -12    1    6    6    0    0  0.62490454503E+02  0.20795909889E+02  0.40757837241E+02  0.77451456207E+02  0.00000000000E+00 0.  1.
<mgrwt>
<rscale>  2 0.17571303E+03</rscale>
<asrwt>0</asrwt>
<pdfrwt beam="1">  1       21 0.48809924E-01 0.17620331E+03</pdfrwt>
<pdfrwt beam="2">  1       21 0.15374084E-01 0.17620331E+03</pdfrwt>
<totfact> 0.15107113E+05</totfact>
</mgrwt>
</event>
<event>
12    1  0.1029207E-001  0.2226949E+03  0.7546771E-02  0.1131974E+00
         21   -1    0    0  503  502  0.00000000000E+00  0.00000000000E+00  0.13497239470E+03  0.13497239470E+03  0.00000000000E+00 0. -1.
         21   -1    0    0  501  503 -0.00000000000E+00 -0.00000000000E+00 -0.52532263823E+03  0.52532263823E+03  0.00000000000E+00 0.  1.
          6    2    1    2  501    0  0.55902821883E+02  0.12813282352E+03 -0.13883357789E+02  0.22312720694E+03  0.17334894546E+03 0.  0.
         24    2    3    3    0    0  0.88312342146E+02  0.35922440862E+02 -0.96472284069E+01  0.12518249566E+03  0.80548722346E+02 0.  0.
         -6    2    1    2    0  502 -0.55902821883E+02 -0.12813282352E+03 -0.37646688574E+03  0.43716782600E+03  0.17275776704E+03 0.  0.
        -24    2    5    5    0    0 -0.61746617576E+02 -0.11990610385E+02 -0.20862553216E+03  0.23292293967E+03  0.82292549088E+02 0.  0.
          5    1    3    3  501    0 -0.32409520263E+02  0.92210382662E+02 -0.42361293818E+01  0.97944711274E+02  0.47000000000E+01 0. -1.
        -11    1    4    4    0    0  0.63866441465E+02  0.36511359858E+02  0.29307164048E+02  0.79189087687E+02  0.00000000000E+00 0.  1.
         12    1    4    4    0    0  0.24445900680E+02 -0.58891899684E+00 -0.38954392455E+02  0.45993407975E+02  0.00000000000E+00 0. -1.
         -5    1    5    5    0  502  0.58437956933E+01 -0.11614221314E+03 -0.16784135358E+03  0.20424488633E+03  0.47000000000E+01 0.  1.
         13    1    6    6    0    0 -0.35995978506E+02 -0.32743656610E+02 -0.45976210765E+02  0.66945272224E+02  0.00000000000E+00 0. -1.
        -14    1    6    6    0    0 -0.25750639070E+02  0.20753046225E+02 -0.16264932140E+03  0.16597766745E+03  0.00000000000E+00 0.  1.
<mgrwt>
<rscale>  2 0.22257981E+03</rscale>
<asrwt>0</asrwt>
<pdfrwt beam="1">  1       21 0.20764984E-01 0.22269486E+03</pdfrwt>
<pdfrwt beam="2">  1       21 0.80818868E-01 0.22269486E+03</pdfrwt>
<totfact> 0.28448639E+04</totfact>
</mgrwt>
</event>
<event>
12    1  0.1029207E-001  0.1942223E+03  0.7546771E-02  0.1155175E+00
         21   -1    0    0  503  502  0.00000000000E+00  0.00000000000E+00  0.61568783274E+03  0.61568783274E+03  0.00000000000E+00 0. -1.
         21   -1    0    0  501  503 -0.00000000000E+00 -0.00000000000E+00 -0.16149266981E+03  0.16149266981E+03  0.00000000000E+00 0. -1.
          6    2    1    2  501    0  0.83567032234E+02  0.81596875264E+01 -0.80514678349E+02  0.20828954568E+03  0.17277700088E+03 0.  0.
         24    2    3    3    0    0  0.63574529051E+02 -0.61180634425E+02 -0.59656500221E+02  0.13302378968E+03  0.79697175796E+02 0.  0.
         -6    2    1    2    0  502 -0.83567032234E+02 -0.81596875264E+01  0.53470984128E+03  0.56889095687E+03  0.17513502525E+03 0.  0.
        -24    2    5    5    0    0 -0.11117248816E+03  0.16241705531E+02  0.49750197342E+03  0.51631715531E+03  0.80324816737E+02 0.  0.
          5    1    3    3  501    0  0.19992503183E+02  0.69340321951E+02 -0.20858178128E+02  0.75265756003E+02  0.47000000000E+01 0. -1.
        -11    1    4    4    0    0 -0.18199125820E+02 -0.20337841685E+02 -0.17009836194E+02  0.32158521614E+02  0.00000000000E+00 0.  1.
         12    1    4    4    0    0  0.81773654871E+02 -0.40842792740E+02 -0.42646664027E+02  0.10086526807E+03  0.00000000000E+00 0. -1.
         -5    1    5    5    0  502  0.27605455926E+02 -0.24401393058E+02  0.37207867857E+02  0.52573801560E+02  0.47000000000E+01 0.  1.
         13    1    6    6    0    0  0.12500834864E+02  0.42295263814E+01  0.64677421129E+02  0.66010064154E+02  0.00000000000E+00 0. -1.
        -14    1    6    6    0    0 -0.12367332302E+03  0.12012179150E+02  0.43282455229E+03  0.45030709115E+03  0.00000000000E+00 0.  1.
<mgrwt>
<rscale>  2 0.19368923E+03</rscale>
<asrwt>0</asrwt>
<pdfrwt beam="1">  1       21 0.94721204E-01 0.19422231E+03</pdfrwt>
<pdfrwt beam="2">  1       21 0.24845027E-01 0.19422231E+03</pdfrwt>
<totfact> 0.14282568E+04</totfact>
</mgrwt>
</event>
<event>
12    1  0.1029207E-001  0.1732852E+03  0.7546771E-02  0.1174589E+00
         21   -1    0    0  501  502  0.00000000000E+00  0.00000000000E+00  0.55846573404E+03  0.55846573404E+03  0.00000000000E+00 0.  1.
         21   -1    0    0  502  503 -0.00000000000E+00 -0.00000000000E+00 -0.53727554413E+02  0.53727554413E+02  0.00000000000E+00 0.  1.
         -6    2    1    2    0  503 -0.10944403204E+02 -0.42076413729E+01  0.26664966706E+03  0.31800910219E+03  0.17288799821E+03 0.  0.
        -24    2    3    3    0    0 -0.38280750931E+02  0.23030581301E+02  0.26306440048E+03  0.27896885606E+03  0.81393613288E+02 0.  0.
          6    2    1    2  501    0  0.10944403204E+02  0.42076413729E+01  0.23808851256E+03  0.29418418626E+03  0.17239695886E+03 0.  0.
         24    2    5    5    0    0  0.65599264550E+02  0.23906129910E+02  0.19376066840E+03  0.22095692298E+03  0.80024987573E+02 0.  0.
          5    1    5    5  501    0 -0.54654861347E+02 -0.19698488537E+02  0.44327844162E+02  0.73227263280E+02  0.47000000000E+01 0. -1.
        -11    1    6    6    0    0 -0.13445101344E+02  0.98681077484E+01  0.80008138808E+02  0.81727917973E+02  0.00000000000E+00 0.  1.
         12    1    6    6    0    0  0.79044365895E+02  0.14038022161E+02  0.11375252959E+03  0.13922900501E+03  0.00000000000E+00 0. -1.
         -5    1    3    3    0  503  0.27336347727E+02 -0.27238222673E+02  0.35852665789E+01  0.39040246130E+02  0.47000000000E+01 0.  1.
         11    1    4    4    0    0 -0.41152357630E+02 -0.20176242734E+02  0.95933927514E+02  0.10631987471E+03  0.00000000000E+00 0. -1.
        -12    1    4    4    0    0  0.28716066988E+01  0.43206824034E+02  0.16713047297E+03  0.17264898136E+03  0.00000000000E+00 0.  1.
<mgrwt>
<rscale>  2 0.17316254E+03</rscale>
<asrwt>0</asrwt>
<pdfrwt beam="1">  1       21 0.85917801E-01 0.17328515E+03</pdfrwt>
<pdfrwt beam="2">  1       21 0.82657780E-02 0.17328515E+03</pdfrwt>
<totfact> 0.13347757E+05</totfact>
</mgrwt>
</event>
<event>
12    1  0.1029207E-001  0.2106933E+03  0.7546771E-02  0.1144350E+00
         21   -1    0    0  503  502  0.00000000000E+00  0.00000000000E+00  0.13885523489E+04  0.13885523489E+04  0.00000000000E+00 0. -1.
         21   -1    0    0  501  503 -0.00000000000E+00 -0.00000000000E+00 -0.30872160070E+02  0.30872160070E+02  0.00000000000E+00 0.  1.
          6    2    1    2  501    0  0.65077758372E+01 -0.11731172938E+03  0.50661464255E+03  0.54266672058E+03  0.15499800186E+03 0.  0.
         24    2    3    3    0    0 -0.73934667428E+01 -0.12362888676E+03  0.29357966437E+03  0.32903352336E+03  0.82068722278E+02 0.  0.
         -6    2    1    2    0  502 -0.65077758372E+01  0.11731172938E+03  0.85106554630E+03  0.87675778841E+03  0.17489214517E+03 0.  0.
        -24    2    5    5    0    0 -0.54539103944E+01  0.15603607215E+03  0.69717939000E+03  0.71800097924E+03  0.71339353837E+02 0.  0.
          5    1    3    3  501    0  0.13901242580E+02  0.63171573781E+01  0.21303497819E+03  0.21363319722E+03  0.47000000000E+01 0. -1.
        -13    1    4    4    0    0  0.16839968318E+02 -0.15624046552E+02  0.10843904408E+02  0.25402472841E+02  0.00000000000E+00 0.  1.
         14    1    4    4    0    0 -0.24233435061E+02 -0.10800484021E+03  0.28273575996E+03  0.30363105052E+03  0.00000000000E+00 0. -1.
         -5    1    5    5    0  502 -0.10538654429E+01 -0.38724342770E+02  0.15388615630E+03  0.15875680917E+03  0.47000000000E+01 0.  1.
         13    1    6    6    0    0  0.30007719754E+02  0.71177818154E+02  0.25898356325E+03  0.27025771234E+03  0.00000000000E+00 0. -1.
        -14    1    6    6    0    0 -0.35461630148E+02  0.84858253996E+02  0.43819582674E+03  0.44774326691E+03  0.00000000000E+00 0.  1.
<mgrwt>
<rscale>  2 0.20652174E+03</rscale>
<asrwt>0</asrwt>
<pdfrwt beam="1">  1       21 0.21362339E+00 0.21069327E+03</pdfrwt>
<pdfrwt beam="2">  1       21 0.47495642E-02 0.21069327E+03</pdfrwt>
<totfact> 0.31904572E+04</totfact>
</mgrwt>
</event>
<event>
12    1  0.1029207E-001  0.1834057E+03  0.7546771E-02  0.1165082E+00
         21   -1    0    0  501  502  0.00000000000E+00  0.00000000000E+00  0.13688058767E+03  0.13688058767E+03  0.00000000000E+00 0. -1.
         21   -1    0    0  502  503 -0.00000000000E+00 -0.00000000000E+00 -0.47802261468E+03  0.47802261468E+03  0.00000000000E+00 0. -1.
         -6    2    1    2    0  503 -0.39570615093E+02  0.42642346898E+02 -0.38680212084E+03  0.42808121262E+03  0.17393516201E+03 0.  0.
        -24    2    3    3    0    0 -0.22949201678E+01 -0.39308882936E+02 -0.23476666638E+03  0.25132615352E+03  0.80616331254E+02 0.  0.
          6    2    1    2  501    0  0.39570615093E+02 -0.42642346898E+02  0.45660093833E+02  0.18682198974E+03  0.17156167507E+03 0.  0.
         24    2    5    5    0    0  0.28204160426E+02 -0.89699061170E+02  0.57113007650E+02  0.13685410120E+03  0.81398729308E+02 0.  0.
          5    1    5    5  501    0  0.11366454668E+02  0.47056714271E+02 -0.11452913817E+02  0.49967888535E+02  0.47000000000E+01 0. -1.
        -13    1    6    6    0    0  0.16987739412E+02  0.81176624738E+01 -0.61699910228E+01  0.19812837343E+02  0.00000000000E+00 0.  1.
         14    1    6    6    0    0  0.11216421014E+02 -0.97816723643E+02  0.63282998673E+02  0.11704126386E+03  0.00000000000E+00 0. -1.
         -5    1    3    3    0  503 -0.37275694925E+02  0.81951229834E+02 -0.15203545447E+03  0.17675505910E+03  0.47000000000E+01 0.  1.
         11    1    4    4    0    0 -0.43499381661E+01 -0.53145857079E+02 -0.23066529133E+03  0.23674856011E+03  0.00000000000E+00 0. -1.
        -12    1    4    4    0    0  0.20550179984E+01  0.13836974143E+02 -0.41013750409E+01  0.14577593410E+02  0.00000000000E+00 0.  1.
<mgrwt>
<rscale>  2 0.18284074E+03</rscale>
<asrwt>0</asrwt>
<pdfrwt beam="1">  1       21 0.21058552E-01 0.18340568E+03</pdfrwt>
<pdfrwt beam="2">  1       21 0.73541940E-01 0.18340568E+03</pdfrwt>
<totfact> 0.34981594E+04</totfact>
</mgrwt>
</event>
<event>
12    1  0.1029207E-001  0.2323589E+03  0.7546771E-02  0.1125378E+00
         21   -1    0    0  503  502  0.00000000000E+00  0.00000000000E+00  0.91037744649E+02  0.91037744649E+02  0.00000000000E+00 0. -1.
         21   -1    0    0  501  503 -0.00000000000E+00 -0.00000000000E+00 -0.61812695809E+03  0.61812695809E+03  0.00000000000E+00 0. -1.
          6    2    1    2  501    0  0.50330233981E+02  0.14307181526E+03 -0.34139276005E+03  0.41171918998E+03  0.17309245508E+03 0.  0.
         24    2    3    3    0    0  0.89555043007E+02  0.14691834565E+03 -0.29461205423E+03  0.35036851046E+03  0.79729070051E+02 0.  0.
         -6    2    1    2    0  502 -0.50330233981E+02 -0.14307181526E+03 -0.18569645339E+03  0.29744551277E+03  0.17603404071E+03 0.  0.
        -24    2    5    5    0    0 -0.29267633246E+02  0.25504198019E+01 -0.73696830165E+02  0.11247126024E+03  0.79721155333E+02 0.  0.
          5    1    3    3  501    0 -0.39224809026E+02 -0.38465303957E+01 -0.46780705825E+02  0.61350679513E+02  0.47000000000E+01 0. -1.
        -11    1    4    4    0    0 -0.15928440318E+01 -0.74307958607E+01 -0.28637081655E+02  0.29628302768E+02  0.00000000000E+00 0.  1.
         12    1    4    4    0    0  0.91147887039E+02  0.15434914151E+03 -0.26597497257E+03  0.32074020770E+03  0.00000000000E+00 0. -1.
         -5    1    5    5    0  502 -0.21062600735E+02 -0.14562223506E+03 -0.11199962323E+03  0.18497425252E+03  0.47000000000E+01 0.  1.
         13    1    6    6    0    0 -0.35689883452E+02 -0.17967391703E+02 -0.80541598292E+02  0.89908531301E+02  0.00000000000E+00 0. -1.
        -14    1    6    6    0    0  0.64222502056E+01  0.20517811504E+02  0.68447681271E+01  0.22562728943E+02  0.00000000000E+00 0.  1.
<mgrwt>
<rscale>  2 0.23180177E+03</rscale>
<asrwt>0</asrwt>
<pdfrwt beam="1">  1       21 0.14005807E-01 0.23235890E+03</pdfrwt>
<pdfrwt beam="2">  1       21 0.95096452E-01 0.23235890E+03</pdfrwt>
<totfact> 0.40243083E+04</totfact>
</mgrwt>
</event>
<event>
12    1  0.1029207E-001  0.3166401E+03  0.7546771E-02  0.1077292E+00
         21   -1    0    0  501  502  0.00000000000E+00  0.00000000000E+00  0.40608103245E+03  0.40608103245E+03  0.00000000000E+00 0. -1.
         21   -1    0    0  502  503 -0.00000000000E+00 -0.00000000000E+00 -0.36606153305E+03  0.36606153305E+03  0.00000000000E+00 0.  1.
         -6    2    1    2    0  503 -0.21982722594E+03 -0.14633988973E+03 -0.20077819308E+03  0.37493046209E+03  0.17470431018E+03 0.  0.
        -24    2    3    3    0    0 -0.59326188724E+02 -0.11507943651E+03 -0.85760277820E+02  0.17495793969E+03  0.80576560072E+02 0.  0.
          6    2    1    2  501    0  0.21982722594E+03  0.14633988973E+03  0.24079769248E+03  0.39721210340E+03  0.17336249246E+03 0.  0.
         24    2    5    5    0    0  0.56701991688E+02  0.76663812259E+02  0.15698111219E+03  0.20096759531E+03  0.81562545389E+02 0.  0.
          5    1    5    5  501    0  0.16312523425E+03  0.69676077474E+02  0.83816580295E+02  0.19624450809E+03  0.47000000000E+01 0. -1.
        -13    1    6    6    0    0  0.41055136804E+02 -0.81791207004E+00  0.28031998093E+02  0.49719072349E+02  0.00000000000E+00 0.  1.
         14    1    6    6    0    0  0.15646854884E+02  0.77481724329E+02  0.12894911410E+03  0.15124852296E+03  0.00000000000E+00 0. -1.
         -5    1    3    3    0  503 -0.16050103722E+03 -0.31260453222E+02 -0.11501791526E+03  0.19997252240E+03  0.47000000000E+01 0.  1.
         11    1    4    4    0    0 -0.23682536574E+02  0.31182941981E+01  0.12532052178E+01  0.23919799760E+02  0.00000000000E+00 0. -1.
        -12    1    4    4    0    0 -0.35643652151E+02 -0.11819773071E+03 -0.87013483038E+02  0.15103813993E+03  0.00000000000E+00 0.  1.
<mgrwt>
<rscale>  2 0.31645537E+03</rscale>
<asrwt>0</asrwt>
<pdfrwt beam="1">  1       21 0.62474005E-01 0.31664012E+03</pdfrwt>
<pdfrwt beam="2">  1       21 0.56317158E-01 0.31664012E+03</pdfrwt>
<totfact> 0.65521662E+03</totfact>
</mgrwt>
</event>
<event>
12    1  0.1029207E-001  0.1854566E+03  0.7546771E-02  0.1164290E+00
         21   -1    0    0  503  502  0.00000000000E+00  0.00000000000E+00  0.35448437493E+02  0.35448437493E+02  0.00000000000E+00 0. -1.
         21   -1    0    0  501  503 -0.00000000000E+00 -0.00000000000E+00 -0.95916247322E+03  0.95916247322E+03  0.00000000000E+00 0.  1.
          6    2    1    2  501    0  0.53647390645E+02 -0.54727591685E+00 -0.37254481623E+03  0.41307703031E+03  0.17019004329E+03 0.  0.
         24    2    3    3    0    0  0.91370740874E+02 -0.32339167375E+02 -0.23052876816E+03  0.26266285736E+03  0.80335730857E+02 0.  0.
         -6    2    1    2    0  502 -0.53647390645E+02  0.54727591685E+00 -0.55116921950E+03  0.58153388040E+03  0.17752690923E+03 0.  0.
        -24    2    5    5    0    0  0.64361208643E+01 -0.54781907126E+02 -0.36227039441E+03  0.37567906999E+03  0.82779489982E+02 0.  0.
          5    1    3    3  501    0 -0.37723350229E+02  0.31791891458E+02 -0.14201604807E+03  0.15041417295E+03  0.47000000000E+01 0. -1.
        -13    1    4    4    0    0  0.45356241218E+02 -0.54935065758E+02 -0.16293968123E+03  0.17783247675E+03  0.00000000000E+00 0.  1.
         14    1    4    4    0    0  0.46014499656E+02  0.22595898384E+02 -0.67589086924E+02  0.84830380605E+02  0.00000000000E+00 0. -1.
         -5    1    5    5    0  502 -0.60083511509E+02  0.55329183043E+02 -0.18889882509E+03  0.20585481042E+03  0.47000000000E+01 0.  1.
         13    1    6    6    0    0 -0.32710667993E+02 -0.42822239748E+02 -0.14731887693E+03  0.15686485750E+03  0.00000000000E+00 0. -1.
        -14    1    6    6    0    0  0.39146788857E+02 -0.11959667378E+02 -0.21495151748E+03  0.21881421249E+03  0.00000000000E+00 0.  1.
<mgrwt>
<rscale>  2 0.18367855E+03</rscale>
<asrwt>0</asrwt>
<pdfrwt beam="1">  1       21 0.54536067E-02 0.18545659E+03</pdfrwt>
<pdfrwt beam="2">  1       21 0.14756343E+00 0.18545659E+03</pdfrwt>
<totfact> 0.72685925E+04</totfact>
</mgrwt>
</event>
<event>
12    1  0.1029207E-001  0.2555146E+03  0.7546771E-02  0.1110149E+00
         21   -1    0    0  503  502  0.00000000000E+00  0.00000000000E+00  0.99053837460E+03  0.99053837460E+03  0.00000000000E+00 0.  1.
         21   -1    0    0  501  503 -0.00000000000E+00 -0.00000000000E+00 -0.14046410779E+03  0.14046410779E+03  0.00000000000E+00 0.  1.
          6    2    1    2  501    0 -0.18050988599E+03 -0.54639923405E+02  0.12466368092E+02  0.25581852411E+03  0.17239015858E+03 0.  0.
         24    2    3    3    0    0 -0.14522327711E+03 -0.10337403962E+03  0.13643482973E+02  0.19545599891E+03  0.78999434174E+02 0.  0.
         -6    2    1    2    0  502  0.18050988599E+03  0.54639923405E+02  0.83760789872E+03  0.87518395828E+03  0.16967801464E+03 0.  0.
        -24    2    5    5    0    0  0.20091376692E+03  0.38439628038E+02  0.65959123709E+03  0.69520954413E+03  0.80073487920E+02 0.  0.
          5    1    3    3  501    0 -0.35286608876E+02  0.48734116215E+02 -0.11771148811E+01  0.60362525201E+02  0.47000000000E+01 0. -1.
        -11    1    4    4    0    0 -0.44224318217E+02 -0.38883875307E+02 -0.32245151824E+02  0.67137887193E+02  0.00000000000E+00 0.  1.
         12    1    4    4    0    0 -0.10099895890E+03 -0.64490164313E+02  0.45888634797E+02  0.12831811172E+03  0.00000000000E+00 0. -1.
         -5    1    5    5    0  502 -0.20403880930E+02  0.16200295367E+02  0.17801666164E+03  0.17997441415E+03  0.47000000000E+01 0.  1.
         11    1    6    6    0    0  0.55067587744E+02 -0.23301374437E+02  0.14655453013E+03  0.15828336480E+03  0.00000000000E+00 0. -1.
        -12    1    6    6    0    0  0.14584617918E+03  0.61741002475E+02  0.51303670696E+03  0.53692617933E+03  0.00000000000E+00 0.  1.
<mgrwt>
<rscale>  2 0.25505789E+03</rscale>
<asrwt>0</asrwt>
<pdfrwt beam="1">  1       21 0.15239051E+00 0.25551459E+03</pdfrwt>
<pdfrwt beam="2">  1       21 0.21609863E-01 0.25551459E+03</pdfrwt>
<totfact> 0.54631205E+03</totfact>
</mgrwt>
</event>
<event>
12    1  0.1029207E-001  0.1952021E+03  0.7546771E-02  0.1154519E+00
         21   -1    0    0  501  502  0.00000000000E+00  0.00000000000E+00  0.23787182031E+03  0.23787182031E+03  0.00000000000E+00 0. -1.
         21   -1    0    0  502  503 -0.00000000000E+00 -0.00000000000E+00 -0.34808364535E+03  0.34808364535E+03  0.00000000000E+00 0. -1.
         -6    2    1    2    0  503  0.74017155588E+02  0.40052548242E+02 -0.27197207566E+03  0.33477254943E+03  0.17612808969E+03 0.  0.
        -24    2    3    3    0    0  0.80425854396E+02  0.85401403634E+02 -0.16315578307E+03  0.21661728871E+03  0.80879678654E+02 0.  0.
          6    2    1    2  501    0 -0.74017155588E+02 -0.40052548242E+02  0.16176025062E+03  0.25118291623E+03  0.17275338719E+03 0.  0.
         24    2    5    5    0    0 -0.13132722947E+02  0.94154003625E+01  0.13726712818E+02  0.83582169246E+02  0.80848241756E+02 0.  0.
          5    1    5    5  501    0 -0.60884432641E+02 -0.49467948604E+02  0.14803353780E+03  0.16760074699E+03  0.47000000000E+01 0. -1.
        -13    1    6    6    0    0  0.19648573671E+02 -0.15993436034E+02 -0.18239432719E+02  0.31217516708E+02  0.00000000000E+00 0.  1.
         14    1    6    6    0    0 -0.32781296618E+02  0.25408836396E+02  0.31966145537E+02  0.52364652538E+02  0.00000000000E+00 0. -1.
         -5    1    3    3    0  503 -0.64086988082E+01 -0.45348855393E+02 -0.10881629258E+03  0.11815526072E+03  0.47000000000E+01 0.  1.
         13    1    4    4    0    0  0.31721701585E+02 -0.11178133376E+02 -0.48192117957E+02  0.58768165280E+02  0.00000000000E+00 0. -1.
        -14    1    4    4    0    0  0.48704152811E+02  0.96579537010E+02 -0.11496366512E+03  0.15784912343E+03  0.00000000000E+00 0.  1.
<mgrwt>
<rscale>  2 0.19443774E+03</rscale>
<asrwt>0</asrwt>
<pdfrwt beam="1">  1       21 0.36595665E-01 0.19520207E+03</pdfrwt>
<pdfrwt beam="2">  1       21 0.53551330E-01 0.19520207E+03</pdfrwt>
<totfact> 0.23729718E+04</totfact>
</mgrwt>
</event>
<event>
12    1  0.1029207E-001  0.2074110E+03  0.7546771E-02  0.1144413E+00
         21   -1    0    0  501  502  0.00000000000E+00  0.00000000000E+00  0.11018247454E+03  0.11018247454E+03  0.00000000000E+00 0.  1.
         21   -1    0    0  502  503 -0.00000000000E+00 -0.00000000000E+00 -0.39021304535E+03  0.39021304535E+03  0.00000000000E+00 0.  1.
         -6    2    1    2    0  503  0.11478888819E+03  0.65348368587E+01 -0.17473571419E+03  0.27120450379E+03  0.17262711293E+03 0.  0.
        -24    2    3    3    0    0  0.80671305604E+02  0.12043232033E+02 -0.19786992316E+03  0.22935198316E+03  0.82443475785E+02 0.  0.
          6    2    1    2  501    0 -0.11478888819E+03 -0.65348368587E+01 -0.10529485662E+03  0.22919101610E+03  0.16799500613E+03 0.  0.
         24    2    5    5    0    0 -0.52532219183E+02  0.47304292288E+02 -0.18243653786E+02  0.10929711893E+03  0.81336948440E+02 0.  0.
          5    1    5    5  501    0 -0.62256669007E+02 -0.53839129146E+02 -0.87051202833E+02  0.11989389717E+03  0.47000000000E+01 0. -1.
        -11    1    6    6    0    0 -0.33753125194E+02  0.70036805907E+02 -0.18035434120E+02  0.79810428678E+02  0.00000000000E+00 0.  1.
         12    1    6    6    0    0 -0.18779093989E+02 -0.22732513619E+02 -0.20821966645E+00  0.29486690250E+02  0.00000000000E+00 0. -1.
         -5    1    3    3    0  503  0.34117582587E+02 -0.55083951747E+01  0.23134208970E+02  0.41852520636E+02  0.47000000000E+01 0.  1.
         11    1    4    4    0    0  0.82634786493E+02 -0.11605383782E+02 -0.18357080125E+03  0.20164679998E+03  0.00000000000E+00 0. -1.
        -12    1    4    4    0    0 -0.19634808891E+01  0.23648615815E+02 -0.14299121911E+02  0.27705183173E+02  0.00000000000E+00 0.  1.
<mgrwt>
<rscale>  2 0.20644447E+03</rscale>
<asrwt>0</asrwt>
<pdfrwt beam="1">  1       21 0.16951150E-01 0.20741098E+03</pdfrwt>
<pdfrwt beam="2">  1       21 0.60032775E-01 0.20741098E+03</pdfrwt>
<totfact> 0.80655462E+04</totfact>
</mgrwt>
</event>
<event>
12    1  0.1029207E-001  0.1981850E+03  0.7546771E-02  0.1151561E+00
         21   -1    0    0  503  502  0.00000000000E+00  0.00000000000E+00  0.24713519842E+02  0.24713519842E+02  0.00000000000E+00 0. -1.
         21   -1    0    0  501  503 -0.00000000000E+00 -0.00000000000E+00 -0.22589272139E+04  0.22589272139E+04  0.00000000000E+00 0. -1.
          6    2    1    2  501    0  0.13853171478E+02 -0.95867672876E+02 -0.17462499368E+04  0.17574601330E+04  0.17290100186E+03 0.  0.
         24    2    3    3    0    0  0.74197169831E+02 -0.68015861520E+02 -0.10493219848E+04  0.10573545826E+04  0.82405752722E+02 0.  0.
         -6    2    1    2    0  502 -0.13853171478E+02  0.95867672876E+02 -0.48796375729E+03  0.52618060071E+03  0.17139100058E+03 0.  0.
        -24    2    5    5    0    0  0.39574821229E+02  0.10829276767E+03 -0.31889383502E+03  0.34837266500E+03  0.79854528392E+02 0.  0.
          5    1    3    3  501    0 -0.60343998352E+02 -0.27851811356E+02 -0.69692795197E+03  0.70010555045E+03  0.47000000000E+01 0. -1.
        -13    1    4    4    0    0 -0.76001122874E+01 -0.41546079765E+02 -0.43505086108E+03  0.43709620243E+03  0.00000000000E+00 0.  1.
         14    1    4    4    0    0  0.81797282118E+02 -0.26469781755E+02 -0.61427112373E+03  0.62025838016E+03  0.00000000000E+00 0. -1.
         -5    1    5    5    0  502 -0.53427992707E+02 -0.12425094795E+02 -0.16906992227E+03  0.17780793571E+03  0.47000000000E+01 0.  1.
         11    1    6    6    0    0 -0.88048042690E+01  0.41296050138E+02 -0.42581347315E+02  0.59967153296E+02  0.00000000000E+00 0. -1.
        -12    1    6    6    0    0  0.48379625498E+02  0.66996717532E+02 -0.27631248770E+03  0.28840551171E+03  0.00000000000E+00 0.  1.
<mgrwt>
<rscale>  2 0.19785514E+03</rscale>
<asrwt>0</asrwt>
<pdfrwt beam="1">  1       21 0.38020808E-02 0.19818496E+03</pdfrwt>
<pdfrwt beam="2">  1       21 0.34752719E+00 0.19818496E+03</pdfrwt>
<totfact> 0.76634383E+03</totfact>
</mgrwt>
</event>
<event>
12    1  0.1029207E-001  0.1741990E+03  0.7546771E-02  0.1173691E+00
         21   -1    0    0  501  502  0.00000000000E+00  0.00000000000E+00  0.14016280780E+03  0.14016280780E+03  0.00000000000E+00 0. -1.
         21   -1    0    0  502  503 -0.00000000000E+00 -0.00000000000E+00 -0.21577067084E+03  0.21577067084E+03  0.00000000000E+00 0. -1.
         -6    2    1    2    0  503  0.19177422384E+02 -0.39191099725E+00 -0.39321075696E+02  0.17799522748E+03  0.17253471212E+03 0.  0.
        -24    2    3    3    0    0  0.45799545338E+02  0.53418653185E+02 -0.48974185548E+02  0.11700681236E+03  0.79630223083E+02 0.  0.
          6    2    1    2  501    0 -0.19177422384E+02  0.39191099725E+00 -0.36286787343E+02  0.17793825117E+03  0.17313972153E+03 0.  0.
         24    2    5    5    0    0 -0.75817958436E+02  0.96630424622E+01 -0.24447347825E+02  0.11914738002E+03  0.88072062190E+02 0.  0.
          5    1    5    5  501    0  0.56640536052E+02 -0.92711314649E+01 -0.11839439518E+02  0.58790871153E+02  0.47000000000E+01 0. -1.
        -13    1    6    6    0    0 -0.80034132930E+02  0.11739407174E+02 -0.48716336261E+02  0.94427525295E+02  0.00000000000E+00 0.  1.
         14    1    6    6    0    0  0.42161744939E+01 -0.20763647116E+01  0.24268988436E+02  0.24719854723E+02  0.00000000000E+00 0. -1.
         -5    1    3    3    0  503 -0.26622122953E+02 -0.53810564182E+02  0.96531098521E+01  0.60988415113E+02  0.47000000000E+01 0.  1.
         13    1    4    4    0    0 -0.20404082330E+02  0.13913076561E+02 -0.27532873873E+02  0.36985935419E+02  0.00000000000E+00 0. -1.
        -14    1    4    4    0    0  0.66203627667E+02  0.39505576624E+02 -0.21441311675E+02  0.80020876945E+02  0.00000000000E+00 0.  1.
<mgrwt>
<rscale>  2 0.17404847E+03</rscale>
<asrwt>0</asrwt>
<pdfrwt beam="1">  1       21 0.21563509E-01 0.17419900E+03</pdfrwt>
<pdfrwt beam="2">  1       21 0.33195488E-01 0.17419900E+03</pdfrwt>
<totfact> 0.17614374E+05</totfact>
</mgrwt>
</event>
<event>
12    1  0.1029207E-001  0.2322967E+03  0.7546771E-02  0.1125046E+00
         21   -1    0    0  503  502  0.00000000000E+00  0.00000000000E+00  0.11532965875E+03  0.11532965875E+03  0.00000000000E+00 0.  1.
         21   -1    0    0  501  503 -0.00000000000E+00 -0.00000000000E+00 -0.48898649188E+03  0.48898649188E+03  0.00000000000E+00 0. -1.
          6    2    1    2  501    0  0.13159807436E+03  0.78561457459E+02 -0.24977276733E+03  0.34105012230E+03  0.17446717413E+03 0.  0.
         24    2    3    3    0    0  0.34767291339E+01  0.59686651903E+02 -0.13136186805E+03  0.16550933372E+03  0.81011203606E+02 0.  0.
         -6    2    1    2    0  502 -0.13159807436E+03 -0.78561457459E+02 -0.12388406580E+03  0.26326602832E+03  0.17456169149E+03 0.  0.
        -24    2    5    5    0    0 -0.10564385685E+03 -0.44628982943E+02 -0.15614120682E+03  0.20952919383E+03  0.79812505233E+02 0.  0.
          5    1    3    3  501    0  0.12812134523E+03  0.18874805556E+02 -0.11841089928E+03  0.17554078858E+03  0.47000000000E+01 0. -1.
        -11    1    4    4    0    0  0.25324549317E+02  0.68462322156E+02 -0.76144117844E+02  0.10548151040E+03  0.00000000000E+00 0.  1.
         12    1    4    4    0    0 -0.21847820183E+02 -0.87756702525E+01 -0.55217750206E+02  0.60027823324E+02  0.00000000000E+00 0. -1.
         -5    1    5    5    0  502 -0.25954217514E+02 -0.33932474516E+02  0.32257141029E+02  0.53736834489E+02  0.47000000000E+01 0.  1.
         13    1    6    6    0    0 -0.80426529617E+01  0.19872452877E+02 -0.35560317617E+02  0.41522702694E+02  0.00000000000E+00 0. -1.
        -14    1    6    6    0    0 -0.97601203885E+02 -0.64501435820E+02 -0.12058088921E+03  0.16800649114E+03  0.00000000000E+00 0.  1.
<mgrwt>
<rscale>  2 0.23227891E+03</rscale>
<asrwt>0</asrwt>
<pdfrwt beam="1">  1       21 0.17743024E-01 0.23229666E+03</pdfrwt>
<pdfrwt beam="2">  1       21 0.75228693E-01 0.23229666E+03</pdfrwt>
<totfact> 0.44665217E+04</totfact>
</mgrwt>
</event>
<event>
12    1  0.1029207E-001  0.2173744E+03  0.7546771E-02  0.1136105E+00
         21   -1    0    0  503  502  0.00000000000E+00  0.00000000000E+00  0.21749412810E+04  0.21749412810E+04  0.00000000000E+00 0. -1.
         21   -1    0    0  501  503 -0.00000000000E+00 -0.00000000000E+00 -0.23544863820E+02  0.23544863820E+02  0.00000000000E+00 0.  1.
          6    2    1    2  501    0 -0.48267188068E+02  0.12241669938E+03  0.75635638258E+03  0.78661209576E+03  0.17137106524E+03 0.  0.
         24    2    3    3    0    0  0.33302626386E+02  0.99270306404E+02  0.46743475513E+03  0.48546896211E+03  0.78874610692E+02 0.  0.
         -6    2    1    2    0  502  0.48267188068E+02 -0.12241669938E+03  0.13950400346E+04  0.14118740491E+04  0.17302041073E+03 0.  0.
        -24    2    5    5    0    0  0.47876921771E+02  0.33632172606E+00  0.70876876816E+03  0.71469487722E+03  0.78379130233E+02 0.  0.
          5    1    3    3  501    0 -0.81569814454E+02  0.23146392979E+02  0.28892162744E+03  0.30114313365E+03  0.47000000000E+01 0. -1.
        -11    1    4    4    0    0 -0.10302316117E+02  0.64617521693E+02  0.15720660886E+03  0.17028059107E+03  0.00000000000E+00 0.  1.
         12    1    4    4    0    0  0.43604942503E+02  0.34652784711E+02  0.31022814628E+03  0.31518837104E+03  0.00000000000E+00 0. -1.
         -5    1    5    5    0  502  0.39026629741E+00 -0.12275302111E+03  0.68627126645E+03  0.69717917184E+03  0.47000000000E+01 0.  1.
         13    1    6    6    0    0  0.58460301729E+01 -0.85359410120E+01  0.55340731772E+03  0.55350401775E+03  0.00000000000E+00 0. -1.
        -14    1    6    6    0    0  0.42030891598E+02  0.88722627380E+01  0.15536145044E+03  0.16119085947E+03  0.00000000000E+00 0.  1.
<mgrwt>
<rscale>  2 0.21704604E+03</rscale>
<asrwt>0</asrwt>
<pdfrwt beam="1">  1       21 0.33460619E+00 0.21737441E+03</pdfrwt>
<pdfrwt beam="2">  1       21 0.36222884E-02 0.21737441E+03</pdfrwt>
<totfact> 0.96904511E+03</totfact>
</mgrwt>
</event>
<event>
12    1  0.1029207E-001  0.2041928E+03  0.7546771E-02  0.1146433E+00
         21   -1    0    0  501  502  0.00000000000E+00  0.00000000000E+00  0.24594945310E+03  0.24594945310E+03  0.00000000000E+00 0. -1.
         21   -1    0    0  502  503 -0.00000000000E+00 -0.00000000000E+00 -0.20032644327E+03  0.20032644327E+03  0.00000000000E+00 0. -1.
         -6    2    1    2    0  503 -0.54321613805E+02 -0.91854685577E+02 -0.65688063846E+02  0.21449851691E+03  0.17408782564E+03 0.  0.
        -24    2    3    3    0    0 -0.23810910087E+02 -0.13117034468E+03 -0.46155535615E+02  0.16083070765E+03  0.77224117282E+02 0.  0.
          6    2    1    2  501    0  0.54321613805E+02  0.91854685577E+02  0.11131107367E+03  0.23177737946E+03  0.17303894798E+03 0.  0.
         24    2    5    5    0    0  0.19908444776E+01  0.24633277831E+02 -0.12030624465E+02  0.81802409626E+02  0.77046326695E+02 0.  0.
          5    1    5    5  501    0  0.52330769327E+02  0.67221407746E+02  0.12334169814E+03  0.14997496983E+03  0.47000000000E+01 0. -1.
        -13    1    6    6    0    0  0.12118500193E+02  0.51010175149E+02 -0.10739593018E+02  0.53518547008E+02  0.00000000000E+00 0.  1.
         14    1    6    6    0    0 -0.10127655715E+02 -0.26376897318E+02 -0.12910314467E+01  0.28283862618E+02  0.00000000000E+00 0. -1.
         -5    1    3    3    0  503 -0.30510703718E+02  0.39315659107E+02 -0.19532528231E+02  0.53667809267E+02  0.47000000000E+01 0.  1.
         11    1    4    4    0    0  0.22818060828E+02 -0.75059439302E+02 -0.38748871080E+02  0.87498904783E+02  0.00000000000E+00 0. -1.
        -12    1    4    4    0    0 -0.46628970915E+02 -0.56110905382E+02 -0.74066645348E+01  0.73331802862E+02  0.00000000000E+00 0.  1.
<mgrwt>
<rscale>  2 0.20396904E+03</rscale>
<asrwt>0</asrwt>
<pdfrwt beam="1">  1       21 0.37838378E-01 0.20419278E+03</pdfrwt>
<pdfrwt beam="2">  1       21 0.30819453E-01 0.20419278E+03</pdfrwt>
<totfact> 0.67748480E+04</totfact>
</mgrwt>
</event>
<event>
12    1  0.1029207E-001  0.1845574E+03  0.7546771E-02  0.1165340E+00
         21   -1    0    0  503  502  0.00000000000E+00  0.00000000000E+00  0.50539512173E+03  0.50539512173E+03  0.00000000000E+00 0.  1.
         21   -1    0    0  501  503 -0.00000000000E+00 -0.00000000000E+00 -0.74866040779E+02  0.74866040779E+02  0.00000000000E+00 0.  1.
          6    2    1    2  501    0  0.18852878452E+02 -0.38469974274E+02  0.10365867110E+03  0.20488707077E+03  0.17145909637E+03 0.  0.
         24    2    3    3    0    0 -0.16307455756E+02 -0.11663210246E+02  0.12573049636E+03  0.15524729670E+03  0.88834688229E+02 0.  0.
         -6    2    1    2    0  502 -0.18852878452E+02  0.38469974274E+02  0.32687040986E+03  0.37537409174E+03  0.17951622201E+03 0.  0.
        -24    2    5    5    0    0  0.22110167613E+02  0.39290654974E+01  0.30654652181E+03  0.31787456177E+03  0.81050415894E+02 0.  0.
          5    1    3    3  501    0  0.35160334208E+02 -0.26806764028E+02 -0.22071825258E+02  0.49639774068E+02  0.47000000000E+01 0. -1.
        -13    1    4    4    0    0 -0.29187896192E+02 -0.46736198825E+01  0.91440342203E+00  0.29573842167E+02  0.00000000000E+00 0.  1.
         14    1    4    4    0    0  0.12880440435E+02 -0.69895903636E+01  0.12481609293E+03  0.12567345453E+03  0.00000000000E+00 0. -1.
         -5    1    5    5    0  502 -0.40963046065E+02  0.34540908776E+02  0.20323888043E+02  0.57499529974E+02  0.47000000000E+01 0.  1.
         11    1    6    6    0    0 -0.29607341518E+02 -0.40428203463E+01  0.80968248133E+02  0.86306409228E+02  0.00000000000E+00 0. -1.
        -12    1    6    6    0    0  0.51717509131E+02  0.79718858436E+01  0.22557827368E+03  0.23156815254E+03  0.00000000000E+00 0.  1.
<mgrwt>
<rscale>  2 0.18256873E+03</rscale>
<asrwt>0</asrwt>
<pdfrwt beam="1">  1       21 0.77753093E-01 0.18455743E+03</pdfrwt>
<pdfrwt beam="2">  1       21 0.11517853E-01 0.18455743E+03</pdfrwt>
<totfact> 0.92902846E+04</totfact>
</mgrwt>
</event>
<event>
12    1  0.1029207E-001  0.2202885E+03  0.7546771E-02  0.1134070E+00
         21   -1    0    0  503  502  0.00000000000E+00  0.00000000000E+00  0.26773657295E+03  0.26773657295E+03  0.00000000000E+00 0.  1.
         21   -1    0    0  501  503 -0.00000000000E+00 -0.00000000000E+00 -0.76704879418E+03  0.76704879418E+03  0.00000000000E+00 0. -1.
          6    2    1    2  501    0  0.97296463716E+02 -0.93243230192E+02 -0.70277081750E+03  0.73648749145E+03  0.17425871945E+03 0.  0.
         24    2    3    3    0    0  0.30179382989E+02 -0.11742307453E+03 -0.40925422103E+03  0.43438908067E+03  0.80659050188E+02 0.  0.
         -6    2    1    2    0  502 -0.97296463716E+02  0.93243230192E+02  0.20345859627E+03  0.29829787569E+03  0.17153810193E+03 0.  0.
        -24    2    5    5    0    0 -0.25720799441E+02 -0.77072207251E+01  0.12727283248E+03  0.15290038650E+03  0.80369108060E+02 0.  0.
          5    1    3    3  501    0  0.67117080728E+02  0.24179844342E+02 -0.29351659646E+03  0.30209841078E+03  0.47000000000E+01 0. -1.
        -13    1    4    4    0    0 -0.10111731653E+02 -0.16988558115E+02 -0.17769558222E+03  0.17879199693E+03  0.00000000000E+00 0.  1.
         14    1    4    4    0    0  0.40291114642E+02 -0.10043451642E+03 -0.23155863881E+03  0.25559708374E+03  0.00000000000E+00 0. -1.
         -5    1    5    5    0  502 -0.71575664275E+02  0.10095045092E+03  0.76185763792E+02  0.14539748919E+03  0.47000000000E+01 0.  1.
         13    1    6    6    0    0 -0.48794051327E+02 -0.13946540829E+02  0.47087985547E+02  0.69228923354E+02  0.00000000000E+00 0. -1.
        -14    1    6    6    0    0  0.23073251886E+02  0.62393201038E+01  0.80184846931E+02  0.83671463148E+02  0.00000000000E+00 0.  1.
<mgrwt>
<rscale>  2 0.21975004E+03</rscale>
<asrwt>0</asrwt>
<pdfrwt beam="1">  1       21 0.41190242E-01 0.22028845E+03</pdfrwt>
<pdfrwt beam="2">  1       21 0.11800751E+00 0.22028845E+03</pdfrwt>
<totfact> 0.30531124E+03</totfact>
</mgrwt>
</event>
<event>
12    1  0.1029207E-001  0.2929213E+03  0.7546771E-02  0.1089217E+00
         21   -1    0    0  501  502  0.00000000000E+00  0.00000000000E+00  0.79205752837E+03  0.79205752837E+03  0.00000000000E+00 0. -1.
         21   -1    0    0  502  503 -0.00000000000E+00 -0.00000000000E+00 -0.11065925041E+03  0.11065925041E+03  0.00000000000E+00 0. -1.
         -6    2    1    2    0  503  0.20480510944E+03  0.11089899346E+03  0.26301353644E+03  0.39367372956E+03  0.17764899490E+03 0.  0.
        -24    2    3    3    0    0  0.21866249223E+03  0.12323817471E+03  0.20925222889E+03  0.33660665813E+03  0.80725546081E+02 0.  0.
          6    2    1    2  501    0 -0.20480510944E+03 -0.11089899346E+03  0.41838474152E+03  0.50904304922E+03  0.17272902021E+03 0.  0.
         24    2    5    5    0    0 -0.52299627620E+02  0.39780189858E+01  0.12710107396E+03  0.16072865825E+03  0.83234265159E+02 0.  0.
          5    1    5    5  501    0 -0.15250548182E+03 -0.11487701244E+03  0.29128366756E+03  0.34831439097E+03  0.47000000000E+01 0. -1.
        -11    1    6    6    0    0  0.61189796979E+01 -0.29806409541E+02  0.46994460344E+02  0.55985205772E+02  0.00000000000E+00 0.  1.
         12    1    6    6    0    0 -0.58418607318E+02  0.33784428527E+02  0.80106613620E+02  0.10474345248E+03  0.00000000000E+00 0. -1.
         -5    1    3    3    0  503 -0.13857382789E+02 -0.12339181251E+02  0.53761307547E+02  0.57067071423E+02  0.47000000000E+01 0.  1.
         11    1    4    4    0    0  0.31630164347E+02  0.35414457516E+02  0.79557293906E+02  0.92649954730E+02  0.00000000000E+00 0. -1.
        -12    1    4    4    0    0  0.18703232788E+03  0.87823717193E+02  0.12969493499E+03  0.24395670340E+03  0.00000000000E+00 0.  1.
<mgrwt>
<rscale>  2 0.29217912E+03</rscale>
<asrwt>0</asrwt>
<pdfrwt beam="1">  1       21 0.12185500E+00 0.29292129E+03</pdfrwt>
<pdfrwt beam="2">  1       21 0.17024501E-01 0.29292129E+03</pdfrwt>
<totfact> 0.14952893E+04</totfact>
</mgrwt>
</event>
<event>
12    1  0.1029207E-001  0.6776831E+03  0.7546771E-02  0.9756865E-01
         21   -1    0    0  501  502  0.00000000000E+00  0.00000000000E+00  0.16368497753E+04  0.16368497753E+04  0.00000000000E+00 0. -1.
         21   -1    0    0  502  503 -0.00000000000E+00 -0.00000000000E+00 -0.28579763558E+03  0.28579763558E+03  0.00000000000E+00 0.  1.
         -6    2    1    2    0  503  0.64295851922E+03 -0.11605194867E+03  0.53857703022E+03  0.86563247651E+03  0.17997403892E+03 0.  0.
        -24    2    3    3    0    0  0.26131178025E+03 -0.18944316114E+02  0.28752609206E+03  0.39858559534E+03  0.86928071308E+02 0.  0.
          6    2    1    2  501    0 -0.64295851922E+03  0.11605194867E+03  0.81247510948E+03  0.10570149343E+04  0.17407198412E+03 0.  0.
         24    2    5    5    0    0 -0.46354161186E+03  0.27232258034E+02  0.63976044245E+03  0.79256870105E+03  0.57090282524E+02 0.  0.
          5    1    5    5  501    0 -0.17941690736E+03  0.88819690634E+02  0.17271466703E+03  0.26444623328E+03  0.47000000000E+01 0. -1.
        -13    1    6    6    0    0 -0.29777397267E+03 -0.67241969264E+01  0.38573215443E+03  0.48734366579E+03  0.00000000000E+00 0.  1.
         14    1    6    6    0    0 -0.16576763919E+03  0.33956454960E+02  0.25402828802E+03  0.30522503527E+03  0.00000000000E+00 0. -1.
         -5    1    3    3    0  503  0.38164673897E+03 -0.97107632554E+02  0.25105093815E+03  0.46704688118E+03  0.47000000000E+01 0.  1.
         11    1    4    4    0    0  0.20913411627E+03  0.21182695847E+02  0.22071035691E+03  0.30479312137E+03  0.00000000000E+00 0. -1.
        -12    1    4    4    0    0  0.52177663985E+02 -0.40127011961E+02  0.66815735153E+02  0.93792473962E+02  0.00000000000E+00 0.  1.
<mgrwt>
<rscale>  2 0.67729689E+03</rscale>
<asrwt>0</asrwt>
<pdfrwt beam="1">  1       21 0.25182304E+00 0.67768309E+03</pdfrwt>
<pdfrwt beam="2">  1       21 0.43968868E-01 0.67768309E+03</pdfrwt>
<totfact> 0.23287505E+02</totfact>
</mgrwt>
</event>
<event>
12    1  0.1029207E-001  0.2255257E+03  0.7546771E-02  0.1129954E+00
         21   -1    0    0  501  502  0.00000000000E+00  0.00000000000E+00  0.50065964617E+02  0.50065964617E+02  0.00000000000E+00 0. -1.
         21   -1    0    0  502  503 -0.00000000000E+00 -0.00000000000E+00 -0.24196846533E+04  0.24196846533E+04  0.00000000000E+00 0.  1.
         -6    2    1    2    0  503  0.27497110459E+02  0.14023896289E+03 -0.21256672767E+04  0.21375245766E+04  0.17357098442E+03 0.  0.
        -24    2    3    3    0    0 -0.13427652220E+02  0.48024887615E+02 -0.49450328303E+03  0.50323686140E+03  0.78912293525E+02 0.  0.
          6    2    1    2  501    0 -0.27497110459E+02 -0.14023896289E+03 -0.24395141202E+03  0.33222604134E+03  0.17446716974E+03 0.  0.
         24    2    5    5    0    0  0.17827564403E+02 -0.14691553541E+03 -0.22805571548E+03  0.28350575870E+03  0.80399684418E+02 0.  0.
          5    1    5    5  501    0 -0.45324674861E+02  0.66765725166E+01 -0.15895696544E+02  0.48720282639E+02  0.47000000000E+01 0. -1.
        -11    1    6    6    0    0  0.23432813545E+02 -0.77646420047E+01 -0.14729720353E+02  0.28746322856E+02  0.00000000000E+00 0.  1.
         12    1    6    6    0    0 -0.56052491424E+01 -0.13915089340E+03 -0.21332599513E+03  0.25475943584E+03  0.00000000000E+00 0. -1.
         -5    1    3    3    0  503  0.40924762678E+02  0.92214075276E+02 -0.16311639937E+04  0.16342877152E+04  0.47000000000E+01 0.  1.
         11    1    4    4    0    0  0.13422812490E+02  0.11692566801E+02 -0.20771777381E+02  0.27356073350E+02  0.00000000000E+00 0. -1.
        -12    1    4    4    0    0 -0.26850464710E+02  0.36332320815E+02 -0.47373150565E+03  0.47588078805E+03  0.00000000000E+00 0.  1.
<mgrwt>
<rscale>  2 0.22535238E+03</rscale>
<asrwt>0</asrwt>
<pdfrwt beam="1">  1       21 0.77024559E-02 0.22552572E+03</pdfrwt>
<pdfrwt beam="2">  1       21 0.37225919E+00 0.22552572E+03</pdfrwt>
<totfact> 0.15795766E+03</totfact>
</mgrwt>
</event>
<event>
12    1  0.1029207E-001  0.1759016E+03  0.7546771E-02  0.1171925E+00
         21   -1    0    0  503  502  0.00000000000E+00  0.00000000000E+00  0.27829123129E+03  0.27829123129E+03  0.00000000000E+00 0.  1.
         21   -1    0    0  501  503 -0.00000000000E+00 -0.00000000000E+00 -0.34528002064E+03  0.34528002064E+03  0.00000000000E+00 0.  1.
          6    2    1    2  501    0 -0.30502721983E+02  0.31253958875E+01 -0.29036347430E+03  0.33948833068E+03  0.17320853130E+03 0.  0.
         24    2    3    3    0    0 -0.27965390682E+02 -0.57463871264E+02 -0.23985135945E+03  0.26042467854E+03  0.78791998223E+02 0.  0.
         -6    2    1    2    0  502  0.30502721983E+02 -0.31253958875E+01  0.22337468494E+03  0.28408292125E+03  0.17281976775E+03 0.  0.
        -24    2    5    5    0    0  0.61794329872E+02  0.32313964020E+02  0.80850581723E+02  0.13384869428E+03  0.80721279233E+02 0.  0.
          5    1    3    3  501    0 -0.25373313016E+01  0.60589267152E+02 -0.50512114844E+02  0.79063652143E+02  0.47000000000E+01 0. -1.
        -13    1    4    4    0    0  0.26208357374E+02 -0.23393387261E+02 -0.60017325153E+02  0.69542849253E+02  0.00000000000E+00 0.  1.
         14    1    4    4    0    0 -0.54173748056E+02 -0.34070484003E+02 -0.17983403430E+03  0.19088182928E+03  0.00000000000E+00 0. -1.
         -5    1    5    5    0  502 -0.31291607889E+02 -0.35439359907E+02  0.14252410322E+03  0.15023422697E+03  0.47000000000E+01 0.  1.
         13    1    6    6    0    0 -0.14088989549E+02  0.19778536877E+02  0.30936611967E+01  0.24479805700E+02  0.00000000000E+00 0. -1.
        -14    1    6    6    0    0  0.75883319421E+02  0.12535427143E+02  0.77756920526E+02  0.10936888858E+03  0.00000000000E+00 0.  1.
<mgrwt>
<rscale>  2 0.17580584E+03</rscale>
<asrwt>0</asrwt>
<pdfrwt beam="1">  1       21 0.42814036E-01 0.17590162E+03</pdfrwt>
<pdfrwt beam="2">  1       21 0.53120003E-01 0.17590162E+03</pdfrwt>
<totfact> 0.17795914E+04</totfact>
</mgrwt>
</event>
<event>
12    1  0.1029207E-001  0.2644535E+03  0.7546771E-02  0.1104692E+00
         21   -1    0    0  503  502  0.00000000000E+00  0.00000000000E+00  0.85525249006E+03  0.85525249006E+03  0.00000000000E+00 0. -1.
         21   -1    0    0  501  503 -0.00000000000E+00 -0.00000000000E+00 -0.18957016365E+03  0.18957016365E+03  0.00000000000E+00 0. -1.
          6    2    1    2  501    0 -0.18743775186E+03  0.65166021812E+02 -0.61488860207E+02  0.27150786079E+03  0.17480308155E+03 0.  0.
         24    2    3    3    0    0 -0.21177642716E+03  0.41472528350E+02 -0.57955233790E+02  0.23703570879E+03  0.79106841712E+02 0.  0.
         -6    2    1    2    0  502  0.18743775186E+03 -0.65166021812E+02  0.72717118661E+03  0.77331479292E+03  0.17279558182E+03 0.  0.
        -24    2    5    5    0    0  0.10429184493E+03 -0.10179508279E+03  0.53881737685E+03  0.56413980016E+03  0.81795603354E+02 0.  0.
          5    1    3    3  501    0  0.24338675307E+02  0.23693493461E+02 -0.35336264166E+01  0.34472152004E+02  0.47000000000E+01 0. -1.
        -11    1    4    4    0    0 -0.56835291453E+02  0.34074574401E+02  0.11189192002E+02  0.67205096480E+02  0.00000000000E+00 0.  1.
         12    1    4    4    0    0 -0.15494113571E+03  0.73979539495E+01 -0.69144425793E+02  0.16983061231E+03  0.00000000000E+00 0. -1.
         -5    1    5    5    0  502  0.83145906926E+02  0.36629060976E+02  0.18835380975E+03  0.20917499276E+03  0.47000000000E+01 0.  1.
         13    1    6    6    0    0  0.80017440221E+02 -0.34326767546E+02  0.20527470378E+03  0.22297717758E+03  0.00000000000E+00 0. -1.
        -14    1    6    6    0    0  0.24274404710E+02 -0.67468315242E+02  0.33354267307E+03  0.34116262258E+03  0.00000000000E+00 0.  1.
<mgrwt>
<rscale>  2 0.26412219E+03</rscale>
<asrwt>0</asrwt>
<pdfrwt beam="1">  1       21 0.13157730E+00 0.26445347E+03</pdfrwt>
<pdfrwt beam="2">  1       21 0.29164641E-01 0.26445347E+03</pdfrwt>
<totfact> 0.44805705E+03</totfact>
</mgrwt>
</event>
<event>
12    1  0.1029207E-001  0.1811848E+03  0.7546771E-02  0.1166702E+00
         21   -1    0    0  501  502  0.00000000000E+00  0.00000000000E+00  0.29125649482E+03  0.29125649482E+03  0.00000000000E+00 0.  1.
         21   -1    0    0  502  503 -0.00000000000E+00 -0.00000000000E+00 -0.15614221301E+03  0.15614221301E+03  0.00000000000E+00 0.  1.
         -6    2    1    2    0  503 -0.51960220777E+02 -0.11460305205E+02 -0.50540888128E+02  0.18810188420E+03  0.17319565331E+03 0.  0.
        -24    2    3    3    0    0 -0.39936969212E+02  0.22014422870E+02  0.30831049245E+02  0.99171584581E+02  0.82491534515E+02 0.  0.
          6    2    1    2  501    0  0.51960220777E+02  0.11460305205E+02  0.18565516994E+03  0.25929682363E+03  0.17301964479E+03 0.  0.
         24    2    5    5    0    0  0.54543388857E+02 -0.55577352283E+02  0.13076753354E+03  0.17248977952E+03  0.81171133140E+02 0.  0.
          5    1    5    5  501    0 -0.25831680803E+01  0.67037657488E+02  0.54887636399E+02  0.86807044117E+02  0.47000000000E+01 0. -1.
        -11    1    6    6    0    0  0.30625742710E+01  0.17988097705E+02  0.43970832368E+02  0.47606565927E+02  0.00000000000E+00 0.  1.
         12    1    6    6    0    0  0.51480814586E+02 -0.73565449988E+02  0.86796701170E+02  0.12488321359E+03  0.00000000000E+00 0. -1.
         -5    1    3    3    0  503 -0.12023251565E+02 -0.33474728075E+02 -0.81371937373E+02  0.88930299616E+02  0.47000000000E+01 0.  1.
         13    1    4    4    0    0 -0.57876134216E+02  0.75796012993E+01  0.43587098268E+02  0.72848695274E+02  0.00000000000E+00 0. -1.
        -14    1    4    4    0    0  0.17939165004E+02  0.14434821571E+02 -0.12756049023E+02  0.26322889308E+02  0.00000000000E+00 0.  1.
<mgrwt>
<rscale>  2 0.18114274E+03</rscale>
<asrwt>0</asrwt>
<pdfrwt beam="1">  1       21 0.44808691E-01 0.18118482E+03</pdfrwt>
<pdfrwt beam="2">  1       21 0.24021879E-01 0.18118482E+03</pdfrwt>
<totfact> 0.78493276E+04</totfact>
</mgrwt>
</event>
<event>
12    1  0.1029207E-001  0.2672525E+03  0.7546771E-02  0.1102922E+00
         21   -1    0    0  503  502  0.00000000000E+00  0.00000000000E+00  0.11994217089E+03  0.11994217089E+03  0.00000000000E+00 0.  1.
         21   -1    0    0  501  503 -0.00000000000E+00 -0.00000000000E+00 -0.61985118702E+03  0.61985118702E+03  0.00000000000E+00 0.  1.
          6    2    1    2  501    0  0.53278439893E+02 -0.19555141124E+03 -0.32446409185E+03  0.42009847283E+03  0.17357083100E+03 0.  0.
         24    2    3    3    0    0  0.84376120232E+02 -0.17389574582E+03 -0.31947625421E+03  0.38158870664E+03  0.78649882095E+02 0.  0.
         -6    2    1    2    0  502 -0.53278439893E+02  0.19555141124E+03 -0.17544492428E+03  0.31969488508E+03  0.17419802379E+03 0.  0.
        -24    2    5    5    0    0 -0.48591681119E+02  0.55692087082E+02 -0.13609771585E+03  0.17425455685E+03  0.79870534532E+02 0.  0.
          5    1    3    3  501    0 -0.31097680338E+02 -0.21655665419E+02 -0.49878376444E+01  0.38509766184E+02  0.47000000000E+01 0. -1.
        -13    1    4    4    0    0  0.32351978036E+02 -0.14618835792E+03 -0.22789933250E+03  0.27268258512E+03  0.00000000000E+00 0.  1.
         14    1    4    4    0    0  0.52024142196E+02 -0.27707387907E+02 -0.91576921707E+02  0.10890612152E+03  0.00000000000E+00 0. -1.
         -5    1    5    5    0  502 -0.46867587748E+01  0.13985932416E+03 -0.39347208427E+02  0.14544032822E+03  0.47000000000E+01 0.  1.
         13    1    6    6    0    0 -0.77017348201E+01  0.32335583573E+01 -0.96472313920E+02  0.96833258605E+02  0.00000000000E+00 0. -1.
        -14    1    6    6    0    0 -0.40889946298E+02  0.52458528725E+02 -0.39625401934E+02  0.77421298250E+02  0.00000000000E+00 0.  1.
<mgrwt>
<rscale>  2 0.26715034E+03</rscale>
<asrwt>0</asrwt>
<pdfrwt beam="1">  1       21 0.18452642E-01 0.26725250E+03</pdfrwt>
<pdfrwt beam="2">  1       21 0.95361721E-01 0.26725250E+03</pdfrwt>
<totfact> 0.23675877E+04</totfact>
</mgrwt>
</event>
<event>
12    1  0.1029207E-001  0.1892197E+03  0.7546771E-02  0.1159362E+00
         21   -1    0    0  503  502  0.00000000000E+00  0.00000000000E+00  0.85875868808E+02  0.85875868808E+02  0.00000000000E+00 0. -1.
         21   -1    0    0  501  503 -0.00000000000E+00 -0.00000000000E+00 -0.52591595297E+03  0.52591595297E+03  0.00000000000E+00 0. -1.
          6    2    1    2  501    0 -0.67596853919E+02 -0.29977178207E+02 -0.36007831187E+03  0.40637034156E+03  0.17324115546E+03 0.  0.
         24    2    3    3    0    0 -0.19305809311E+02 -0.39487742933E+02 -0.80975384714E+02  0.12292191631E+03  0.81368227605E+02 0.  0.
         -6    2    1    2    0  502  0.67596853919E+02  0.29977178207E+02 -0.79961772287E+02  0.20542148022E+03  0.17417271208E+03 0.  0.
        -24    2    5    5    0    0  0.11800092975E+02  0.32744330329E+02  0.20441670370E+02  0.90426363101E+02  0.80917438746E+02 0.  0.
          5    1    3    3  501    0 -0.48291044607E+02  0.95105647264E+01 -0.27910292716E+03  0.28344842526E+03  0.47000000000E+01 0. -1.
        -13    1    4    4    0    0  0.69334787321E+01 -0.43445259779E+02 -0.72783523288E+01  0.44593027899E+02  0.00000000000E+00 0.  1.
         14    1    4    4    0    0 -0.26239288043E+02  0.39575168461E+01 -0.73697032385E+02  0.78328888406E+02  0.00000000000E+00 0. -1.
         -5    1    5    5    0  502  0.55796760944E+02 -0.27671521227E+01 -0.10040344266E+03  0.11499511711E+03  0.47000000000E+01 0.  1.
         13    1    6    6    0    0 -0.30170592810E+02 -0.46861417389E+01 -0.16560776464E+00  0.30532802374E+02  0.00000000000E+00 0. -1.
        -14    1    6    6    0    0  0.41970685784E+02  0.37430472068E+02  0.20607278135E+02  0.59893560727E+02  0.00000000000E+00 0.  1.
<mgrwt>
<rscale>  2 0.18900507E+03</rscale>
<asrwt>0</asrwt>
<pdfrwt beam="1">  1       21 0.13211672E-01 0.18921971E+03</pdfrwt>
<pdfrwt beam="2">  1       21 0.80910148E-01 0.18921971E+03</pdfrwt>
<totfact> 0.66291742E+04</totfact>
</mgrwt>
</event>
<event>
12    1  0.1029207E-001  0.2088289E+03  0.7546771E-02  0.1142527E+00
         21   -1    0    0  503  502  0.00000000000E+00  0.00000000000E+00  0.16506988169E+03  0.16506988169E+03  0.00000000000E+00 0. -1.
         21   -1    0    0  501  503 -0.00000000000E+00 -0.00000000000E+00 -0.40442819160E+03  0.40442819160E+03  0.00000000000E+00 0.  1.
          6    2    1    2  501    0 -0.11793147542E+03  0.59346937216E+00  0.48140557056E+02  0.21416006206E+03  0.17215932693E+03 0.  0.
         24    2    3    3    0    0 -0.76591907887E+02  0.11034877459E+01  0.98552605320E+02  0.14879428682E+03  0.80991269513E+02 0.  0.
         -6    2    1    2    0  502  0.11793147542E+03 -0.59346937216E+00 -0.28749886696E+03  0.35533801123E+03  0.17234070506E+03 0.  0.
        -24    2    5    5    0    0  0.80284778703E+02  0.10948762066E+01 -0.68444205687E+02  0.13301581506E+03  0.81004649982E+02 0.  0.
          5    1    3    3  501    0 -0.41339567528E+02 -0.51001837376E+00 -0.50412048264E+02  0.65365775237E+02  0.47000000000E+01 0. -1.
        -11    1    4    4    0    0 -0.29598401064E+02  0.26978866263E+02  0.42152173465E+01  0.40270244942E+02  0.00000000000E+00 0.  1.
         12    1    4    4    0    0 -0.46993506824E+02 -0.25875378517E+02  0.94337387974E+02  0.10852404188E+03  0.00000000000E+00 0. -1.
         -5    1    5    5    0  502  0.37646696713E+02 -0.16883455788E+01 -0.21905466127E+03  0.22232219617E+03  0.47000000000E+01 0.  1.
         11    1    6    6    0    0  0.45345292018E+02 -0.37786697026E+02 -0.21692827089E+02  0.62885679828E+02  0.00000000000E+00 0. -1.
        -12    1    6    6    0    0  0.34939486685E+02  0.38881573233E+02 -0.46751378598E+02  0.70130135232E+02  0.00000000000E+00 0.  1.
<mgrwt>
<rscale>  2 0.20879146E+03</rscale>
<asrwt>0</asrwt>
<pdfrwt beam="1">  1       21 0.25395366E-01 0.20882889E+03</pdfrwt>
<pdfrwt beam="2">  1       21 0.62219722E-01 0.20882889E+03</pdfrwt>
<totfact> 0.34921466E+04</totfact>
</mgrwt>
</event>
<event>
12    1  0.1029207E-001  0.2145710E+03  0.7546771E-02  0.1138702E+00
         21   -1    0    0  501  502  0.00000000000E+00  0.00000000000E+00  0.42286437323E+03  0.42286437323E+03  0.00000000000E+00 0. -1.
         21   -1    0    0  502  503 -0.00000000000E+00 -0.00000000000E+00 -0.10805416087E+03  0.10805416087E+03  0.00000000000E+00 0.  1.
         -6    2    1    2    0  503  0.93086355665E+02 -0.85457095728E+02  0.13040555596E+03  0.24799489867E+03  0.16890197133E+03 0.  0.
        -24    2    3    3    0    0  0.82021403896E+02 -0.90463201324E+02  0.15934428580E+03  0.21626109436E+03  0.80418642281E+02 0.  0.
          6    2    1    2  501    0 -0.93086355665E+02  0.85457095728E+02  0.18440465640E+03  0.28292363543E+03  0.17341488218E+03 0.  0.
         24    2    5    5    0    0 -0.59825023668E+02  0.48235828025E+02  0.20131229740E+03  0.23001146953E+03  0.80454375086E+02 0.  0.
          5    1    5    5  501    0 -0.33261331997E+02  0.37221267703E+02 -0.16907640998E+02  0.52912165896E+02  0.47000000000E+01 0. -1.
        -13    1    6    6    0    0 -0.26948569398E+01  0.51717390874E+02  0.72914545429E+02  0.89434231187E+02  0.00000000000E+00 0.  1.
         14    1    6    6    0    0 -0.57130166728E+02 -0.34815628485E+01  0.12839775197E+03  0.14057723835E+03  0.00000000000E+00 0. -1.
         -5    1    3    3    0  503  0.11064951770E+02  0.50061055956E+01 -0.28938729841E+02  0.31733804306E+02  0.47000000000E+01 0.  1.
         11    1    4    4    0    0  0.61707397548E+02 -0.97852482823E+02  0.15626525713E+03  0.19442670056E+03  0.00000000000E+00 0. -1.
        -12    1    4    4    0    0  0.20314006348E+02  0.73892814988E+01  0.30790286730E+01  0.21834393798E+02  0.00000000000E+00 0.  1.
<mgrwt>
<rscale>  2 0.21365752E+03</rscale>
<asrwt>0</asrwt>
<pdfrwt beam="1">  1       21 0.65056057E-01 0.21457098E+03</pdfrwt>
<pdfrwt beam="2">  1       21 0.16623717E-01 0.21457098E+03</pdfrwt>
<totfact> 0.70030115E+04</totfact>
</mgrwt>
</event>
<event>
12    1  0.1029207E-001  0.3003393E+03  0.7546771E-02  0.1085277E+00
         21   -1    0    0  503  502  0.00000000000E+00  0.00000000000E+00  0.11794978656E+03  0.11794978656E+03  0.00000000000E+00 0.  1.
         21   -1    0    0  501  503 -0.00000000000E+00 -0.00000000000E+00 -0.88565000063E+03  0.88565000063E+03  0.00000000000E+00 0.  1.
          6    2    1    2  501    0 -0.22092439346E+03 -0.10324641641E+03 -0.57151778931E+03  0.64486416533E+03  0.17248129782E+03 0.  0.
         24    2    3    3    0    0 -0.23950015988E+03 -0.73590339476E+02 -0.50715986431E+03  0.57145725484E+03  0.81095015232E+02 0.  0.
         -6    2    1    2    0  502  0.22092439346E+03  0.10324641641E+03 -0.19618242476E+03  0.35873562186E+03  0.17531769016E+03 0.  0.
        -24    2    5    5    0    0  0.18582454007E+03  0.11999129866E+03 -0.21149989168E+03  0.31667488504E+03  0.81376330614E+02 0.  0.
          5    1    3    3  501    0  0.18575766418E+02 -0.29656076931E+02 -0.64357925005E+02  0.73406910492E+02  0.47000000000E+01 0. -1.
        -13    1    4    4    0    0 -0.15458608508E+03 -0.63852852764E+01 -0.28395307721E+03  0.32336817967E+03  0.00000000000E+00 0.  1.
         14    1    4    4    0    0 -0.84914074796E+02 -0.67205054200E+02 -0.22320678710E+03  0.24808907517E+03  0.00000000000E+00 0. -1.
         -5    1    5    5    0  502  0.35099853387E+02 -0.16744882252E+02  0.15317466923E+02  0.42060736826E+02  0.47000000000E+01 0.  1.
         11    1    6    6    0    0  0.17403082789E+03  0.84646293640E+02 -0.15034106888E+03  0.24505950517E+03  0.00000000000E+00 0. -1.
        -12    1    6    6    0    0  0.11793712186E+02  0.35345005019E+02 -0.61158822804E+02  0.71615379869E+02  0.00000000000E+00 0.  1.
<mgrwt>
<rscale>  2 0.29992676E+03</rscale>
<asrwt>0</asrwt>
<pdfrwt beam="1">  1       21 0.18146121E-01 0.30033931E+03</pdfrwt>
<pdfrwt beam="2">  1       21 0.13625385E+00 0.30033931E+03</pdfrwt>
<totfact> 0.99452024E+03</totfact>
</mgrwt>
</event>
<event>
12    1  0.1029207E-001  0.2431679E+03  0.7546771E-02  0.1118185E+00
         21   -1    0    0  503  502  0.00000000000E+00  0.00000000000E+00  0.43803609982E+03  0.43803609982E+03  0.00000000000E+00 0. -1.
         21   -1    0    0  501  503 -0.00000000000E+00 -0.00000000000E+00 -0.13698735995E+03  0.13698735995E+03  0.00000000000E+00 0. -1.
          6    2    1    2  501    0  0.64298867474E+00 -0.17090787371E+03  0.19640084371E+03  0.31029375655E+03  0.16881649568E+03 0.  0.
         24    2    3    3    0    0 -0.17778781688E+02 -0.13746720060E+03  0.65924532843E+02  0.17426509068E+03  0.82516431574E+02 0.  0.
         -6    2    1    2    0  502 -0.64298867474E+00  0.17090787371E+03  0.10464789616E+03  0.26472970322E+03  0.17297606444E+03 0.  0.
        -24    2    5    5    0    0 -0.37087720644E+02  0.15524546755E+03  0.12041589864E+03  0.22178497878E+03  0.95978820320E+02 0.  0.
          5    1    3    3  501    0  0.18421770363E+02 -0.33440673109E+02  0.13047631087E+03  0.13602866587E+03  0.47000000000E+01 0. -1.
        -11    1    4    4    0    0 -0.88096757838E+01  0.88533962919E+01  0.13961386812E+02  0.18732680935E+02  0.00000000000E+00 0.  1.
         12    1    4    4    0    0 -0.89691059046E+01 -0.14632059689E+03  0.51963146031E+02  0.15553240974E+03  0.00000000000E+00 0. -1.
         -5    1    5    5    0  502  0.36444731969E+02  0.15662406157E+02 -0.15768002484E+02  0.42944724441E+02  0.47000000000E+01 0.  1.
         11    1    6    6    0    0 -0.99561008657E+01  0.74942431856E+02  0.13290596862E+01  0.75612554755E+02  0.00000000000E+00 0. -1.
        -12    1    6    6    0    0 -0.27131619779E+02  0.80303035692E+02  0.11908683895E+03  0.14617242402E+03  0.00000000000E+00 0.  1.
<mgrwt>
<rscale>  2 0.24242928E+03</rscale>
<asrwt>0</asrwt>
<pdfrwt beam="1">  1       21 0.67390169E-01 0.24316791E+03</pdfrwt>
<pdfrwt beam="2">  1       21 0.21074979E-01 0.24316791E+03</pdfrwt>
<totfact> 0.41148810E+04</totfact>
</mgrwt>
</event>
<event>
12    1  0.1029207E-001  0.1941346E+03  0.7546771E-02  0.1154804E+00
         21   -1    0    0  501  502  0.00000000000E+00  0.00000000000E+00  0.65895654003E+03  0.65895654003E+03  0.00000000000E+00 0. -1.
         21   -1    0    0  502  503 -0.00000000000E+00 -0.00000000000E+00 -0.24342274520E+03  0.24342274520E+03  0.00000000000E+00 0.  1.
         -6    2    1    2    0  503  0.73196827179E+02  0.48311336414E+02 -0.18691313104E+03  0.26942545549E+03  0.17309476241E+03 0.  0.
        -24    2    3    3    0    0  0.75452499804E+02  0.34766011607E+02 -0.41260589003E+02  0.12305156135E+03  0.80854778809E+02 0.  0.
          6    2    1    2  501    0 -0.73196827179E+02 -0.48311336414E+02  0.60244692587E+03  0.63295382973E+03  0.17319495187E+03 0.  0.
         24    2    5    5    0    0 -0.10807869532E+03 -0.23914336364E+02  0.33493624752E+03  0.36203684731E+03  0.81458511159E+02 0.  0.
          5    1    5    5  501    0  0.34881868143E+02 -0.24397000050E+02  0.26751067835E+03  0.27091698242E+03  0.47000000000E+01 0. -1.
        -11    1    6    6    0    0 -0.89332363374E+02  0.11654824925E+02  0.17143883947E+03  0.19366822602E+03  0.00000000000E+00 0.  1.
         12    1    6    6    0    0 -0.18746331948E+02 -0.35569161289E+02  0.16349740805E+03  0.16836862129E+03  0.00000000000E+00 0. -1.
         -5    1    3    3    0  503 -0.22556726252E+01  0.13545324806E+02 -0.14565254204E+03  0.14637389414E+03  0.47000000000E+01 0.  1.
         11    1    4    4    0    0  0.48546727112E+02 -0.19124327954E+02 -0.34242359074E+02  0.62410446144E+02  0.00000000000E+00 0. -1.
        -12    1    4    4    0    0  0.26905772693E+02  0.53890339561E+02 -0.70182299284E+01  0.60641115207E+02  0.00000000000E+00 0.  1.
<mgrwt>
<rscale>  2 0.19411228E+03</rscale>
<asrwt>0</asrwt>
<pdfrwt beam="1">  1       21 0.10137793E+00 0.19413462E+03</pdfrwt>
<pdfrwt beam="2">  1       21 0.37449653E-01 0.19413462E+03</pdfrwt>
<totfact> 0.54584528E+03</totfact>
</mgrwt>
</event>
<event>
12    1  0.1029207E-001  0.2713707E+03  0.7546771E-02  0.1100625E+00
         21   -1    0    0  501  502  0.00000000000E+00  0.00000000000E+00  0.15979170688E+03  0.15979170688E+03  0.00000000000E+00 0. -1.
         21   -1    0    0  502  503 -0.00000000000E+00 -0.00000000000E+00 -0.66673984883E+03  0.66673984883E+03  0.00000000000E+00 0.  1.
         -6    2    1    2    0  503  0.86748169439E+02  0.18987358536E+03 -0.48425318040E+03  0.55510647762E+03  0.17339214358E+03 0.  0.
        -24    2    3    3    0    0  0.77932544798E+02  0.16042730466E+03 -0.24098250137E+03  0.30985658066E+03  0.78282392617E+02 0.  0.
          6    2    1    2  501    0 -0.86748169439E+02 -0.18987358536E+03 -0.22694961549E+02  0.27142507808E+03  0.17198630298E+03 0.  0.
         24    2    5    5    0    0 -0.45724385296E+01 -0.96982212543E+02  0.39942202287E+02  0.13240291370E+03  0.80676485358E+02 0.  0.
          5    1    5    5  501    0 -0.82175730910E+02 -0.92891372812E+02 -0.62637163837E+02  0.13902216437E+03  0.47000000000E+01 0. -1.
        -13    1    6    6    0    0  0.23023604279E+02 -0.26962932918E+02 -0.15730494348E+02  0.38788330178E+02  0.00000000000E+00 0.  1.
         14    1    6    6    0    0 -0.27596042809E+02 -0.70019279625E+02  0.55672696636E+02  0.93614583525E+02  0.00000000000E+00 0. -1.
         -5    1    3    3    0  503  0.88156246413E+01  0.29446280696E+02 -0.24327067903E+03  0.24524989696E+03  0.47000000000E+01 0.  1.
         11    1    4    4    0    0  0.89228423074E+01 -0.24330859881E+01 -0.44653245601E+02  0.45600979869E+02  0.00000000000E+00 0. -1.
        -12    1    4    4    0    0  0.69009702491E+02  0.16286039065E+03 -0.19632925577E+03  0.26425560079E+03  0.00000000000E+00 0.  1.
<mgrwt>
<rscale>  2 0.27114640E+03</rscale>
<asrwt>0</asrwt>
<pdfrwt beam="1">  1       21 0.24583339E-01 0.27137070E+03</pdfrwt>
<pdfrwt beam="2">  1       21 0.10257536E+00 0.27137070E+03</pdfrwt>
<totfact> 0.11529969E+04</totfact>
</mgrwt>
</event>
<event>
12    1  0.1029207E-001  0.1917214E+03  0.7546771E-02  0.1158008E+00
         21   -1    0    0  501  502  0.00000000000E+00  0.00000000000E+00  0.22322233103E+03  0.22322233103E+03  0.00000000000E+00 0.  1.
         21   -1    0    0  502  503 -0.00000000000E+00 -0.00000000000E+00 -0.16535696818E+03  0.16535696818E+03  0.00000000000E+00 0. -1.
         -6    2    1    2    0  503  0.36472317457E+02 -0.65554509088E+02  0.62416959643E+02  0.20162584157E+03  0.17643548264E+03 0.  0.
        -24    2    3    3    0    0  0.64906724802E+02 -0.10231923463E+03  0.44703329727E+02  0.15166562490E+03  0.79510787867E+02 0.  0.
          6    2    1    2  501    0 -0.36472317457E+02  0.65554509088E+02 -0.45515967928E+01  0.18695345764E+03  0.17118193447E+03 0.  0.
         24    2    5    5    0    0 -0.38743275505E+02  0.10543992793E+03 -0.26987320056E+02  0.14089419619E+03  0.80648864081E+02 0.  0.
          5    1    5    5  501    0  0.22709580477E+01 -0.39885418846E+02  0.22435723263E+02  0.46059261450E+02  0.47000000000E+01 0. -1.
        -13    1    6    6    0    0 -0.81532667466E+01  0.46798406809E+02  0.27773034863E+02  0.55026430958E+02  0.00000000000E+00 0.  1.
         14    1    6    6    0    0 -0.30590008758E+02  0.58641521125E+02 -0.54760354919E+02  0.85867765235E+02  0.00000000000E+00 0. -1.
         -5    1    3    3    0  503 -0.28434407345E+02  0.36764725543E+02  0.17713629916E+02  0.49960216674E+02  0.47000000000E+01 0.  1.
         13    1    4    4    0    0  0.69226288339E+01 -0.83681430236E+02  0.27963484712E+02  0.88501192272E+02  0.00000000000E+00 0. -1.
        -14    1    4    4    0    0  0.57984095968E+02 -0.18637804394E+02  0.16739845014E+02  0.63164432626E+02  0.00000000000E+00 0.  1.
<mgrwt>
<rscale>  2 0.19050403E+03</rscale>
<asrwt>0</asrwt>
<pdfrwt beam="1">  1       21 0.34341897E-01 0.19172142E+03</pdfrwt>
<pdfrwt beam="2">  1       21 0.25439534E-01 0.19172142E+03</pdfrwt>
<totfact> 0.11975803E+05</totfact>
</mgrwt>
</event>
<event>
12    1  0.1029207E-001  0.3365473E+03  0.7546771E-02  0.1068285E+00
         21   -1    0    0  501  502  0.00000000000E+00  0.00000000000E+00  0.20587597768E+03  0.20587597768E+03  0.00000000000E+00 0. -1.
         21   -1    0    0  502  503 -0.00000000000E+00 -0.00000000000E+00 -0.11059982518E+04  0.11059982518E+04  0.00000000000E+00 0. -1.
         -6    2    1    2    0  503  0.64006382127E+02 -0.28168525027E+03 -0.91509707085E+03  0.97499395795E+03  0.17253165445E+03 0.  0.
        -24    2    3    3    0    0  0.38033347015E+01 -0.22370669975E+03 -0.78785174900E+03  0.82268052725E+03  0.77677014876E+02 0.  0.
          6    2    1    2  501    0 -0.64006382127E+02  0.28168525027E+03  0.14974796743E+02  0.33688027151E+03  0.17268663996E+03 0.  0.
         24    2    5    5    0    0 -0.58064581621E+02  0.20916009550E+03  0.72355048518E+02  0.24409133703E+03  0.85005215002E+02 0.  0.
          5    1    5    5  501    0 -0.59418005061E+01  0.72525154776E+02 -0.57380251776E+02  0.92788934483E+02  0.47000000000E+01 0. -1.
        -13    1    6    6    0    0 -0.61656657720E+02  0.67726162285E+02  0.25889396742E+02  0.95176874096E+02  0.00000000000E+00 0.  1.
         14    1    6    6    0    0  0.35920760990E+01  0.14143393321E+03  0.46465651776E+02  0.14891446293E+03  0.00000000000E+00 0. -1.
         -5    1    3    3    0  503  0.60203047425E+02 -0.57978550525E+02 -0.12724532185E+03  0.15231343070E+03  0.47000000000E+01 0.  1.
         11    1    4    4    0    0 -0.32587933284E+02 -0.89020350382E+02 -0.26150668252E+03  0.27815884164E+03  0.00000000000E+00 0. -1.
        -12    1    4    4    0    0  0.36391267986E+02 -0.13468634937E+03 -0.52634506648E+03  0.54452168561E+03  0.00000000000E+00 0.  1.
<mgrwt>
<rscale>  2 0.33652741E+03</rscale>
<asrwt>0</asrwt>
<pdfrwt beam="1">  1       21 0.31673227E-01 0.33654728E+03</pdfrwt>
<pdfrwt beam="2">  1       21 0.17015358E+00 0.33654728E+03</pdfrwt>
<totfact> 0.18310974E+03</totfact>
</mgrwt>
</event>
<event>
12    1  0.1029207E-001  0.2124167E+03  0.7546771E-02  0.1139770E+00
         21   -1    0    0  501  502  0.00000000000E+00  0.00000000000E+00  0.69612259130E+02  0.69612259130E+02  0.00000000000E+00 0. -1.
         21   -1    0    0  502  503 -0.00000000000E+00 -0.00000000000E+00 -0.74773804843E+03  0.74773804843E+03  0.00000000000E+00 0. -1.
         -6    2    1    2    0  503 -0.12201569978E+03  0.94023626610E+01 -0.48976183624E+03  0.53384222804E+03  0.17362209763E+03 0.  0.
        -24    2    3    3    0    0 -0.14801870407E+03  0.12552360728E+02 -0.33677332377E+03  0.37855651180E+03  0.88440163451E+02 0.  0.
          6    2    1    2  501    0  0.12201569978E+03 -0.94023626610E+01 -0.18836395306E+03  0.28350807952E+03  0.17297287916E+03 0.  0.
         24    2    5    5    0    0  0.10884345910E+03 -0.64981785070E+02 -0.15876230013E+03  0.21900282410E+03  0.81775534503E+02 0.  0.
          5    1    5    5  501    0  0.13172240686E+02  0.55579422409E+02 -0.29601652923E+02  0.64505255412E+02  0.47000000000E+01 0. -1.
        -11    1    6    6    0    0  0.10132016159E+03 -0.53819767479E+02 -0.16744972567E+03  0.20298214982E+03  0.00000000000E+00 0.  1.
         12    1    6    6    0    0  0.75232975064E+01 -0.11162017592E+02  0.86874255412E+01  0.16020674287E+02  0.00000000000E+00 0. -1.
         -5    1    3    3    0  503  0.26003004284E+02 -0.31499980673E+01 -0.15298851247E+03  0.15528571624E+03  0.47000000000E+01 0.  1.
         11    1    4    4    0    0 -0.40702724814E+02 -0.30827500937E+02 -0.61477798842E+02  0.79915995719E+02  0.00000000000E+00 0. -1.
        -12    1    4    4    0    0 -0.10731597925E+03  0.43379861665E+02 -0.27529552493E+03  0.29864051608E+03  0.00000000000E+00 0.  1.
<mgrwt>
<rscale>  2 0.21228403E+03</rscale>
<asrwt>0</asrwt>
<pdfrwt beam="1">  1       21 0.10709578E-01 0.21241673E+03</pdfrwt>
<pdfrwt beam="2">  1       21 0.11503662E+00 0.21241673E+03</pdfrwt>
<totfact> 0.41654903E+04</totfact>
</mgrwt>
</event>
<event>
12    1  0.1029207E-001  0.3281029E+03  0.7546771E-02  0.1072902E+00
         21   -1    0    0  501  502  0.00000000000E+00  0.00000000000E+00  0.24333446734E+03  0.24333446734E+03  0.00000000000E+00 0. -1.
         21   -1    0    0  502  503 -0.00000000000E+00 -0.00000000000E+00 -0.45484178786E+03  0.45484178786E+03  0.00000000000E+00 0.  1.
         -6    2    1    2    0  503 -0.88798854005E+02 -0.25378640946E+03 -0.27864899596E+02  0.32928400228E+03  0.18803915399E+03 0.  0.
        -24    2    3    3    0    0  0.71785519537E+01 -0.19202624964E+03 -0.47412783336E+02  0.21339530761E+03  0.79774514265E+02 0.  0.
          6    2    1    2  501    0  0.88798854005E+02  0.25378640946E+03 -0.18364242093E+03  0.36889225292E+03  0.17339024598E+03 0.  0.
         24    2    5    5    0    0  0.40958358357E+02  0.46279694723E+02 -0.78326444088E+02  0.13127639768E+03  0.85317427766E+02 0.  0.
          5    1    5    5  501    0  0.47840495648E+02  0.20750671473E+03 -0.10531597684E+03  0.23761585524E+03  0.47000000000E+01 0. -1.
        -11    1    6    6    0    0  0.56006745835E+02  0.61360916544E+02 -0.54730370083E+02  0.99485330916E+02  0.00000000000E+00 0.  1.
         12    1    6    6    0    0 -0.15048387478E+02 -0.15081221821E+02 -0.23596074005E+02  0.31791066760E+02  0.00000000000E+00 0. -1.
         -5    1    3    3    0  503 -0.95977405958E+02 -0.61760159814E+02  0.19547883740E+02  0.11588869468E+03  0.47000000000E+01 0.  1.
         13    1    4    4    0    0 -0.18003818485E+02 -0.89407606980E+02  0.12297866567E+02  0.92027687073E+02  0.00000000000E+00 0. -1.
        -14    1    4    4    0    0  0.25182370439E+02 -0.10261864266E+03 -0.59710649903E+02  0.12136762054E+03  0.00000000000E+00 0.  1.
<mgrwt>
<rscale>  2 0.32604099E+03</rscale>
<asrwt>0</asrwt>
<pdfrwt beam="1">  1       21 0.37436072E-01 0.32810288E+03</pdfrwt>
<pdfrwt beam="2">  1       21 0.69975659E-01 0.32810288E+03</pdfrwt>
<totfact> 0.11893956E+04</totfact>
</mgrwt>
</event>
<event>
12    1  0.1029207E-001  0.1765626E+03  0.7546771E-02  0.1171403E+00
         21   -1    0    0  501  502  0.00000000000E+00  0.00000000000E+00  0.99664041423E+02  0.99664041423E+02  0.00000000000E+00 0.  1.
         21   -1    0    0  502  503 -0.00000000000E+00 -0.00000000000E+00 -0.34089724988E+03  0.34089724988E+03  0.00000000000E+00 0.  1.
         -6    2    1    2    0  503  0.32537174390E+02  0.76373166139E+01 -0.55259172010E+02  0.18412278987E+03  0.17242572121E+03 0.  0.
        -24    2    3    3    0    0 -0.70129234680E+00  0.34346123388E+02  0.26937996069E+02  0.91404827904E+02  0.80305908433E+02 0.  0.
          6    2    1    2  501    0 -0.32537174390E+02 -0.76373166139E+01 -0.18597403644E+03  0.25643850143E+03  0.17337060438E+03 0.  0.
         24    2    5    5    0    0 -0.53416053327E+02 -0.17925827952E+02 -0.37073732373E+02  0.10565663381E+03  0.81328055278E+02 0.  0.
          5    1    5    5  501    0  0.20878878937E+02  0.10288511338E+02 -0.14890030407E+03  0.15078186762E+03  0.47000000000E+01 0. -1.
        -13    1    6    6    0    0 -0.59413017074E+02  0.39988064884E+01 -0.51505682398E+02  0.78732028873E+02  0.00000000000E+00 0.  1.
         14    1    6    6    0    0  0.59969637467E+01 -0.21924634441E+02  0.14431950025E+02  0.26924604938E+02  0.00000000000E+00 0. -1.
         -5    1    3    3    0  503  0.33238466737E+02 -0.26708806774E+02 -0.82197168079E+02  0.92717961963E+02  0.47000000000E+01 0.  1.
         13    1    4    4    0    0  0.25927994876E+02  0.43995399418E+02  0.35054871856E+02  0.61941102097E+02  0.00000000000E+00 0. -1.
        -14    1    4    4    0    0 -0.26629287222E+02 -0.96492760301E+01 -0.81168757867E+01  0.29463725807E+02  0.00000000000E+00 0.  1.
<mgrwt>
<rscale>  2 0.17633025E+03</rscale>
<asrwt>0</asrwt>
<pdfrwt beam="1">  1       21 0.15332929E-01 0.17656263E+03</pdfrwt>
<pdfrwt beam="2">  1       21 0.52445731E-01 0.17656263E+03</pdfrwt>
<totfact> 0.13068325E+05</totfact>
</mgrwt>
</event>
<event>
12    1  0.1029207E-001  0.2885344E+03  0.7546771E-02  0.1091126E+00
         21   -1    0    0  501  502  0.00000000000E+00  0.00000000000E+00  0.71140227040E+03  0.71140227040E+03  0.00000000000E+00 0. -1.
         21   -1    0    0  502  503 -0.00000000000E+00 -0.00000000000E+00 -0.17796529489E+03  0.17796529489E+03  0.00000000000E+00 0. -1.
         -6    2    1    2    0  503 -0.18062430552E+03  0.14446153810E+03  0.64627123355E+01  0.28860675601E+03  0.17250454262E+03 0.  0.
        -24    2    3    3    0    0 -0.15590112484E+03  0.43203860634E+02 -0.18914750999E+02  0.18122678322E+03  0.79458447329E+02 0.  0.
          6    2    1    2  501    0  0.18062430552E+03 -0.14446153810E+03  0.52697426317E+03  0.60076080928E+03  0.17238735507E+03 0.  0.
         24    2    5    5    0    0  0.14133557244E+03 -0.11069431141E+03  0.24075151015E+03  0.30984950924E+03  0.76265681141E+02 0.  0.
          5    1    5    5  501    0  0.39288733080E+02 -0.33767226692E+02  0.28622275302E+03  0.29091130004E+03  0.47000000000E+01 0. -1.
        -13    1    6    6    0    0  0.22251646308E+02 -0.62708037188E+02  0.87482661472E+02  0.10991200912E+03  0.00000000000E+00 0.  1.
         14    1    6    6    0    0  0.11908392613E+03 -0.47986274224E+02  0.15326884868E+03  0.19993750012E+03  0.00000000000E+00 0. -1.
         -5    1    3    3    0  503 -0.24723180681E+02  0.10125767747E+03  0.25377463335E+02  0.10737997278E+03  0.47000000000E+01 0.  1.
         11    1    4    4    0    0 -0.73505401765E+02 -0.10074546159E+02 -0.34594007417E+02  0.81861382337E+02  0.00000000000E+00 0. -1.
        -12    1    4    4    0    0 -0.82395723077E+02  0.53278406793E+02  0.15679256418E+02  0.99365400887E+02  0.00000000000E+00 0.  1.
<mgrwt>
<rscale>  2 0.28851687E+03</rscale>
<asrwt>0</asrwt>
<pdfrwt beam="1">  1       21 0.10944650E+00 0.28853439E+03</pdfrwt>
<pdfrwt beam="2">  1       21 0.27379276E-01 0.28853439E+03</pdfrwt>
<totfact> 0.79272012E+03</totfact>
</mgrwt>
</event>
<event>
12    1  0.1029207E-001  0.1895535E+03  0.7546771E-02  0.1160523E+00
         21   -1    0    0  503  502  0.00000000000E+00  0.00000000000E+00  0.27116189058E+02  0.27116189058E+02  0.00000000000E+00 0.  1.
         21   -1    0    0  501  503 -0.00000000000E+00 -0.00000000000E+00 -0.12780249791E+04  0.12780249791E+04  0.00000000000E+00 0. -1.
          6    2    1    2  501    0  0.56919837776E+02 -0.14551857085E+02 -0.60760119009E+03  0.63648230493E+03  0.18021901625E+03 0.  0.
         24    2    3    3    0    0 -0.27739883204E+02 -0.46181700253E+02 -0.39624636356E+03  0.40656782511E+03  0.73375508319E+02 0.  0.
         -6    2    1    2    0  502 -0.56919837776E+02  0.14551857085E+02 -0.64330759999E+03  0.66865886326E+03  0.17265104325E+03 0.  0.
        -24    2    5    5    0    0 -0.28879028351E+02 -0.26504504510E+02 -0.57915778703E+03  0.58736187486E+03  0.89631148174E+02 0.  0.
          5    1    3    3  501    0  0.84659720980E+02  0.31629843168E+02 -0.21135482653E+03  0.22991447982E+03  0.47000000000E+01 0. -1.
        -11    1    4    4    0    0 -0.14609687262E+01  0.98699032103E+01 -0.64376797278E+01  0.11874053195E+02  0.00000000000E+00 0.  1.
         12    1    4    4    0    0 -0.26278914478E+02 -0.56051603463E+02 -0.38980868383E+03  0.39469377191E+03  0.00000000000E+00 0. -1.
         -5    1    5    5    0  502 -0.28040809425E+02  0.41056361594E+02 -0.64149812963E+02  0.81296988405E+02  0.47000000000E+01 0.  1.
         13    1    6    6    0    0 -0.27647673827E+01  0.31058518249E+02 -0.27100745736E+03  0.27279537650E+03  0.00000000000E+00 0. -1.
        -14    1    6    6    0    0 -0.26114260968E+02 -0.57563022758E+02 -0.30815032967E+03  0.31456649836E+03  0.00000000000E+00 0.  1.
<mgrwt>
<rscale>  2 0.18773234E+03</rscale>
<asrwt>0</asrwt>
<pdfrwt beam="1">  1       21 0.41717220E-02 0.18955347E+03</pdfrwt>
<pdfrwt beam="2">  1       21 0.19661920E+00 0.18955347E+03</pdfrwt>
<totfact> 0.51657155E+04</totfact>
</mgrwt>
</event>
<event>
12    1  0.1029207E-001  0.3929488E+03  0.7546771E-02  0.1046259E+00
         21   -1    0    0  501  502  0.00000000000E+00  0.00000000000E+00  0.13114561921E+04  0.13114561921E+04  0.00000000000E+00 0. -1.
         21   -1    0    0  502  503 -0.00000000000E+00 -0.00000000000E+00 -0.16620801808E+03  0.16620801808E+03  0.00000000000E+00 0.  1.
         -6    2    1    2    0  503 -0.32318180781E+03  0.14133682171E+03  0.17355970145E+03  0.42957155039E+03  0.17316514911E+03 0.  0.
        -24    2    3    3    0    0 -0.96260074219E+02  0.49172525505E+02  0.11714214846E+03  0.17818984669E+03  0.79658015061E+02 0.  0.
          6    2    1    2  501    0  0.32318180781E+03 -0.14133682171E+03  0.97168847259E+03  0.10480926598E+04  0.17290794576E+03 0.  0.
         24    2    5    5    0    0  0.11001381754E+03 -0.41691533209E+02  0.51255914607E+03  0.53215506274E+03  0.81430391067E+02 0.  0.
          5    1    5    5  501    0  0.21316799027E+03 -0.99645288504E+02  0.45912932652E+03  0.51593759707E+03  0.47000000000E+01 0. -1.
        -11    1    6    6    0    0 -0.47662722572E+01  0.17990100816E+01 -0.98201333139E-02  0.50944955529E+01  0.00000000000E+00 0.  1.
         12    1    6    6    0    0  0.11478008979E+03 -0.43490543291E+02  0.51256896620E+03  0.52706056719E+03  0.00000000000E+00 0. -1.
         -5    1    3    3    0  503 -0.22692173359E+03  0.92164296209E+02  0.56417552994E+02  0.25138170370E+03  0.47000000000E+01 0.  1.
         11    1    4    4    0    0 -0.63861345303E+02  0.53102062663E+02  0.11943363117E+03  0.14547334029E+03  0.00000000000E+00 0. -1.
        -12    1    4    4    0    0 -0.32398728916E+02 -0.39295371583E+01 -0.22914827042E+01  0.32716506394E+02  0.00000000000E+00 0.  1.
<mgrwt>
<rscale>  2 0.39292046E+03</rscale>
<asrwt>0</asrwt>
<pdfrwt beam="1">  1       21 0.20176248E+00 0.39294878E+03</pdfrwt>
<pdfrwt beam="2">  1       21 0.25570465E-01 0.39294878E+03</pdfrwt>
<totfact> 0.16406749E+03</totfact>
</mgrwt>
</event>
<event>
12    1  0.1029207E-001  0.3264389E+03  0.7546771E-02  0.1072878E+00
         21   -1    0    0  503  502  0.00000000000E+00  0.00000000000E+00  0.49894731684E+03  0.49894731684E+03  0.00000000000E+00 0. -1.
         21   -1    0    0  501  503 -0.00000000000E+00 -0.00000000000E+00 -0.32514278341E+03  0.32514278341E+03  0.00000000000E+00 0. -1.
          6    2    1    2  501    0 -0.23043777257E+03 -0.14838229633E+03 -0.15555730983E+03  0.36036433720E+03  0.17477272669E+03 0.  0.
         24    2    3    3    0    0 -0.13317249818E+03 -0.39396352630E+02 -0.21236547823E+02  0.16186338851E+03  0.80385189581E+02 0.  0.
         -6    2    1    2    0  502  0.23043777257E+03  0.14838229633E+03  0.32936184326E+03  0.46372576304E+03  0.17732311361E+03 0.  0.
        -24    2    5    5    0    0  0.11949909503E+03  0.15503266606E+03  0.25024208324E+03  0.32722065685E+03  0.78339624618E+02 0.  0.
          5    1    3    3  501    0 -0.97265274395E+02 -0.10898594370E+03 -0.13432076201E+03  0.19850094870E+03  0.47000000000E+01 0. -1.
        -13    1    4    4    0    0 -0.44805305983E+01 -0.22147210203E+02  0.14923788623E+02  0.27079393293E+02  0.00000000000E+00 0.  1.
         14    1    4    4    0    0 -0.12869196758E+03 -0.17249142427E+02 -0.36160336447E+02  0.13478399521E+03  0.00000000000E+00 0. -1.
         -5    1    5    5    0  502  0.11093867754E+03 -0.66503697267E+01  0.79119760022E+02  0.13650510620E+03  0.47000000000E+01 0.  1.
         13    1    6    6    0    0  0.11326950915E+03  0.89903095431E+02  0.15875080852E+03  0.21474256094E+03  0.00000000000E+00 0. -1.
        -14    1    6    6    0    0  0.62295858818E+01  0.65129570625E+02  0.91491274718E+02  0.11247809591E+03  0.00000000000E+00 0.  1.
<mgrwt>
<rscale>  2 0.32609378E+03</rscale>
<asrwt>0</asrwt>
<pdfrwt beam="1">  1       21 0.76761126E-01 0.32643891E+03</pdfrwt>
<pdfrwt beam="2">  1       21 0.50021967E-01 0.32643891E+03</pdfrwt>
<totfact> 0.53043862E+03</totfact>
</mgrwt>
</event>
<event>
12    1  0.1029207E-001  0.2055668E+03  0.7546771E-02  0.1145413E+00
         21   -1    0    0  501  502  0.00000000000E+00  0.00000000000E+00  0.42597568156E+03  0.42597568156E+03  0.00000000000E+00 0. -1.
         21   -1    0    0  502  503 -0.00000000000E+00 -0.00000000000E+00 -0.30592032420E+03  0.30592032420E+03  0.00000000000E+00 0. -1.
         -6    2    1    2    0  503 -0.11132799408E+03 -0.59025046247E+01 -0.24121637368E+03  0.31692752354E+03  0.17271060888E+03 0.  0.
        -24    2    3    3    0    0 -0.13149928226E+03 -0.61490135550E+01 -0.25070375014E+03  0.29414503145E+03  0.79618198842E+02 0.  0.
          6    2    1    2  501    0  0.11132799408E+03  0.59025046247E+01  0.36127173104E+03  0.41496848223E+03  0.17103454555E+03 0.  0.
         24    2    5    5    0    0  0.10392059818E+03 -0.52086323688E+02  0.27954980652E+03  0.31437953319E+03  0.84699000691E+02 0.  0.
          5    1    5    5  501    0  0.74073958935E+01  0.57988828312E+02  0.81721924516E+02  0.10058894904E+03  0.47000000000E+01 0. -1.
        -13    1    6    6    0    0  0.16831703517E+02 -0.54123514916E+02  0.10683738449E+03  0.12094167121E+03  0.00000000000E+00 0.  1.
         14    1    6    6    0    0  0.87088894667E+02  0.20371912286E+01  0.17271242203E+03  0.19343786198E+03  0.00000000000E+00 0. -1.
         -5    1    3    3    0  503  0.20171288182E+02  0.24650893022E+00  0.94873764661E+01  0.22782492089E+02  0.47000000000E+01 0.  1.
         13    1    4    4    0    0  0.10717677659E+02  0.28110979511E+01 -0.13949661380E+02  0.17814711300E+02  0.00000000000E+00 0. -1.
        -14    1    4    4    0    0 -0.14221695992E+03 -0.89601115061E+01 -0.23675408876E+03  0.27633032015E+03  0.00000000000E+00 0.  1.
<mgrwt>
<rscale>  2 0.20521437E+03</rscale>
<asrwt>0</asrwt>
<pdfrwt beam="1">  1       21 0.65534720E-01 0.20556682E+03</pdfrwt>
<pdfrwt beam="2">  1       21 0.47064665E-01 0.20556682E+03</pdfrwt>
<totfact> 0.91666493E+03</totfact>
</mgrwt>
</event>
<event>
12    1  0.1029207E-001  0.3317704E+03  0.7546771E-02  0.1070392E+00
         21   -1    0    0  503  502  0.00000000000E+00  0.00000000000E+00  0.17706519294E+03  0.17706519294E+03  0.00000000000E+00 0. -1.
         21   -1    0    0  501  503 -0.00000000000E+00 -0.00000000000E+00 -0.78941989450E+03  0.78941989450E+03  0.00000000000E+00 0.  1.
          6    2    1    2  501    0  0.27165722798E+03  0.79035541099E+02 -0.83113600166E+02  0.34202260180E+03  0.17328393849E+03 0.  0.
         24    2    3    3    0    0  0.46403564855E+02  0.32980258903E+02 -0.45739789312E+02  0.10904364673E+03  0.80977776311E+02 0.  0.
         -6    2    1    2    0  502 -0.27165722798E+03 -0.79035541099E+02 -0.52924110139E+03  0.62446248563E+03  0.17266437471E+03 0.  0.
        -24    2    5    5    0    0 -0.57705543466E+02 -0.52822963881E+02 -0.22350112525E+03  0.25034827109E+03  0.81248437473E+02 0.  0.
          5    1    3    3  501    0  0.22525366312E+03  0.46055282196E+02 -0.37373810854E+02  0.23297895507E+03  0.47000000000E+01 0. -1.
        -11    1    4    4    0    0 -0.10958693641E+02 -0.16090658814E+02 -0.23151528405E+02  0.30248893118E+02  0.00000000000E+00 0.  1.
         12    1    4    4    0    0  0.57362258496E+02  0.49070917716E+02 -0.22588260907E+02  0.78794753607E+02  0.00000000000E+00 0. -1.
         -5    1    5    5    0  502 -0.21395168451E+03 -0.26212577218E+02 -0.30573997614E+03  0.37411421454E+03  0.47000000000E+01 0.  1.
         11    1    6    6    0    0 -0.15053741769E+02 -0.17389547958E+02 -0.32552443865E+01  0.23229466964E+02  0.00000000000E+00 0. -1.
        -12    1    6    6    0    0 -0.42651801697E+02 -0.35433415923E+02 -0.22024588086E+03  0.22711880413E+03  0.00000000000E+00 0.  1.
<mgrwt>
<rscale>  2 0.33168956E+03</rscale>
<asrwt>0</asrwt>
<pdfrwt beam="1">  1       21 0.27240799E-01 0.33177039E+03</pdfrwt>
<pdfrwt beam="2">  1       21 0.12144921E+00 0.33177039E+03</pdfrwt>
<totfact> 0.60562589E+03</totfact>
</mgrwt>
</event>
<event>
12    1  0.1029207E-001  0.1910277E+03  0.7546771E-02  0.1157852E+00
         21   -1    0    0  503  502  0.00000000000E+00  0.00000000000E+00  0.68244348261E+02  0.68244348261E+02  0.00000000000E+00 0.  1.
         21   -1    0    0  501  503 -0.00000000000E+00 -0.00000000000E+00 -0.56189729286E+03  0.56189729286E+03  0.00000000000E+00 0.  1.
          6    2    1    2  501    0 -0.74560956762E+02 -0.31772516517E+02 -0.32007401199E+03  0.37203074335E+03  0.17143707816E+03 0.  0.
         24    2    3    3    0    0 -0.26553167636E+02  0.24202660501E+01 -0.29707743562E+03  0.30858922129E+03  0.79128859126E+02 0.  0.
         -6    2    1    2    0  502  0.74560956762E+02  0.31772516517E+02 -0.17357893261E+03  0.25811089777E+03  0.17298196618E+03 0.  0.
        -24    2    5    5    0    0 -0.19588635732E+02 -0.58647255235E+01 -0.58364978486E+02  0.10456268716E+03  0.84313552754E+02 0.  0.
          5    1    3    3  501    0 -0.48007789126E+02 -0.34192782567E+02 -0.22996576376E+02  0.63441522061E+02  0.47000000000E+01 0. -1.
        -13    1    4    4    0    0 -0.32897864734E+02 -0.33095113154E+02 -0.14661964165E+03  0.15386642043E+03  0.00000000000E+00 0.  1.
         14    1    4    4    0    0  0.63446970980E+01  0.35515379204E+02 -0.15045779397E+03  0.15472280086E+03  0.00000000000E+00 0. -1.
         -5    1    5    5    0  502  0.94149592494E+02  0.37637242040E+02 -0.11521395412E+03  0.15354821060E+03  0.47000000000E+01 0.  1.
         11    1    6    6    0    0 -0.17296052858E+02 -0.12904978985E+02 -0.79390718850E+02  0.82271369058E+02  0.00000000000E+00 0. -1.
        -12    1    6    6    0    0 -0.22925828743E+01  0.70402534620E+01  0.21025740364E+02  0.22291318106E+02  0.00000000000E+00 0.  1.
<mgrwt>
<rscale>  2 0.19067730E+03</rscale>
<asrwt>0</asrwt>
<pdfrwt beam="1">  1       21 0.10499131E-01 0.19102772E+03</pdfrwt>
<pdfrwt beam="2">  1       21 0.86445736E-01 0.19102772E+03</pdfrwt>
<totfact> 0.85882469E+04</totfact>
</mgrwt>
</event>
<event>
12    1  0.1029207E-001  0.1895706E+03  0.7546771E-02  0.1159087E+00
         21   -1    0    0  503  502  0.00000000000E+00  0.00000000000E+00  0.25158962181E+03  0.25158962181E+03  0.00000000000E+00 0.  1.
         21   -1    0    0  501  503 -0.00000000000E+00 -0.00000000000E+00 -0.68469066331E+03  0.68469066331E+03  0.00000000000E+00 0.  1.
          6    2    1    2  501    0 -0.33004990394E+02 -0.68650107975E+02 -0.63343346104E+03  0.66119207099E+03  0.17359388946E+03 0.  0.
         24    2    3    3    0    0 -0.88737603778E+02 -0.38199532851E+02 -0.43826937508E+03  0.45590088226E+03  0.80199767335E+02 0.  0.
         -6    2    1    2    0  502  0.33004990394E+02  0.68650107975E+02  0.20033241953E+03  0.27508821413E+03  0.17244790669E+03 0.  0.
        -24    2    5    5    0    0  0.27996742530E+02 -0.27545424616E+02  0.73243590955E+02  0.11555037101E+03  0.80278867805E+02 0.  0.
          5    1    3    3  501    0  0.55732613384E+02 -0.30450575123E+02 -0.19516408596E+03  0.20529118873E+03  0.47000000000E+01 0. -1.
        -13    1    4    4    0    0 -0.66277927904E+02 -0.40831862373E+02 -0.41906227862E+03  0.42623139030E+03  0.00000000000E+00 0.  1.
         14    1    4    4    0    0 -0.22459675874E+02  0.26323295220E+01 -0.19207096458E+02  0.29669491964E+02  0.00000000000E+00 0. -1.
         -5    1    5    5    0  502  0.50082478646E+01  0.96195532591E+02  0.12708882858E+03  0.15953784312E+03  0.47000000000E+01 0.  1.
         13    1    6    6    0    0  0.77321336196E+00  0.41526761522E+01 -0.16246250674E+02  0.16786400421E+02  0.00000000000E+00 0. -1.
        -14    1    6    6    0    0  0.27223529168E+02 -0.31698100769E+02  0.89489841629E+02  0.98763970594E+02  0.00000000000E+00 0.  1.
<mgrwt>
<rscale>  2 0.18930783E+03</rscale>
<asrwt>0</asrwt>
<pdfrwt beam="1">  1       21 0.38706097E-01 0.18957058E+03</pdfrwt>
<pdfrwt beam="2">  1       21 0.10533702E+00 0.18957058E+03</pdfrwt>
<totfact> 0.46780541E+03</totfact>
</mgrwt>
</event>
<event>
12    1  0.1029207E-001  0.2414995E+03  0.7546771E-02  0.1118834E+00
         21   -1    0    0  503  502  0.00000000000E+00  0.00000000000E+00  0.29334811038E+03  0.29334811038E+03  0.00000000000E+00 0.  1.
         21   -1    0    0  501  503 -0.00000000000E+00 -0.00000000000E+00 -0.39657714452E+03  0.39657714452E+03  0.00000000000E+00 0.  1.
          6    2    1    2  501    0 -0.52530705921E+02 -0.15953701360E+03 -0.29531408390E+03  0.38134999528E+03  0.17322204529E+03 0.  0.
         24    2    3    3    0    0  0.21298216971E+02 -0.12997786000E+03 -0.23558519047E+03  0.28178050132E+03  0.80944492201E+02 0.  0.
         -6    2    1    2    0  502  0.52530705921E+02  0.15953701360E+03  0.19208504976E+03  0.30857525962E+03  0.17352374689E+03 0.  0.
        -24    2    5    5    0    0 -0.53196457122E+01  0.87525130875E+02  0.33877294214E+02  0.12531544855E+03  0.82869435970E+02 0.  0.
          5    1    3    3  501    0 -0.73828922892E+02 -0.29559153598E+02 -0.59728893436E+02  0.99569493962E+02  0.47000000000E+01 0. -1.
        -11    1    4    4    0    0 -0.15533747591E+02 -0.27683859446E+02 -0.11552925258E+03  0.11981110796E+03  0.00000000000E+00 0.  1.
         12    1    4    4    0    0  0.36831964562E+02 -0.10229400056E+03 -0.12005593789E+03  0.16196939336E+03  0.00000000000E+00 0. -1.
         -5    1    5    5    0  502  0.57850351633E+02  0.72011882725E+02  0.15820775554E+03  0.18325981106E+03  0.47000000000E+01 0.  1.
         11    1    6    6    0    0 -0.35066324354E+02  0.28275741259E+02  0.37938183101E+02  0.58893721095E+02  0.00000000000E+00 0. -1.
        -12    1    6    6    0    0  0.29746678642E+02  0.59249389616E+02 -0.40608888868E+01  0.66421727459E+02  0.00000000000E+00 0.  1.
<mgrwt>
<rscale>  2 0.24144534E+03</rscale>
<asrwt>0</asrwt>
<pdfrwt beam="1">  1       21 0.45130479E-01 0.24149953E+03</pdfrwt>
<pdfrwt beam="2">  1       21 0.61011868E-01 0.24149953E+03</pdfrwt>
<totfact> 0.11423613E+04</totfact>
</mgrwt>
</event>
<event>
12    1  0.1029207E-001  0.1967147E+03  0.7546771E-02  0.1153700E+00
         21   -1    0    0  501  502  0.00000000000E+00  0.00000000000E+00  0.10886674697E+03  0.10886674697E+03  0.00000000000E+00 0. -1.
         21   -1    0    0  502  503 -0.00000000000E+00 -0.00000000000E+00 -0.37270957317E+03  0.37270957317E+03  0.00000000000E+00 0.  1.
         -6    2    1    2    0  503 -0.93222129289E+02  0.45187234446E+01 -0.69063564568E+02  0.20848605386E+03  0.17316429902E+03 0.  0.
        -24    2    3    3    0    0 -0.55337483314E+01  0.41570855530E+02  0.47769512673E+01  0.87918129332E+02  0.77123406315E+02 0.  0.
          6    2    1    2  501    0  0.93222129289E+02 -0.45187234446E+01 -0.19477926163E+03  0.27309026628E+03  0.16711836681E+03 0.  0.
         24    2    5    5    0    0  0.13051058022E+03 -0.43810962956E+01 -0.17123422546E+03  0.22874044957E+03  0.77128644150E+02 0.  0.
          5    1    5    5  501    0 -0.37288450930E+02 -0.13762714905E+00 -0.23545036178E+02  0.44349816715E+02  0.47000000000E+01 0. -1.
        -13    1    6    6    0    0  0.85494522234E+02  0.34453095946E+02 -0.10642952141E+03  0.14079620797E+03  0.00000000000E+00 0.  1.
         14    1    6    6    0    0  0.45016057985E+02 -0.38834192241E+02 -0.64804704047E+02  0.87944241598E+02  0.00000000000E+00 0. -1.
         -5    1    3    3    0  503 -0.87688380958E+02 -0.37052132085E+02 -0.73840515835E+02  0.12056792453E+03  0.47000000000E+01 0.  1.
         13    1    4    4    0    0 -0.50200581837E+00  0.28771819238E+02  0.40475460860E+02  0.49662184043E+02  0.00000000000E+00 0. -1.
        -14    1    4    4    0    0 -0.50317425131E+01  0.12799036292E+02 -0.35698509593E+02  0.38255945288E+02  0.00000000000E+00 0.  1.
<mgrwt>
<rscale>  2 0.19537590E+03</rscale>
<asrwt>0</asrwt>
<pdfrwt beam="1">  1       21 0.16748730E-01 0.19671466E+03</pdfrwt>
<pdfrwt beam="2">  1       21 0.57339934E-01 0.19671466E+03</pdfrwt>
<totfact> 0.91392062E+04</totfact>
</mgrwt>
</event>
<event>
12    1  0.1029207E-001  0.2355140E+03  0.7546771E-02  0.1122910E+00
         21   -1    0    0  503  502  0.00000000000E+00  0.00000000000E+00  0.66857467361E+02  0.66857467361E+02  0.00000000000E+00 0. -1.
         21   -1    0    0  501  503 -0.00000000000E+00 -0.00000000000E+00 -0.10663316471E+04  0.10663316471E+04  0.00000000000E+00 0.  1.
          6    2    1    2  501    0 -0.10780921825E+03  0.11794000138E+03 -0.76731224016E+03  0.80248378771E+03  0.17227734668E+03 0.  0.
         24    2    3    3    0    0 -0.65502542918E+01  0.10639492390E+03 -0.48588848059E+03  0.50313768528E+03  0.75479329015E+02 0.  0.
         -6    2    1    2    0  502  0.10780921825E+03 -0.11794000138E+03 -0.23216193955E+03  0.33070532672E+03  0.17301495738E+03 0.  0.
        -24    2    5    5    0    0  0.54109071814E+02 -0.94389643636E+02 -0.58314767531E+02  0.14717534471E+03  0.80142207975E+02 0.  0.
          5    1    3    3  501    0 -0.10125896396E+03  0.11545077481E+02 -0.28142375956E+03  0.29934610243E+03  0.47000000000E+01 0. -1.
        -11    1    4    4    0    0 -0.36010193665E+02  0.69480739876E+02 -0.23060001097E+03  0.24351729368E+03  0.00000000000E+00 0.  1.
         12    1    4    4    0    0  0.29459939374E+02  0.36914184022E+02 -0.25528846963E+03  0.25962039160E+03  0.00000000000E+00 0. -1.
         -5    1    5    5    0  502  0.53700146440E+02 -0.23550357743E+02 -0.17384717202E+03  0.18352998201E+03  0.47000000000E+01 0.  1.
         13    1    6    6    0    0 -0.10974359222E+02 -0.51186783013E+02 -0.42600110422E+02  0.67492908690E+02  0.00000000000E+00 0. -1.
        -14    1    6    6    0    0  0.65083431036E+02 -0.43202860623E+02 -0.15714657109E+02  0.79682436017E+02  0.00000000000E+00 0.  1.
<mgrwt>
<rscale>  2 0.23537856E+03</rscale>
<asrwt>0</asrwt>
<pdfrwt beam="1">  1       21 0.10285764E-01 0.23551401E+03</pdfrwt>
<pdfrwt beam="2">  1       21 0.16405103E+00 0.23551401E+03</pdfrwt>
<totfact> 0.17648517E+04</totfact>
</mgrwt>
</event>
<event>
12    1  0.1029207E-001  0.2162827E+03  0.7546771E-02  0.1137833E+00
         21   -1    0    0  503  502  0.00000000000E+00  0.00000000000E+00  0.64201804506E+03  0.64201804506E+03  0.00000000000E+00 0. -1.
         21   -1    0    0  501  503 -0.00000000000E+00 -0.00000000000E+00 -0.73368355397E+02  0.73368355397E+02  0.00000000000E+00 0.  1.
          6    2    1    2  501    0  0.72803680493E+02 -0.10788531424E+03  0.35407335558E+03  0.41490498684E+03  0.17273850195E+03 0.  0.
         24    2    3    3    0    0  0.95595182699E+02 -0.39609389082E+02  0.15443764086E+03  0.20263731827E+03  0.80644622783E+02 0.  0.
         -6    2    1    2    0  502 -0.72803680493E+02  0.10788531424E+03  0.21457633408E+03  0.30048141361E+03  0.16524666367E+03 0.  0.
        -24    2    5    5    0    0 -0.76803199281E+01  0.49612121877E+00  0.10247412571E+03  0.13206975726E+03  0.82959272501E+02 0.  0.
          5    1    3    3  501    0 -0.22791502206E+02 -0.68275925163E+02  0.19963571472E+03  0.21226766857E+03  0.47000000000E+01 0. -1.
        -13    1    4    4    0    0  0.71811644656E+02 -0.37816322090E+02  0.49590508098E+02  0.95111539878E+02  0.00000000000E+00 0.  1.
         14    1    4    4    0    0  0.23783538043E+02 -0.17930669917E+01  0.10484713276E+03  0.10752577839E+03  0.00000000000E+00 0. -1.
         -5    1    5    5    0  502 -0.65123360565E+02  0.10738919303E+03  0.11210220837E+03  0.16841165634E+03  0.47000000000E+01 0.  1.
         11    1    6    6    0    0 -0.23823730825E+02 -0.35997229834E+02  0.48189389216E+02  0.64696119970E+02  0.00000000000E+00 0. -1.
        -12    1    6    6    0    0  0.16143410897E+02  0.36493351053E+02  0.54284736492E+02  0.67373637295E+02  0.00000000000E+00 0.  1.
<mgrwt>
<rscale>  2 0.21478339E+03</rscale>
<asrwt>0</asrwt>
<pdfrwt beam="1">  1       21 0.98772003E-01 0.21628270E+03</pdfrwt>
<pdfrwt beam="2">  1       21 0.11287440E-01 0.21628270E+03</pdfrwt>
<totfact> 0.54694046E+04</totfact>
</mgrwt>
</event>
<event>
12    1  0.1029207E-001  0.1886253E+03  0.7546771E-02  0.1159937E+00
         21   -1    0    0  503  502  0.00000000000E+00  0.00000000000E+00  0.27940716685E+03  0.27940716685E+03  0.00000000000E+00 0.  1.
         21   -1    0    0  501  503 -0.00000000000E+00 -0.00000000000E+00 -0.35607644985E+03  0.35607644985E+03  0.00000000000E+00 0.  1.
          6    2    1    2  501    0 -0.41664093224E+02  0.60394663226E+02 -0.29334144676E+03  0.34820966975E+03  0.17267703294E+03 0.  0.
         24    2    3    3    0    0  0.79651540660E+01 -0.27076048161E+02 -0.10301006177E+03  0.13289057248E+03  0.79071330856E+02 0.  0.
         -6    2    1    2    0  502  0.41664093224E+02 -0.60394663226E+02  0.21667216376E+03  0.28727394695E+03  0.17377019893E+03 0.  0.
        -24    2    5    5    0    0  0.79681481639E+02 -0.18412590095E+02  0.81732599682E+02  0.14085471242E+03  0.80446691481E+02 0.  0.
          5    1    3    3  501    0 -0.49629247290E+02  0.87470711386E+02 -0.19033138499E+03  0.21531909727E+03  0.47000000000E+01 0. -1.
        -13    1    4    4    0    0 -0.15382677391E+02  0.14026144718E+02 -0.75239280713E+02  0.78066054477E+02  0.00000000000E+00 0.  1.
         14    1    4    4    0    0  0.23347831457E+02 -0.41102192879E+02 -0.27770781061E+02  0.54824518000E+02  0.00000000000E+00 0. -1.
         -5    1    5    5    0  502 -0.38017388415E+02 -0.41982073130E+02  0.13493956408E+03  0.14641923453E+03  0.47000000000E+01 0.  1.
         13    1    6    6    0    0  0.20172461895E+02  0.97602243396E+01 -0.12682405065E+02  0.25749438757E+02  0.00000000000E+00 0. -1.
        -14    1    6    6    0    0  0.59509019744E+02 -0.28172814435E+02  0.94415004747E+02  0.11510527366E+03  0.00000000000E+00 0.  1.
<mgrwt>
<rscale>  2 0.18837312E+03</rscale>
<asrwt>0</asrwt>
<pdfrwt beam="1">  1       21 0.42985718E-01 0.18862527E+03</pdfrwt>
<pdfrwt beam="2">  1       21 0.54780992E-01 0.18862527E+03</pdfrwt>
<totfact> 0.16411892E+04</totfact>
</mgrwt>
</event>
<event>
12    1  0.1029207E-001  0.2243340E+03  0.7546771E-02  0.1130748E+00
         21   -1    0    0  503  502  0.00000000000E+00  0.00000000000E+00  0.18007151654E+03  0.18007151654E+03  0.00000000000E+00 0. -1.
         21   -1    0    0  501  503 -0.00000000000E+00 -0.00000000000E+00 -0.34249872414E+03  0.34249872414E+03  0.00000000000E+00 0.  1.
          6    2    1    2  501    0  0.13527984307E+02 -0.14162354791E+03 -0.19367519538E+03  0.29637106244E+03  0.17345169259E+03 0.  0.
         24    2    3    3    0    0  0.74687861168E+02 -0.11128514720E+03 -0.13951203912E+03  0.20909743187E+03  0.79343974974E+02 0.  0.
         -6    2    1    2    0  502 -0.13527984307E+02  0.14162354791E+03  0.31247987774E+02  0.22619917824E+03  0.17305893740E+03 0.  0.
        -24    2    5    5    0    0  0.33877146615E+02  0.23258679456E+02  0.38892015587E+02  0.98378954158E+02  0.80481069277E+02 0.  0.
          5    1    3    3  501    0 -0.61159876861E+02 -0.30338400716E+02 -0.54163156263E+02  0.87273630565E+02  0.47000000000E+01 0. -1.
        -13    1    4    4    0    0  0.27261812003E+02 -0.11149278264E+02 -0.75719595640E+02  0.81246353539E+02  0.00000000000E+00 0.  1.
         14    1    4    4    0    0  0.47426049165E+02 -0.10013586893E+03 -0.63792443478E+02  0.12785107833E+03  0.00000000000E+00 0. -1.
         -5    1    5    5    0  502 -0.47405130922E+02  0.11836486846E+03 -0.76440278132E+01  0.12782022408E+03  0.47000000000E+01 0.  1.
         11    1    6    6    0    0  0.11698250398E+02  0.52296433102E+02  0.26602972050E+02  0.59828789888E+02  0.00000000000E+00 0. -1.
        -12    1    6    6    0    0  0.22178896217E+02 -0.29037753646E+02  0.12289043537E+02  0.38550164270E+02  0.00000000000E+00 0.  1.
<mgrwt>
<rscale>  2 0.22425804E+03</rscale>
<asrwt>0</asrwt>
<pdfrwt beam="1">  1       21 0.27703310E-01 0.22433396E+03</pdfrwt>
<pdfrwt beam="2">  1       21 0.52692111E-01 0.22433396E+03</pdfrwt>
<totfact> 0.41807133E+04</totfact>
</mgrwt>
</event>
<event>
12    1  0.1029207E-001  0.2018089E+03  0.7546771E-02  0.1148432E+00
         21   -1    0    0  503  502  0.00000000000E+00  0.00000000000E+00  0.63529450062E+02  0.63529450062E+02  0.00000000000E+00 0.  1.
         21   -1    0    0  501  503 -0.00000000000E+00 -0.00000000000E+00 -0.96863143451E+03  0.96863143451E+03  0.00000000000E+00 0.  1.
          6    2    1    2  501    0  0.91900030290E+02  0.47711401796E+02 -0.75486202200E+03  0.78137283104E+03  0.17321903879E+03 0.  0.
         24    2    3    3    0    0  0.12933845184E+03  0.54932253943E+02 -0.62386278417E+03  0.64485665461E+03  0.83002071509E+02 0.  0.
         -6    2    1    2    0  502 -0.91900030290E+02 -0.47711401796E+02 -0.15023996245E+03  0.25078805353E+03  0.17204827244E+03 0.  0.
        -24    2    5    5    0    0 -0.10124306934E+03  0.19019765152E+02 -0.11672645523E+03  0.17538522741E+03  0.80765104392E+02 0.  0.
          5    1    3    3  501    0 -0.37438421555E+02 -0.72208521474E+01 -0.13099923783E+03  0.13651617643E+03  0.47000000000E+01 0. -1.
        -11    1    4    4    0    0  0.91734451369E+02  0.22997499401E+02 -0.24204977974E+03  0.25986956424E+03  0.00000000000E+00 0.  1.
         12    1    4    4    0    0  0.37604000476E+02  0.31934754542E+02 -0.38181300443E+03  0.38498709037E+03  0.00000000000E+00 0. -1.
         -5    1    5    5    0  502  0.93430390540E+01 -0.66731166948E+02 -0.33513507215E+02  0.75402826120E+02  0.47000000000E+01 0.  1.
         13    1    6    6    0    0  0.21077760732E+01  0.70470535881E+01  0.93668009315E+01  0.11909686979E+02  0.00000000000E+00 0. -1.
        -14    1    6    6    0    0 -0.10335084542E+03  0.11972711564E+02 -0.12609325616E+03  0.16347554044E+03  0.00000000000E+00 0.  1.
<mgrwt>
<rscale>  2 0.20155742E+03</rscale>
<asrwt>0</asrwt>
<pdfrwt beam="1">  1       21 0.97737615E-02 0.20180889E+03</pdfrwt>
<pdfrwt beam="2">  1       21 0.14902022E+00 0.20180889E+03</pdfrwt>
<totfact> 0.25541904E+04</totfact>
</mgrwt>
</event>
<event>
12    1  0.1029207E-001  0.1878837E+03  0.7546771E-02  0.1160427E+00
         21   -1    0    0  501  502  0.00000000000E+00  0.00000000000E+00  0.54479100667E+02  0.54479100667E+02  0.00000000000E+00 0. -1.
         21   -1    0    0  502  503 -0.00000000000E+00 -0.00000000000E+00 -0.81220841999E+03  0.81220841999E+03  0.00000000000E+00 0. -1.
         -6    2    1    2    0  503  0.45674820086E+02  0.58200767520E+02 -0.57397086985E+03  0.60388061689E+03  0.17249846805E+03 0.  0.
        -24    2    3    3    0    0  0.69526424904E+02  0.78902288360E+02 -0.23623538041E+03  0.26463910579E+03  0.56277939635E+02 0.  0.
          6    2    1    2  501    0 -0.45674820086E+02 -0.58200767520E+02 -0.18375844947E+03  0.26280690377E+03  0.17270432070E+03 0.  0.
         24    2    5    5    0    0  0.20379094573E+02 -0.28665716147E+02 -0.16586787367E+03  0.18812356156E+03  0.81494123217E+02 0.  0.
          5    1    5    5  501    0 -0.66053914659E+02 -0.29535051373E+02 -0.17890575791E+02  0.74683342209E+02  0.47000000000E+01 0. -1.
        -11    1    6    6    0    0  0.33366891334E+02 -0.49953656674E+02 -0.89533200124E+02  0.10781888136E+03  0.00000000000E+00 0.  1.
         12    1    6    6    0    0 -0.12987796761E+02  0.21287940527E+02 -0.76334673551E+02  0.80304680204E+02  0.00000000000E+00 0. -1.
         -5    1    3    3    0  503 -0.23851604818E+02 -0.20701520840E+02 -0.33773548945E+03  0.33924151109E+03  0.47000000000E+01 0.  1.
         13    1    4    4    0    0  0.65689338926E+02  0.79051601613E+02 -0.23882796826E+03  0.26000585261E+03  0.00000000000E+00 0. -1.
        -14    1    4    4    0    0  0.38370859777E+01 -0.14931325261E+00  0.25925878571E+01  0.46332531816E+01  0.00000000000E+00 0.  1.
<mgrwt>
<rscale>  2 0.18783642E+03</rscale>
<asrwt>0</asrwt>
<pdfrwt beam="1">  1       21 0.83814002E-02 0.18788374E+03</pdfrwt>
<pdfrwt beam="2">  1       21 0.12495514E+00 0.18788374E+03</pdfrwt>
<totfact> 0.52957630E+04</totfact>
</mgrwt>
</event>
<event>
12    1  0.1029207E-001  0.3851689E+03  0.7546771E-02  0.1049147E+00
         21   -1    0    0  503  502  0.00000000000E+00  0.00000000000E+00  0.18852349851E+04  0.18852349851E+04  0.00000000000E+00 0. -1.
         21   -1    0    0  501  503 -0.00000000000E+00 -0.00000000000E+00 -0.94869943857E+02  0.94869943857E+02  0.00000000000E+00 0. -1.
          6    2    1    2  501    0 -0.23803118137E+03  0.24725341927E+03  0.48217900851E+03  0.61639464248E+03  0.17219948429E+03 0.  0.
         24    2    3    3    0    0 -0.55933071476E+02  0.13760504574E+03  0.17328474831E+03  0.24140098730E+03  0.78633170958E+02 0.  0.
         -6    2    1    2    0  502  0.23803118137E+03 -0.24725341927E+03  0.13081860327E+04  0.13637102865E+04  0.17481977162E+03 0.  0.
        -24    2    5    5    0    0  0.12397790084E+03 -0.18679920392E+03  0.62172000003E+03  0.66519717492E+03  0.75412602430E+02 0.  0.
          5    1    3    3  501    0 -0.18209810989E+03  0.10964837354E+03  0.30889426020E+03  0.37499365519E+03  0.47000000000E+01 0. -1.
        -11    1    4    4    0    0 -0.36261033471E+02  0.14218937584E+03  0.14224847280E+03  0.20437051931E+03  0.00000000000E+00 0.  1.
         12    1    4    4    0    0 -0.19672038005E+02 -0.45843301030E+01  0.31036275508E+02  0.37030467985E+02  0.00000000000E+00 0. -1.
         -5    1    5    5    0  502  0.11405328053E+03 -0.60454215353E+02  0.68646603269E+03  0.69851311154E+03  0.47000000000E+01 0.  1.
         13    1    6    6    0    0  0.90931725362E+02 -0.12884968630E+03  0.32727974808E+03  0.36329444510E+03  0.00000000000E+00 0. -1.
        -14    1    6    6    0    0  0.33046175479E+02 -0.57949517621E+02  0.29444025195E+03  0.30190272982E+03  0.00000000000E+00 0.  1.
<mgrwt>
<rscale>  2 0.38487297E+03</rscale>
<asrwt>0</asrwt>
<pdfrwt beam="1">  1       21 0.29003612E+00 0.38516886E+03</pdfrwt>
<pdfrwt beam="2">  1       21 0.14595377E-01 0.38516886E+03</pdfrwt>
<totfact> 0.13564317E+03</totfact>
</mgrwt>
</event>
<event>
12    1  0.1029207E-001  0.1742354E+03  0.7546771E-02  0.1174389E+00
         21   -1    0    0  503  502  0.00000000000E+00  0.00000000000E+00  0.56639628293E+03  0.56639628293E+03  0.00000000000E+00 0. -1.
         21   -1    0    0  501  503 -0.00000000000E+00 -0.00000000000E+00 -0.61299564647E+02  0.61299564647E+02  0.00000000000E+00 0. -1.
          6    2    1    2  501    0  0.32745556381E+02  0.17096154385E+01  0.36904205171E+03  0.40663285868E+03  0.16757998562E+03 0.  0.
         24    2    3    3    0    0  0.74738674845E+02 -0.19548465501E+02  0.18068364386E+03  0.21242599008E+03  0.80685872880E+02 0.  0.
         -6    2    1    2    0  502 -0.32745556381E+02 -0.17096154385E+01  0.13605466657E+03  0.22106298890E+03  0.17112211580E+03 0.  0.
        -24    2    5    5    0    0  0.38602576085E+02  0.34098669204E+02  0.77578880300E+02  0.12199585592E+03  0.78813882479E+02 0.  0.
          5    1    3    3  501    0 -0.41993118464E+02  0.21258080940E+02  0.18835840785E+03  0.19420686860E+03  0.47000000000E+01 0. -1.
        -13    1    4    4    0    0  0.63512345726E+01 -0.20668164966E+02  0.27459556038E+01  0.21795676081E+02  0.00000000000E+00 0.  1.
         14    1    4    4    0    0  0.68387440273E+02  0.11196994649E+01  0.17793768825E+03  0.19063031400E+03  0.00000000000E+00 0. -1.
         -5    1    5    5    0  502 -0.71348132466E+02 -0.35808284642E+02  0.58475786273E+02  0.99067132974E+02  0.47000000000E+01 0.  1.
         11    1    6    6    0    0  0.88666935431E+01  0.40155079466E+01 -0.16324021760E+02  0.19005689803E+02  0.00000000000E+00 0. -1.
        -12    1    6    6    0    0  0.29735882542E+02  0.30083161257E+02  0.93902902060E+02  0.10299016612E+03  0.00000000000E+00 0.  1.
<mgrwt>
<rscale>  2 0.17335943E+03</rscale>
<asrwt>0</asrwt>
<pdfrwt beam="1">  1       21 0.87137886E-01 0.17423539E+03</pdfrwt>
<pdfrwt beam="2">  1       21 0.94307026E-02 0.17423539E+03</pdfrwt>
<totfact> 0.10260276E+05</totfact>
</mgrwt>
</event>
<event>
12    1  0.1029207E-001  0.1967690E+03  0.7546771E-02  0.1156431E+00
         21   -1    0    0  503  502  0.00000000000E+00  0.00000000000E+00  0.90266354689E+02  0.90266354689E+02  0.00000000000E+00 0. -1.
         21   -1    0    0  501  503 -0.00000000000E+00 -0.00000000000E+00 -0.47827462848E+03  0.47827462848E+03  0.00000000000E+00 0. -1.
          6    2    1    2  501    0 -0.36831887135E+02 -0.24907081992E+02 -0.32208599633E+03  0.37743531618E+03  0.19167962391E+03 0.  0.
         24    2    3    3    0    0 -0.29034821194E+02 -0.90282780936E+02 -0.15549150540E+03  0.19824103430E+03  0.78280892005E+02 0.  0.
         -6    2    1    2    0  502  0.36831887135E+02  0.24907081992E+02 -0.65922277462E+02  0.19110566699E+03  0.17377767016E+03 0.  0.
        -24    2    5    5    0    0  0.43986485025E+02 -0.37740850345E+02 -0.80077173432E+02  0.12631058402E+03  0.78630956258E+02 0.  0.
          5    1    3    3  501    0 -0.77970659411E+01  0.65375698943E+02 -0.16659449093E+03  0.17919428188E+03  0.47000000000E+01 0. -1.
        -13    1    4    4    0    0 -0.48978949397E+02 -0.30969337676E+02 -0.94534446625E+02  0.11088191448E+03  0.00000000000E+00 0.  1.
         14    1    4    4    0    0  0.19944128203E+02 -0.59313443259E+02 -0.60957058779E+02  0.87359119822E+02  0.00000000000E+00 0. -1.
         -5    1    5    5    0  502 -0.71545978898E+01  0.62647932337E+02  0.14154895970E+02  0.64795082969E+02  0.47000000000E+01 0.  1.
         11    1    6    6    0    0  0.16608432021E+02 -0.59135473176E+02 -0.40149767431E+02  0.73381523742E+02  0.00000000000E+00 0. -1.
        -12    1    6    6    0    0  0.27378053004E+02  0.21394622831E+02 -0.39927406001E+02  0.52929060282E+02  0.00000000000E+00 0.  1.
<mgrwt>
<rscale>  2 0.19226859E+03</rscale>
<asrwt>0</asrwt>
<pdfrwt beam="1">  1       21 0.13887131E-01 0.19676897E+03</pdfrwt>
<pdfrwt beam="2">  1       21 0.73580713E-01 0.19676897E+03</pdfrwt>
<totfact> 0.74722236E+04</totfact>
</mgrwt>
</event>
<event>
12    1  0.1029207E-001  0.1946672E+03  0.7546771E-02  0.1154440E+00
         21   -1    0    0  501  502  0.00000000000E+00  0.00000000000E+00  0.28123753558E+03  0.28123753558E+03  0.00000000000E+00 0. -1.
         21   -1    0    0  502  503 -0.00000000000E+00 -0.00000000000E+00 -0.77775243055E+03  0.77775243055E+03  0.00000000000E+00 0. -1.
         -6    2    1    2    0  503  0.23111018396E+02 -0.84962125007E+02 -0.72978802648E+03  0.75516162042E+03  0.17299083072E+03 0.  0.
        -24    2    3    3    0    0  0.64923141078E+02 -0.46496242529E+02 -0.63356427070E+03  0.64331807392E+03  0.77958606395E+02 0.  0.
          6    2    1    2  501    0 -0.23111018396E+02  0.84962125007E+02  0.23327313151E+03  0.30382834571E+03  0.17361632388E+03 0.  0.
         24    2    5    5    0    0  0.26009316909E+02  0.60678875204E+01  0.77797598967E+02  0.12263276280E+03  0.90956166810E+02 0.  0.
          5    1    5    5  501    0 -0.49120335305E+02  0.78894237487E+02  0.15547553254E+03  0.18119558292E+03  0.47000000000E+01 0. -1.
        -11    1    6    6    0    0  0.39294928678E+02  0.55544940688E+01  0.93786956036E+02  0.10183779724E+03  0.00000000000E+00 0.  1.
         12    1    6    6    0    0 -0.13285611769E+02  0.51339345157E+00 -0.15989357070E+02  0.20794965555E+02  0.00000000000E+00 0. -1.
         -5    1    3    3    0  503 -0.41812122682E+02 -0.38465882478E+02 -0.96223755783E+02  0.11184354651E+03  0.47000000000E+01 0.  1.
         13    1    4    4    0    0 -0.71430474765E+01  0.65013793960E+01 -0.21896654503E+03  0.21917946735E+03  0.00000000000E+00 0. -1.
        -14    1    4    4    0    0  0.72066188554E+02 -0.52997621925E+02 -0.41459772566E+03  0.42413860657E+03  0.00000000000E+00 0.  1.
<mgrwt>
<rscale>  2 0.19452762E+03</rscale>
<asrwt>0</asrwt>
<pdfrwt beam="1">  1       21 0.43267313E-01 0.19466718E+03</pdfrwt>
<pdfrwt beam="2">  1       21 0.11965422E+00 0.19466718E+03</pdfrwt>
<totfact> 0.27267316E+03</totfact>
</mgrwt>
</event>
<event>
12    1  0.1029207E-001  0.1877989E+03  0.7546771E-02  0.1160517E+00
         21   -1    0    0  503  502  0.00000000000E+00  0.00000000000E+00  0.81347982080E+03  0.81347982080E+03  0.00000000000E+00 0. -1.
         21   -1    0    0  501  503 -0.00000000000E+00 -0.00000000000E+00 -0.87677602234E+02  0.87677602234E+02  0.00000000000E+00 0. -1.
          6    2    1    2  501    0 -0.67877361743E+02 -0.23721187111E+02  0.42454771994E+02  0.19253786132E+03  0.17348887406E+03 0.  0.
         24    2    3    3    0    0 -0.69578555577E+02 -0.77689810709E+02  0.43869218835E+02  0.13831981033E+03  0.79567452414E+02 0.  0.
         -6    2    1    2    0  502  0.67877361743E+02  0.23721187111E+02  0.68334744657E+03  0.70861956171E+03  0.17322794102E+03 0.  0.
        -24    2    5    5    0    0 -0.80333136015E+01 -0.29263469310E+02  0.43491649966E+03  0.44345955373E+03  0.81136485990E+02 0.  0.
          5    1    3    3  501    0  0.17011938342E+01  0.53968623599E+02 -0.14144468414E+01  0.54218050993E+02  0.47000000000E+01 0. -1.
        -13    1    4    4    0    0  0.15818290204E+02 -0.24152885952E+02  0.12800374846E+01  0.28900150532E+02  0.00000000000E+00 0.  1.
         14    1    4    4    0    0 -0.85396845781E+02 -0.53536924757E+02  0.42589181351E+02  0.10941965980E+03  0.00000000000E+00 0. -1.
         -5    1    5    5    0  502  0.75910675345E+02  0.52984656420E+02  0.24843094691E+03  0.26516000798E+03  0.47000000000E+01 0.  1.
         13    1    6    6    0    0 -0.39579996211E+01 -0.17453100800E+02  0.42944922548E+03  0.42982195588E+03  0.00000000000E+00 0. -1.
        -14    1    6    6    0    0 -0.40753139805E+01 -0.11810368510E+02  0.54672741800E+01  0.13637597858E+02  0.00000000000E+00 0.  1.
<mgrwt>
<rscale>  2 0.18773860E+03</rscale>
<asrwt>0</asrwt>
<pdfrwt beam="1">  1       21 0.12515074E+00 0.18779888E+03</pdfrwt>
<pdfrwt beam="2">  1       21 0.13488862E-01 0.18779888E+03</pdfrwt>
<totfact> 0.22686231E+04</totfact>
</mgrwt>
</event>
<event>
12    1  0.1029207E-001  0.1815007E+03  0.7546771E-02  0.1166566E+00
         21   -1    0    0  503  502  0.00000000000E+00  0.00000000000E+00  0.35292256680E+03  0.35292256680E+03  0.00000000000E+00 0.  1.
         21   -1    0    0  501  503 -0.00000000000E+00 -0.00000000000E+00 -0.11059423874E+03  0.11059423874E+03  0.00000000000E+00 0.  1.
          6    2    1    2  501    0 -0.35504238002E+02  0.36940639646E+02  0.28699508432E+02  0.18375574750E+03  0.17411878468E+03 0.  0.
         24    2    3    3    0    0 -0.40451088730E+02 -0.12706392975E+02  0.73183806540E+02  0.11674647979E+03  0.80474393454E+02 0.  0.
         -6    2    1    2    0  502  0.35504238002E+02 -0.36940639646E+02  0.21362881963E+03  0.27976105805E+03  0.17321609409E+03 0.  0.
        -24    2    5    5    0    0 -0.17182804614E+02  0.29406823221E+02  0.15074754637E+03  0.17414829928E+03  0.80267037938E+02 0.  0.
          5    1    3    3  501    0  0.49468507278E+01  0.49647032621E+02 -0.44484298108E+02  0.67009267705E+02  0.47000000000E+01 0. -1.
        -11    1    4    4    0    0 -0.37554332637E+02 -0.13667306940E+00 -0.46587173245E+01  0.37842439488E+02  0.00000000000E+00 0.  1.
         12    1    4    4    0    0 -0.28967560936E+01 -0.12569719906E+02  0.77842523865E+02  0.78904040302E+02  0.00000000000E+00 0. -1.
         -5    1    5    5    0  502  0.52687042617E+02 -0.66347462866E+02  0.62881273261E+02  0.10561275877E+03  0.47000000000E+01 0.  1.
         11    1    6    6    0    0  0.10332433240E+02 -0.10199614310E+02 -0.13566230878E+01  0.14581897508E+02  0.00000000000E+00 0. -1.
        -12    1    6    6    0    0 -0.27515237855E+02  0.39606437531E+02  0.15210416945E+03  0.15956640177E+03  0.00000000000E+00 0.  1.
<mgrwt>
<rscale>  2 0.18128389E+03</rscale>
<asrwt>0</asrwt>
<pdfrwt beam="1">  1       21 0.54295779E-01 0.18150072E+03</pdfrwt>
<pdfrwt beam="2">  1       21 0.17014498E-01 0.18150072E+03</pdfrwt>
<totfact> 0.10026218E+05</totfact>
</mgrwt>
</event>
<event>
12    1  0.1029207E-001  0.2034819E+03  0.7546771E-02  0.1147901E+00
         21   -1    0    0  503  502  0.00000000000E+00  0.00000000000E+00  0.12422972262E+04  0.12422972262E+04  0.00000000000E+00 0. -1.
         21   -1    0    0  501  503 -0.00000000000E+00 -0.00000000000E+00 -0.96763658360E+02  0.96763658360E+02  0.00000000000E+00 0. -1.
          6    2    1    2  501    0 -0.46890089529E+02 -0.91069201777E+02  0.24704361561E+02  0.19991076274E+03  0.16988739674E+03 0.  0.
         24    2    3    3    0    0 -0.93575442702E+02 -0.36557367610E+02  0.11847651002E+02  0.12684608405E+03  0.76529455774E+02 0.  0.
         -6    2    1    2    0  502  0.46890089529E+02  0.91069201777E+02  0.11208292063E+04  0.11391501218E+04  0.17581982366E+03 0.  0.
        -24    2    5    5    0    0  0.80789657538E+02  0.89581152449E+02  0.10546689719E+04  0.10646473594E+04  0.81213347743E+02 0.  0.
          5    1    3    3  501    0  0.46685353173E+02 -0.54511834167E+02  0.12856710559E+02  0.73064678686E+02  0.47000000000E+01 0. -1.
        -11    1    4    4    0    0  0.65828561117E+01  0.12416585638E+02  0.57638269258E+01  0.15189710146E+02  0.00000000000E+00 0.  1.
         12    1    4    4    0    0 -0.10015829881E+03 -0.48973953248E+02  0.60838240760E+01  0.11165637390E+03  0.00000000000E+00 0. -1.
         -5    1    5    5    0  502 -0.33899568009E+02  0.14880493285E+01  0.66160234347E+02  0.74502762438E+02  0.47000000000E+01 0.  1.
         11    1    6    6    0    0  0.19227283328E+02  0.57905288738E+02  0.73700874862E+03  0.73952999022E+03  0.00000000000E+00 0. -1.
        -12    1    6    6    0    0  0.61562374210E+02  0.31675863711E+02  0.31766022328E+03  0.32511736914E+03  0.00000000000E+00 0.  1.
<mgrwt>
<rscale>  2 0.20219387E+03</rscale>
<asrwt>0</asrwt>
<pdfrwt beam="1">  1       21 0.19112264E+00 0.20348192E+03</pdfrwt>
<pdfrwt beam="2">  1       21 0.14886718E-01 0.20348192E+03</pdfrwt>
<totfact> 0.60411628E+03</totfact>
</mgrwt>
</event>
<event>
12    1  0.1029207E-001  0.2021180E+03  0.7546771E-02  0.1148149E+00
         21   -1    0    0  501  502  0.00000000000E+00  0.00000000000E+00  0.34534718693E+03  0.34534718693E+03  0.00000000000E+00 0. -1.
         21   -1    0    0  502  503 -0.00000000000E+00 -0.00000000000E+00 -0.20750958982E+03  0.20750958982E+03  0.00000000000E+00 0. -1.
         -6    2    1    2    0  503  0.20756719326E+02  0.10154570888E+03 -0.11294577657E+03  0.23076365671E+03  0.17248983861E+03 0.  0.
        -24    2    3    3    0    0  0.53730231950E+02  0.78740237993E+02 -0.17241017860E+02  0.12689435000E+03  0.81963165268E+02 0.  0.
          6    2    1    2  501    0 -0.20756719326E+02 -0.10154570888E+03  0.25078337368E+03  0.32209312004E+03  0.17352033043E+03 0.  0.
         24    2    5    5    0    0 -0.56947089753E+02 -0.10556662947E+03  0.24584580963E+03  0.28504746911E+03  0.80153685160E+02 0.  0.
          5    1    5    5  501    0  0.36190370427E+02  0.40209205965E+01  0.49375640581E+01  0.37045650931E+02  0.47000000000E+01 0. -1.
        -13    1    6    6    0    0 -0.13313246030E+02 -0.14886155931E+02  0.13030664090E+03  0.13182814882E+03  0.00000000000E+00 0.  1.
         14    1    6    6    0    0 -0.43633843724E+02 -0.90680473541E+02  0.11553916872E+03  0.15321932029E+03  0.00000000000E+00 0. -1.
         -5    1    3    3    0  503 -0.32973512623E+02  0.22805470883E+02 -0.95704758708E+02  0.10386930671E+03  0.47000000000E+01 0.  1.
         13    1    4    4    0    0 -0.10268986143E+02  0.16727641478E+02 -0.31032131657E+02  0.36718650043E+02  0.00000000000E+00 0. -1.
        -14    1    4    4    0    0  0.63999218093E+02  0.62012596515E+02  0.13791113797E+02  0.90175699957E+02  0.00000000000E+00 0.  1.
<mgrwt>
<rscale>  2 0.20189662E+03</rscale>
<asrwt>0</asrwt>
<pdfrwt beam="1">  1       21 0.53130336E-01 0.20211798E+03</pdfrwt>
<pdfrwt beam="2">  1       21 0.31924552E-01 0.20211798E+03</pdfrwt>
<totfact> 0.31497124E+04</totfact>
</mgrwt>
</event>
<event>
12    1  0.1029207E-001  0.2380686E+03  0.7546771E-02  0.1121370E+00
         21   -1    0    0  501  502  0.00000000000E+00  0.00000000000E+00  0.20136588158E+04  0.20136588158E+04  0.00000000000E+00 0. -1.
         21   -1    0    0  502  503 -0.00000000000E+00 -0.00000000000E+00 -0.29009854586E+02  0.29009854586E+02  0.00000000000E+00 0. -1.
         -6    2    1    2    0  503 -0.14391635824E+03 -0.73901957510E+02  0.79354002681E+03  0.82800116270E+03  0.17235641500E+03 0.  0.
        -24    2    3    3    0    0 -0.57444021565E+02 -0.10394640643E+03  0.32935397077E+03  0.35485116688E+03  0.57798283305E+02 0.  0.
          6    2    1    2  501    0  0.14391635824E+03  0.73901957510E+02  0.11911089344E+04  0.12146675077E+04  0.17465177675E+03 0.  0.
         24    2    5    5    0    0  0.16032768278E+03  0.69373015620E+02  0.79124298426E+03  0.81441170077E+03  0.81751923791E+02 0.  0.
          5    1    5    5  501    0 -0.16411324544E+02  0.45289418905E+01  0.39986595017E+03  0.40025580695E+03  0.47000000000E+01 0. -1.
        -13    1    6    6    0    0  0.32720574745E+02  0.84536023554E+01  0.53796215170E+02  0.63530560922E+02  0.00000000000E+00 0.  1.
         14    1    6    6    0    0  0.12760710804E+03  0.60919413264E+02  0.73744676909E+03  0.75088113984E+03  0.00000000000E+00 0. -1.
         -5    1    3    3    0  503 -0.86472336673E+02  0.30044448917E+02  0.46418605604E+03  0.47314999581E+03  0.47000000000E+01 0.  1.
         13    1    4    4    0    0 -0.47908846150E+02 -0.97458753133E+02  0.32476129606E+03  0.34243738920E+03  0.00000000000E+00 0. -1.
        -14    1    4    4    0    0 -0.95351754146E+01 -0.64876532935E+01  0.45926747121E+01  0.12413777687E+02  0.00000000000E+00 0.  1.
<mgrwt>
<rscale>  2 0.23764780E+03</rscale>
<asrwt>0</asrwt>
<pdfrwt beam="1">  1       21 0.30979355E+00 0.23806860E+03</pdfrwt>
<pdfrwt beam="2">  1       21 0.44630561E-02 0.23806860E+03</pdfrwt>
<totfact> 0.93325460E+03</totfact>
</mgrwt>
</event>
<event>
12    1  0.1029207E-001  0.2366248E+03  0.7546771E-02  0.1122136E+00
         21   -1    0    0  503  502  0.00000000000E+00  0.00000000000E+00  0.34972067289E+03  0.34972067289E+03  0.00000000000E+00 0.  1.
         21   -1    0    0  501  503 -0.00000000000E+00 -0.00000000000E+00 -0.41227521772E+03  0.41227521772E+03  0.00000000000E+00 0. -1.
          6    2    1    2  501    0  0.16117594234E+03 -0.86451463423E+01 -0.32943518706E+03  0.40560920170E+03  0.17302849212E+03 0.  0.
         24    2    3    3    0    0  0.14246223327E+03  0.25420656090E+02 -0.15364436835E+03  0.22551149559E+03  0.79417536179E+02 0.  0.
         -6    2    1    2    0  502 -0.16117594234E+03  0.86451463423E+01  0.26688064222E+03  0.35638668892E+03  0.17243483378E+03 0.  0.
        -24    2    5    5    0    0 -0.86003063135E+02  0.16269568788E+02  0.53977900773E+02  0.13042483174E+03  0.80223420671E+02 0.  0.
          5    1    3    3  501    0  0.18713709068E+02 -0.34065802432E+02 -0.17579081871E+03  0.18009770611E+03  0.47000000000E+01 0. -1.
        -13    1    4    4    0    0  0.11786652013E+03 -0.76011277061E+00 -0.76789205329E+02  0.14067578468E+03  0.00000000000E+00 0.  1.
         14    1    4    4    0    0  0.24595713136E+02  0.26180768861E+02 -0.76855163020E+02  0.84835710910E+02  0.00000000000E+00 0. -1.
         -5    1    5    5    0  502 -0.75172879202E+02 -0.76244224458E+01  0.21290274145E+03  0.22596185718E+03  0.47000000000E+01 0.  1.
         13    1    6    6    0    0  0.80891938827E+01  0.15497359634E+02  0.27654784011E+02  0.32716819711E+02  0.00000000000E+00 0. -1.
        -14    1    6    6    0    0 -0.94092257018E+02  0.77220915406E+00  0.26323116762E+02  0.97708012024E+02  0.00000000000E+00 0.  1.
<mgrwt>
<rscale>  2 0.23651626E+03</rscale>
<asrwt>0</asrwt>
<pdfrwt beam="1">  1       21 0.53803180E-01 0.23662477E+03</pdfrwt>
<pdfrwt beam="2">  1       21 0.63426957E-01 0.23662477E+03</pdfrwt>
<totfact> 0.72895486E+03</totfact>
</mgrwt>
</event>
<event>
12    1  0.1029207E-001  0.2114660E+03  0.7546771E-02  0.1140787E+00
         21   -1    0    0  503  502  0.00000000000E+00  0.00000000000E+00  0.31173421885E+03  0.31173421885E+03  0.00000000000E+00 0.  1.
         21   -1    0    0  501  503 -0.00000000000E+00 -0.00000000000E+00 -0.16358953666E+03  0.16358953666E+03  0.00000000000E+00 0. -1.
          6    2    1    2  501    0  0.38618273516E+02  0.11599220368E+03 -0.12245732963E+02  0.20991287236E+03  0.17019957004E+03 0.  0.
         24    2    3    3    0    0  0.22893512952E+02  0.12078228329E+03  0.42447056163E+02  0.15261013124E+03  0.79847521500E+02 0.  0.
         -6    2    1    2    0  502 -0.38618273516E+02 -0.11599220368E+03  0.16039041516E+03  0.26541088315E+03  0.17254648433E+03 0.  0.
        -24    2    5    5    0    0 -0.54748103927E+02 -0.14325100412E+03  0.15595327249E+03  0.23308454922E+03  0.80552956622E+02 0.  0.
          5    1    3    3  501    0  0.15724760565E+02 -0.47900796043E+01 -0.54692789126E+02  0.57302741120E+02  0.47000000000E+01 0. -1.
        -13    1    4    4    0    0  0.38935878960E+01  0.11263166146E+03  0.87007010088E+01  0.11303430182E+03  0.00000000000E+00 0.  1.
         14    1    4    4    0    0  0.18999925056E+02  0.81506218281E+01  0.33746355154E+02  0.39575829423E+02  0.00000000000E+00 0. -1.
         -5    1    5    5    0  502  0.16129830410E+02  0.27258800433E+02  0.44371426662E+01  0.32326333927E+02  0.47000000000E+01 0.  1.
         11    1    6    6    0    0 -0.28928356232E+02 -0.31838099948E+02  0.44291784115E+01  0.43245023112E+02  0.00000000000E+00 0. -1.
        -12    1    6    6    0    0 -0.25819747695E+02 -0.11141290417E+03  0.15152409408E+03  0.18983952611E+03  0.00000000000E+00 0.  1.
<mgrwt>
<rscale>  2 0.21098669E+03</rscale>
<asrwt>0</asrwt>
<pdfrwt beam="1">  1       21 0.47959111E-01 0.21146596E+03</pdfrwt>
<pdfrwt beam="2">  1       21 0.25167621E-01 0.21146596E+03</pdfrwt>
<totfact> 0.61607727E+04</totfact>
</mgrwt>
</event>
<event>
12    1  0.1029207E-001  0.2710567E+03  0.7546771E-02  0.1100725E+00
         21   -1    0    0  503  502  0.00000000000E+00  0.00000000000E+00  0.10075550733E+04  0.10075550733E+04  0.00000000000E+00 0. -1.
         21   -1    0    0  501  503 -0.00000000000E+00 -0.00000000000E+00 -0.14727776474E+03  0.14727776474E+03  0.00000000000E+00 0.  1.
          6    2    1    2  501    0 -0.19254851284E+03 -0.77664580191E+02  0.19737385590E+02  0.27177430608E+03  0.17425553719E+03 0.  0.
         24    2    3    3    0    0 -0.13093832634E+03  0.18745770954E+01  0.57336085469E+02  0.16426595824E+03  0.80916741135E+02 0.  0.
         -6    2    1    2    0  502  0.19254851284E+03  0.77664580191E+02  0.84053992301E+03  0.88305853200E+03  0.17371900286E+03 0.  0.
        -24    2    5    5    0    0  0.19521357145E+03  0.10043758595E+03  0.81549958726E+03  0.84878287383E+03  0.84833619140E+02 0.  0.
          5    1    3    3  501    0 -0.61610186496E+02 -0.79539157287E+02 -0.37598699878E+02  0.10750834784E+03  0.47000000000E+01 0. -1.
        -13    1    4    4    0    0 -0.28853558569E+02  0.33595571918E+01 -0.20778362432E+02  0.35714910219E+02  0.00000000000E+00 0.  1.
         14    1    4    4    0    0 -0.10208476777E+03 -0.14849800963E+01  0.78114447900E+02  0.12855104802E+03  0.00000000000E+00 0. -1.
         -5    1    5    5    0  502 -0.26650586128E+01 -0.22773005757E+02  0.25040335749E+02  0.34275658171E+02  0.47000000000E+01 0.  1.
         11    1    6    6    0    0 -0.52476544673E+01  0.58328878198E+01  0.85807779964E+02  0.86165744702E+02  0.00000000000E+00 0. -1.
        -12    1    6    6    0    0  0.20046122592E+03  0.94604698129E+02  0.72969180729E+03  0.76261712912E+03  0.00000000000E+00 0.  1.
<mgrwt>
<rscale>  2 0.27097046E+03</rscale>
<asrwt>0</asrwt>
<pdfrwt beam="1">  1       21 0.15500847E+00 0.27105665E+03</pdfrwt>
<pdfrwt beam="2">  1       21 0.22658118E-01 0.27105665E+03</pdfrwt>
<totfact> 0.47231164E+03</totfact>
</mgrwt>
</event>
<event>
12    1  0.1029207E-001  0.1814230E+03  0.7546771E-02  0.1167654E+00
         21   -1    0    0  503  502  0.00000000000E+00  0.00000000000E+00  0.18718584800E+02  0.18718584800E+02  0.00000000000E+00 0. -1.
         21   -1    0    0  501  503 -0.00000000000E+00 -0.00000000000E+00 -0.28516034030E+04  0.28516034030E+04  0.00000000000E+00 0. -1.
          6    2    1    2  501    0  0.52009512597E+02  0.92655236423E-01 -0.23363483911E+04  0.23433817663E+04  0.17380822793E+03 0.  0.
         24    2    3    3    0    0  0.87690719484E+02  0.42038091822E+02 -0.16065350363E+04  0.16114786368E+04  0.80322540328E+02 0.  0.
         -6    2    1    2    0  502 -0.52009512597E+02 -0.92655236423E-01 -0.49653642708E+03  0.52694022147E+03  0.16856030256E+03 0.  0.
        -24    2    5    5    0    0  0.10814038413E+02  0.44830424481E+02 -0.18790379789E+03  0.20875620011E+03  0.78387520904E+02 0.  0.
          5    1    3    3  501    0 -0.35681206887E+02 -0.41945436586E+02 -0.72981335481E+03  0.73190312954E+03  0.47000000000E+01 0. -1.
        -13    1    4    4    0    0  0.64132741593E+02 -0.12880296638E+02 -0.73999680506E+03  0.74288234741E+03  0.00000000000E+00 0.  1.
         14    1    4    4    0    0  0.23557977891E+02  0.54918388461E+02 -0.86653823126E+03  0.86859628940E+03  0.00000000000E+00 0. -1.
         -5    1    5    5    0  502 -0.62823551010E+02 -0.44923079717E+02 -0.30863262919E+03  0.31818402136E+03  0.47000000000E+01 0.  1.
         11    1    6    6    0    0 -0.29493108614E+02  0.38900903835E+01 -0.94749757861E+02  0.99310084451E+02  0.00000000000E+00 0. -1.
        -12    1    6    6    0    0  0.40307147026E+02  0.40940334097E+02 -0.93154040034E+02  0.10944611566E+03  0.00000000000E+00 0.  1.
<mgrwt>
<rscale>  2 0.18015443E+03</rscale>
<asrwt>0</asrwt>
<pdfrwt beam="1">  1       21 0.28797832E-02 0.18142298E+03</pdfrwt>
<pdfrwt beam="2">  1       21 0.43870807E+00 0.18142298E+03</pdfrwt>
<totfact> 0.33997698E+03</totfact>
</mgrwt>
</event>
<event>
12    1  0.1029207E-001  0.1776867E+03  0.7546771E-02  0.1170479E+00
         21   -1    0    0  503  502  0.00000000000E+00  0.00000000000E+00  0.28264908326E+03  0.28264908326E+03  0.00000000000E+00 0. -1.
         21   -1    0    0  501  503 -0.00000000000E+00 -0.00000000000E+00 -0.11372214766E+03  0.11372214766E+03  0.00000000000E+00 0. -1.
          6    2    1    2  501    0 -0.30544240564E+02 -0.86590466807E+01  0.52235317609E+02  0.18520550181E+03  0.17482739995E+03 0.  0.
         24    2    3    3    0    0  0.30441012633E+02  0.14656912434E+02  0.75870900329E+02  0.11560977042E+03  0.80422292728E+02 0.  0.
         -6    2    1    2    0  502  0.30544240564E+02  0.86590466807E+01  0.11669161798E+03  0.21116572911E+03  0.17310719720E+03 0.  0.
        -24    2    5    5    0    0 -0.30586151981E+02 -0.21642933631E+02  0.18187154094E+02  0.91247614093E+02  0.81187592860E+02 0.  0.
          5    1    3    3  501    0 -0.60985253197E+02 -0.23315959115E+02 -0.23635582720E+02  0.69595731388E+02  0.47000000000E+01 0. -1.
        -13    1    4    4    0    0  0.46457792830E+02 -0.21396959732E+01  0.12551736285E+02  0.48171058710E+02  0.00000000000E+00 0.  1.
         14    1    4    4    0    0 -0.16016780197E+02  0.16796608407E+02  0.63319164044E+02  0.67438711710E+02  0.00000000000E+00 0. -1.
         -5    1    5    5    0  502  0.61130392545E+02  0.30301980312E+02  0.98504463890E+02  0.11991811502E+03  0.47000000000E+01 0.  1.
         13    1    6    6    0    0  0.15457811406E+02  0.22795105096E+00  0.34435319160E+02  0.37746352152E+02  0.00000000000E+00 0. -1.
        -14    1    6    6    0    0 -0.46043963388E+02 -0.21870884682E+02 -0.16248165066E+02  0.53501261940E+02  0.00000000000E+00 0.  1.
<mgrwt>
<rscale>  2 0.17726208E+03</rscale>
<asrwt>0</asrwt>
<pdfrwt beam="1">  1       21 0.43484474E-01 0.17768666E+03</pdfrwt>
<pdfrwt beam="2">  1       21 0.17495715E-01 0.17768666E+03</pdfrwt>
<totfact> 0.15113248E+05</totfact>
</mgrwt>
</event>
<event>
12    1  0.1029207E-001  0.1903596E+03  0.7546771E-02  0.1158832E+00
         21   -1    0    0  503  502  0.00000000000E+00  0.00000000000E+00  0.55592383464E+03  0.55592383464E+03  0.00000000000E+00 0. -1.
         21   -1    0    0  501  503 -0.00000000000E+00 -0.00000000000E+00 -0.64502985246E+02  0.64502985246E+02  0.00000000000E+00 0.  1.
          6    2    1    2  501    0  0.65379771756E+02  0.50452421861E+02  0.27100593271E+03  0.33118120516E+03  0.17151330461E+03 0.  0.
         24    2    3    3    0    0  0.19797516926E+01 -0.22052715531E+02  0.17976804618E+03  0.19842955948E+03  0.81040100983E+02 0.  0.
         -6    2    1    2    0  502 -0.65379771756E+02 -0.50452421861E+02  0.22041491668E+03  0.28924561473E+03  0.16810808642E+03 0.  0.
        -24    2    5    5    0    0 -0.51361797564E+02 -0.32487742032E+02  0.23896337744E+03  0.25949046865E+03  0.80859878404E+02 0.  0.
          5    1    3    3  501    0  0.63400020063E+02  0.72505137392E+02  0.91237886533E+02  0.13275164568E+03  0.47000000000E+01 0. -1.
        -13    1    4    4    0    0  0.48748900439E+01  0.43045591851E+01 -0.71355064226E+01  0.96544929760E+01  0.00000000000E+00 0.  1.
         14    1    4    4    0    0 -0.28951383513E+01 -0.26357274716E+02  0.18690355260E+03  0.18877506650E+03  0.00000000000E+00 0. -1.
         -5    1    5    5    0  502 -0.14017974191E+02 -0.17964679829E+02 -0.18548460752E+02  0.29755146077E+02  0.47000000000E+01 0.  1.
         11    1    6    6    0    0 -0.68594721835E+02 -0.35715238743E+02  0.14942523982E+03  0.16825194334E+03  0.00000000000E+00 0. -1.
        -12    1    6    6    0    0  0.17232924271E+02  0.32274967104E+01  0.89538137618E+02  0.91238525317E+02  0.00000000000E+00 0.  1.
<mgrwt>
<rscale>  2 0.18958937E+03</rscale>
<asrwt>0</asrwt>
<pdfrwt beam="1">  1       21 0.85526741E-01 0.19035959E+03</pdfrwt>
<pdfrwt beam="2">  1       21 0.99235366E-02 0.19035959E+03</pdfrwt>
<totfact> 0.97267399E+04</totfact>
</mgrwt>
</event>
<event>
12    1  0.1029207E-001  0.1793893E+03  0.7546771E-02  0.1169099E+00
         21   -1    0    0  503  502  0.00000000000E+00  0.00000000000E+00  0.21574272849E+04  0.21574272849E+04  0.00000000000E+00 0.  1.
         21   -1    0    0  501  503 -0.00000000000E+00 -0.00000000000E+00 -0.36283421008E+02  0.36283421008E+02  0.00000000000E+00 0.  1.
          6    2    1    2  501    0  0.98401094574E+01  0.30519234644E+02  0.21072844564E+03  0.27489138184E+03  0.17358151564E+03 0.  0.
         24    2    3    3    0    0  0.52103820348E+01 -0.51413424466E+02  0.10631989464E+03  0.14200936452E+03  0.78690859192E+02 0.  0.
         -6    2    1    2    0  502 -0.98401094574E+01 -0.30519234644E+02  0.19104154182E+04  0.19188193240E+04  0.17650007552E+03 0.  0.
        -24    2    5    5    0    0 -0.73134598520E+01 -0.18984645486E+02  0.39364277058E+03  0.40199343247E+03  0.78931523821E+02 0.  0.
          5    1    3    3  501    0  0.46297274226E+01  0.81932659110E+02  0.10440855100E+03  0.13288201732E+03  0.47000000000E+01 0. -1.
        -11    1    4    4    0    0  0.32838357533E+02  0.45897123574E+00  0.54627740459E+02  0.63739771004E+02  0.00000000000E+00 0.  1.
         12    1    4    4    0    0 -0.27627975499E+02 -0.51872395702E+02  0.51692154178E+02  0.78269593519E+02  0.00000000000E+00 0. -1.
         -5    1    5    5    0  502 -0.25266496054E+01 -0.11534589158E+02  0.15167726476E+04  0.15168258916E+04  0.47000000000E+01 0.  1.
         13    1    6    6    0    0  0.19161413695E+02 -0.50142019511E+01  0.23898352601E+02  0.31039221205E+02  0.00000000000E+00 0. -1.
        -14    1    6    6    0    0 -0.26474873547E+02 -0.13970443535E+02  0.36974441798E+03  0.37095421126E+03  0.00000000000E+00 0.  1.
<mgrwt>
<rscale>  2 0.17866728E+03</rscale>
<asrwt>0</asrwt>
<pdfrwt beam="1">  1       21 0.33191179E+00 0.17938932E+03</pdfrwt>
<pdfrwt beam="2">  1       21 0.55820664E-02 0.17938932E+03</pdfrwt>
<totfact> 0.50641894E+03</totfact>
</mgrwt>
</event>
<event>
12    1  0.1029207E-001  0.1792415E+03  0.7546771E-02  0.1170262E+00
         21   -1    0    0  503  502  0.00000000000E+00  0.00000000000E+00  0.25736842821E+03  0.25736842821E+03  0.00000000000E+00 0. -1.
         21   -1    0    0  501  503 -0.00000000000E+00 -0.00000000000E+00 -0.52582440907E+03  0.52582440907E+03  0.00000000000E+00 0. -1.
          6    2    1    2  501    0  0.10315996571E+02 -0.52843723387E+02 -0.47761052025E+03  0.50774207327E+03  0.16368055788E+03 0.  0.
         24    2    3    3    0    0  0.23926872885E+02 -0.48405373817E+02 -0.14314223640E+03  0.17293454975E+03  0.80629294906E+02 0.  0.
         -6    2    1    2    0  502 -0.10315996571E+02  0.52843723387E+02  0.20915453939E+03  0.27545076401E+03  0.17096380659E+03 0.  0.
        -24    2    5    5    0    0  0.27626499564E+02  0.83593019504E+02  0.10004285721E+03  0.15581547904E+03  0.80739543226E+02 0.  0.
          5    1    3    3  501    0 -0.13610876314E+02 -0.44383495699E+01 -0.33446828385E+03  0.33480752352E+03  0.47000000000E+01 0. -1.
        -13    1    4    4    0    0  0.31718756400E+02 -0.41640661533E+02 -0.15109595320E+03  0.15990625777E+03  0.00000000000E+00 0.  1.
         14    1    4    4    0    0 -0.77918835147E+01 -0.67647122845E+01  0.79537168034E+01  0.13028291983E+02  0.00000000000E+00 0. -1.
         -5    1    5    5    0  502 -0.37942496135E+02 -0.30749296116E+02  0.10911168217E+03  0.11963528498E+03  0.47000000000E+01 0.  1.
         11    1    6    6    0    0 -0.65138538964E+01  0.52326638952E+02  0.95766816724E+02  0.10932424535E+03  0.00000000000E+00 0. -1.
        -12    1    6    6    0    0  0.34140353460E+02  0.31266380551E+02  0.42760404885E+01  0.46491233684E+02  0.00000000000E+00 0.  1.
<mgrwt>
<rscale>  2 0.17748249E+03</rscale>
<asrwt>0</asrwt>
<pdfrwt beam="1">  1       21 0.39595143E-01 0.17924146E+03</pdfrwt>
<pdfrwt beam="2">  1       21 0.80896062E-01 0.17924146E+03</pdfrwt>
<totfact> 0.83266509E+03</totfact>
</mgrwt>
</event>
<event>
12    1  0.1029207E-001  0.2159488E+03  0.7546771E-02  0.1136941E+00
         21   -1    0    0  501  502  0.00000000000E+00  0.00000000000E+00  0.14094896621E+04  0.14094896621E+04  0.00000000000E+00 0. -1.
         21   -1    0    0  502  503 -0.00000000000E+00 -0.00000000000E+00 -0.35504221833E+02  0.35504221833E+02  0.00000000000E+00 0.  1.
         -6    2    1    2    0  503  0.11112953624E+03 -0.66673526002E+02  0.87559340639E+03  0.90182860258E+03  0.17273066385E+03 0.  0.
        -24    2    3    3    0    0 -0.45489535132E+01  0.70741219603E+01  0.32951848310E+03  0.33876542637E+03  0.78159114731E+02 0.  0.
          6    2    1    2  501    0 -0.11112953624E+03  0.66673526002E+02  0.49839203390E+03  0.54316528137E+03  0.17273902436E+03 0.  0.
         24    2    5    5    0    0 -0.12187502288E+03  0.95651774075E+02  0.46627254856E+03  0.49834390608E+03  0.83269298648E+02 0.  0.
          5    1    5    5  501    0  0.10745486646E+02 -0.28978248074E+02  0.32119485347E+02  0.44821375299E+02  0.47000000000E+01 0. -1.
        -11    1    6    6    0    0 -0.15792107206E+02 -0.10298045996E+02  0.19668269507E+02  0.27244838535E+02  0.00000000000E+00 0.  1.
         12    1    6    6    0    0 -0.10608291568E+03  0.10594982007E+03  0.44660427905E+03  0.47109906754E+03  0.00000000000E+00 0. -1.
         -5    1    3    3    0  503  0.11567848975E+03 -0.73747647962E+02  0.54607492328E+03  0.56306317621E+03  0.47000000000E+01 0.  1.
         13    1    4    4    0    0  0.12670513515E+01 -0.34113155432E+02  0.19490383701E+03  0.19787071151E+03  0.00000000000E+00 0. -1.
        -14    1    4    4    0    0 -0.58160048647E+01  0.41187277393E+02  0.13461464610E+03  0.14089471486E+03  0.00000000000E+00 0.  1.
<mgrwt>
<rscale>  2 0.21594717E+03</rscale>
<asrwt>0</asrwt>
<pdfrwt beam="1">  1       21 0.21684452E+00 0.21594884E+03</pdfrwt>
<pdfrwt beam="2">  1       21 0.54621890E-02 0.21594884E+03</pdfrwt>
<totfact> 0.23927433E+04</totfact>
</mgrwt>
</event>
<event>
12    1  0.1029207E-001  0.2348668E+03  0.7546771E-02  0.1123462E+00
         21   -1    0    0  501  502  0.00000000000E+00  0.00000000000E+00  0.41364675212E+03  0.41364675212E+03  0.00000000000E+00 0.  1.
         21   -1    0    0  502  503 -0.00000000000E+00 -0.00000000000E+00 -0.17066838990E+03  0.17066838990E+03  0.00000000000E+00 0. -1.
         -6    2    1    2    0  503  0.88253615878E+02  0.12997239028E+03 -0.16093736445E+02  0.23541755697E+03  0.17458778544E+03 0.  0.
        -24    2    3    3    0    0 -0.17893964121E+02  0.30365609906E+02 -0.16302943558E+02  0.89777750583E+02  0.80944390258E+02 0.  0.
          6    2    1    2  501    0 -0.88253615878E+02 -0.12997239028E+03  0.25907209867E+03  0.34889758505E+03  0.17300187743E+03 0.  0.
         24    2    5    5    0    0 -0.13928963375E+02  0.38365561334E+01  0.69607840655E+02  0.10528358058E+03  0.77657231956E+02 0.  0.
          5    1    5    5  501    0 -0.74324652503E+02 -0.13380894641E+03  0.18946425801E+03  0.24361400447E+03  0.47000000000E+01 0. -1.
        -11    1    6    6    0    0  0.41827024017E+01 -0.35158608216E+02  0.37862111956E+02  0.51837845758E+02  0.00000000000E+00 0.  1.
         12    1    6    6    0    0 -0.18111665777E+02  0.38995164350E+02  0.31745728699E+02  0.53445734821E+02  0.00000000000E+00 0. -1.
         -5    1    3    3    0  503  0.10614758000E+03  0.99606780375E+02  0.20920711245E+00  0.14563980639E+03  0.47000000000E+01 0.  1.
         13    1    4    4    0    0 -0.71503392286E+01  0.94939036545E+01 -0.48498130197E+02  0.49933257357E+02  0.00000000000E+00 0. -1.
        -14    1    4    4    0    0 -0.10743624892E+02  0.20871706251E+02  0.32195186639E+02  0.39844493226E+02  0.00000000000E+00 0.  1.
<mgrwt>
<rscale>  2 0.23457214E+03</rscale>
<asrwt>0</asrwt>
<pdfrwt beam="1">  1       21 0.63637961E-01 0.23486681E+03</pdfrwt>
<pdfrwt beam="2">  1       21 0.26256676E-01 0.23486681E+03</pdfrwt>
<totfact> 0.30789211E+04</totfact>
</mgrwt>
</event>
<event>
12    1  0.1029207E-001  0.1856054E+03  0.7546771E-02  0.1162757E+00
         21   -1    0    0  501  502  0.00000000000E+00  0.00000000000E+00  0.19603313925E+03  0.19603313925E+03  0.00000000000E+00 0. -1.
         21   -1    0    0  502  503 -0.00000000000E+00 -0.00000000000E+00 -0.74622465645E+03  0.74622465645E+03  0.00000000000E+00 0. -1.
         -6    2    1    2    0  503  0.27878104168E+02 -0.58120682280E+02 -0.68763004512E+03  0.71223904780E+03  0.17405223315E+03 0.  0.
        -24    2    3    3    0    0 -0.48745234961E+01 -0.98343792909E+02 -0.43249353316E+03  0.45184057818E+03  0.86104525327E+02 0.  0.
          6    2    1    2  501    0 -0.27878104168E+02  0.58120682280E+02  0.13743852792E+03  0.23001874790E+03  0.17281224791E+03 0.  0.
         24    2    5    5    0    0  0.26517189946E+02 -0.63775176938E+00  0.16330719515E+02  0.84758316775E+02  0.78827100496E+02 0.  0.
          5    1    5    5  501    0 -0.54395294115E+02  0.58758434050E+02  0.12110780841E+03  0.14526043112E+03  0.47000000000E+01 0. -1.
        -11    1    6    6    0    0  0.47433761005E+01 -0.38676160445E+02  0.11701942386E+02  0.40685138064E+02  0.00000000000E+00 0.  1.
         12    1    6    6    0    0  0.21773813846E+02  0.38038408676E+02  0.46287771286E+01  0.44073178711E+02  0.00000000000E+00 0. -1.
         -5    1    3    3    0  503  0.32752627664E+02  0.40223110628E+02 -0.25513651195E+03  0.26039846962E+03  0.47000000000E+01 0.  1.
         11    1    4    4    0    0  0.33135609915E+02 -0.74104766217E+02 -0.33059445755E+03  0.34041471823E+03  0.00000000000E+00 0. -1.
        -12    1    4    4    0    0 -0.38010133411E+02 -0.24239026692E+02 -0.10189907561E+03  0.11142585996E+03  0.00000000000E+00 0.  1.
<mgrwt>
<rscale>  2 0.18531419E+03</rscale>
<asrwt>0</asrwt>
<pdfrwt beam="1">  1       21 0.30158945E-01 0.18560545E+03</pdfrwt>
<pdfrwt beam="2">  1       21 0.11480379E+00 0.18560545E+03</pdfrwt>
<totfact> 0.62433128E+03</totfact>
</mgrwt>
</event>
<event>
12    1  0.1029207E-001  0.1925347E+03  0.7546771E-02  0.1156250E+00
         21   -1    0    0  501  502  0.00000000000E+00  0.00000000000E+00  0.12738718968E+03  0.12738718968E+03  0.00000000000E+00 0. -1.
         21   -1    0    0  502  503 -0.00000000000E+00 -0.00000000000E+00 -0.30310802931E+03  0.30310802931E+03  0.00000000000E+00 0. -1.
         -6    2    1    2    0  503 -0.84165372994E+02 -0.13506322011E+01 -0.13159532010E+03  0.23321010830E+03  0.17315886382E+03 0.  0.
        -24    2    3    3    0    0 -0.19702786335E+02  0.33422461649E+02 -0.13597417744E+03  0.15968557140E+03  0.74197331824E+02 0.  0.
          6    2    1    2  501    0  0.84165372994E+02  0.13506322011E+01 -0.44125519518E+02  0.19728511069E+03  0.17288354233E+03 0.  0.
         24    2    5    5    0    0  0.47454902617E+02  0.27409046169E+02 -0.87688390641E+02  0.13446382995E+03  0.85953732419E+02 0.  0.
          5    1    5    5  501    0  0.36710470377E+02 -0.26058413968E+02  0.43562871122E+02  0.62821280743E+02  0.47000000000E+01 0. -1.
        -13    1    6    6    0    0  0.65407159947E+02  0.11053876371E+02 -0.31874293562E+02  0.73595212787E+02  0.00000000000E+00 0.  1.
         14    1    6    6    0    0 -0.17952257329E+02  0.16355169798E+02 -0.55814097079E+02  0.60868617161E+02  0.00000000000E+00 0. -1.
         -5    1    3    3    0  503 -0.64462586660E+02 -0.34773093850E+02  0.43788573362E+01  0.73524536900E+02  0.47000000000E+01 0.  1.
         13    1    4    4    0    0  0.23774289265E+02  0.23411406709E+02 -0.30671930832E+02  0.45321938784E+02  0.00000000000E+00 0. -1.
        -14    1    4    4    0    0 -0.43477075600E+02  0.10011054939E+02 -0.10530224661E+03  0.11436363261E+03  0.00000000000E+00 0.  1.
<mgrwt>
<rscale>  2 0.19247282E+03</rscale>
<asrwt>0</asrwt>
<pdfrwt beam="1">  1       21 0.19598029E-01 0.19253474E+03</pdfrwt>
<pdfrwt beam="2">  1       21 0.46632004E-01 0.19253474E+03</pdfrwt>
<totfact> 0.10558347E+05</totfact>
</mgrwt>
</event>
<event>
12    1  0.1029207E-001  0.1745032E+03  0.7546771E-02  0.1176095E+00
         21   -1    0    0  503  502  0.00000000000E+00  0.00000000000E+00  0.30797497612E+03  0.30797497612E+03  0.00000000000E+00 0.  1.
         21   -1    0    0  501  503 -0.00000000000E+00 -0.00000000000E+00 -0.37388788587E+03  0.37388788587E+03  0.00000000000E+00 0.  1.
          6    2    1    2  501    0 -0.22368885333E+02 -0.13508390881E+02 -0.32881669775E+03  0.37225233293E+03  0.17253560500E+03 0.  0.
         24    2    3    3    0    0 -0.81433005976E+02 -0.15880012179E+02 -0.24605073438E+03  0.27043637334E+03  0.75573532955E+02 0.  0.
         -6    2    1    2    0  502  0.22368885333E+02  0.13508390881E+02  0.26290378800E+03  0.30961052906E+03  0.16142315295E+03 0.  0.
        -24    2    5    5    0    0 -0.46833327241E+02  0.78308277332E+01  0.14488184967E+03  0.17259794251E+03  0.80898807098E+02 0.  0.
          5    1    3    3  501    0  0.59064120643E+02  0.23716212985E+01 -0.82765963367E+02  0.10181595959E+03  0.47000000000E+01 0. -1.
        -13    1    4    4    0    0 -0.28173507825E+02  0.29654549375E+02 -0.11085495908E+03  0.11816074134E+03  0.00000000000E+00 0.  1.
         14    1    4    4    0    0 -0.53259498151E+02 -0.45534561554E+02 -0.13519577530E+03  0.15227563199E+03  0.00000000000E+00 0. -1.
         -5    1    5    5    0  502  0.69202212574E+02  0.56775631474E+01  0.11802193832E+03  0.13701258655E+03  0.47000000000E+01 0.  1.
         13    1    6    6    0    0  0.18225332333E+02  0.20356484920E+02  0.36978110208E+02  0.45977492880E+02  0.00000000000E+00 0. -1.
        -14    1    6    6    0    0 -0.65058659575E+02 -0.12525657186E+02  0.10790373947E+03  0.12662044963E+03  0.00000000000E+00 0.  1.
<mgrwt>
<rscale>  2 0.17169132E+03</rscale>
<asrwt>0</asrwt>
<pdfrwt beam="1">  1       21 0.47380766E-01 0.17450323E+03</pdfrwt>
<pdfrwt beam="2">  1       21 0.57521213E-01 0.17450323E+03</pdfrwt>
<totfact> 0.12232789E+04</totfact>
</mgrwt>
</event>
<event>
12    1  0.1029207E-001  0.1944729E+03  0.7546771E-02  0.1156214E+00
         21   -1    0    0  501  502  0.00000000000E+00  0.00000000000E+00  0.76194580638E+03  0.76194580638E+03  0.00000000000E+00 0.  1.
         21   -1    0    0  502  503 -0.00000000000E+00 -0.00000000000E+00 -0.61133709431E+02  0.61133709431E+02  0.00000000000E+00 0.  1.
         -6    2    1    2    0  503 -0.88075076310E+02 -0.12587256159E+01  0.16294608993E+03  0.25371466939E+03  0.17338079992E+03 0.  0.
        -24    2    3    3    0    0 -0.56494009310E+02  0.21029378911E+02  0.18319076079E+03  0.20982776822E+03  0.82674237892E+02 0.  0.
          6    2    1    2  501    0  0.88075076310E+02  0.12587256159E+01  0.53786600702E+03  0.56936484643E+03  0.16467447703E+03 0.  0.
         24    2    5    5    0    0  0.88427760098E+00 -0.40475780621E+02  0.24847235459E+03  0.26421770085E+03  0.80208551174E+02 0.  0.
          5    1    5    5  501    0  0.87190798709E+02  0.41734506237E+02  0.28939365243E+03  0.30514714558E+03  0.47000000000E+01 0. -1.
        -11    1    6    6    0    0 -0.35805974619E+02 -0.51944015218E+01  0.13658901187E+03  0.14129970909E+03  0.00000000000E+00 0.  1.
         12    1    6    6    0    0  0.36690252220E+02 -0.35281379099E+02  0.11188334272E+03  0.12291799175E+03  0.00000000000E+00 0. -1.
         -5    1    3    3    0  503 -0.31581067000E+02 -0.22288104527E+02 -0.20244670855E+02  0.43886901170E+02  0.47000000000E+01 0.  1.
         13    1    4    4    0    0 -0.27912400215E+02 -0.29731067478E+02  0.50479103245E+02  0.64893592315E+02  0.00000000000E+00 0. -1.
        -14    1    4    4    0    0 -0.28581609095E+02  0.50760446389E+02  0.13271165754E+03  0.14493417590E+03  0.00000000000E+00 0.  1.
<mgrwt>
<rscale>  2 0.19251337E+03</rscale>
<asrwt>0</asrwt>
<pdfrwt beam="1">  1       21 0.11722242E+00 0.19447289E+03</pdfrwt>
<pdfrwt beam="2">  1       21 0.94051866E-02 0.19447289E+03</pdfrwt>
<totfact> 0.50536401E+04</totfact>
</mgrwt>
</event>
<event>
12    1  0.1029207E-001  0.1865022E+03  0.7546771E-02  0.1164302E+00
         21   -1    0    0  501  502  0.00000000000E+00  0.00000000000E+00  0.30692699284E+02  0.30692699284E+02  0.00000000000E+00 0. -1.
         21   -1    0    0  502  503 -0.00000000000E+00 -0.00000000000E+00 -0.12774793096E+04  0.12774793096E+04  0.00000000000E+00 0. -1.
         -6    2    1    2    0  503  0.18116982459E+02  0.21914222340E+02 -0.34197259180E+03  0.38433681414E+03  0.17309267739E+03 0.  0.
        -24    2    3    3    0    0  0.55045925055E+02 -0.27430313637E+02 -0.27617199883E+03  0.29405703752E+03  0.80100514370E+02 0.  0.
          6    2    1    2  501    0 -0.18116982459E+02 -0.21914222340E+02 -0.90481401850E+03  0.92383519473E+03  0.18432200290E+03 0.  0.
         24    2    5    5    0    0  0.36592064460E+02  0.38923362436E+02 -0.40835307276E+03  0.42065545331E+03  0.85701639641E+02 0.  0.
          5    1    5    5  501    0 -0.54709046919E+02 -0.60837584777E+02 -0.49646094574E+03  0.50317974142E+03  0.47000000000E+01 0. -1.
        -13    1    6    6    0    0  0.53347327068E+02 -0.26347034646E+01 -0.17236610486E+03  0.18045207971E+03  0.00000000000E+00 0.  1.
         14    1    6    6    0    0 -0.16755262608E+02  0.41558065901E+02 -0.23598696791E+03  0.24020337360E+03  0.00000000000E+00 0. -1.
         -5    1    3    3    0  503 -0.36928942596E+02  0.49344535978E+02 -0.65800592971E+02  0.90279776625E+02  0.47000000000E+01 0.  1.
         11    1    4    4    0    0  0.57859665291E+02 -0.48919054961E+01 -0.25940736970E+03  0.26582673880E+03  0.00000000000E+00 0. -1.
        -12    1    4    4    0    0 -0.28137402354E+01 -0.22538408141E+02 -0.16764629135E+02  0.28230298717E+02  0.00000000000E+00 0.  1.
<mgrwt>
<rscale>  2 0.18366569E+03</rscale>
<asrwt>0</asrwt>
<pdfrwt beam="1">  1       21 0.47219548E-02 0.18650217E+03</pdfrwt>
<pdfrwt beam="2">  1       21 0.19653523E+00 0.18650217E+03</pdfrwt>
<totfact> 0.42063422E+04</totfact>
</mgrwt>
</event>
<event>
12    1  0.1029207E-001  0.2468968E+03  0.7546771E-02  0.1116454E+00
         21   -1    0    0  503  502  0.00000000000E+00  0.00000000000E+00  0.38794819469E+03  0.38794819469E+03  0.00000000000E+00 0.  1.
         21   -1    0    0  501  503 -0.00000000000E+00 -0.00000000000E+00 -0.24939544600E+03  0.24939544600E+03  0.00000000000E+00 0. -1.
          6    2    1    2  501    0  0.14262809383E+03 -0.84004555381E+02 -0.12987800586E+03  0.27263403856E+03  0.17338247922E+03 0.  0.
         24    2    3    3    0    0  0.68458697082E+02 -0.46107567596E+02  0.35448439813E+01  0.11527766609E+03  0.80398217540E+02 0.  0.
         -6    2    1    2    0  502 -0.14262809383E+03  0.84004555381E+02  0.26843075455E+03  0.36470960213E+03  0.18318975250E+03 0.  0.
        -24    2    5    5    0    0 -0.14147794305E+03  0.50244584537E+02  0.10864485660E+03  0.20132453040E+03  0.78659614993E+02 0.  0.
          5    1    3    3  501    0  0.74169396745E+02 -0.37896987785E+02 -0.13342284984E+03  0.15735637247E+03  0.47000000000E+01 0. -1.
        -13    1    4    4    0    0 -0.35957460720E+01  0.15708337395E+02 -0.10606122378E+02  0.19291736195E+02  0.00000000000E+00 0.  1.
         14    1    4    4    0    0  0.72054443154E+02 -0.61815904991E+02  0.14150966360E+02  0.95985929890E+02  0.00000000000E+00 0. -1.
         -5    1    5    5    0  502 -0.11501507748E+01  0.33759970844E+02  0.15978589795E+03  0.16338507173E+03  0.47000000000E+01 0.  1.
         13    1    6    6    0    0 -0.20691485995E+02  0.40712307642E+02  0.46418007792E+02  0.65117286750E+02  0.00000000000E+00 0. -1.
        -14    1    6    6    0    0 -0.12078645706E+03  0.95322768944E+01  0.62226848807E+02  0.13620724365E+03  0.00000000000E+00 0.  1.
<mgrwt>
<rscale>  2 0.24508021E+03</rscale>
<asrwt>0</asrwt>
<pdfrwt beam="1">  1       21 0.59684338E-01 0.24689679E+03</pdfrwt>
<pdfrwt beam="2">  1       21 0.38368530E-01 0.24689679E+03</pdfrwt>
<totfact> 0.16644137E+04</totfact>
</mgrwt>
</event>
<event>
12    1  0.1029207E-001  0.2260215E+03  0.7546771E-02  0.1129485E+00
         21   -1    0    0  503  502  0.00000000000E+00  0.00000000000E+00  0.51316412360E+03  0.51316412360E+03  0.00000000000E+00 0.  1.
         21   -1    0    0  501  503 -0.00000000000E+00 -0.00000000000E+00 -0.15248761312E+03  0.15248761312E+03  0.00000000000E+00 0.  1.
          6    2    1    2  501    0 -0.67296595262E+02  0.12962759768E+03 -0.15803354198E+02  0.22657330203E+03  0.17249222990E+03 0.  0.
         24    2    3    3    0    0 -0.63719903927E+02  0.91447133864E+02 -0.74899805124E+02  0.15596862053E+03  0.79331112010E+02 0.  0.
         -6    2    1    2    0  502  0.67296595262E+02 -0.12962759768E+03  0.37647986468E+03  0.43907843469E+03  0.17239674443E+03 0.  0.
        -24    2    5    5    0    0  0.55689790267E+02 -0.35057685729E+01  0.18067641860E+03  0.20583497134E+03  0.81304514248E+02 0.  0.
          5    1    3    3  501    0 -0.35766913346E+01  0.38180463814E+02  0.59096450926E+02  0.70604681502E+02  0.47000000000E+01 0. -1.
        -13    1    4    4    0    0 -0.21895492528E+02  0.34519544997E+00  0.10494706720E+02  0.24283134519E+02  0.00000000000E+00 0.  1.
         14    1    4    4    0    0 -0.41824411400E+02  0.91101938414E+02 -0.85394511844E+02  0.13168548601E+03  0.00000000000E+00 0. -1.
         -5    1    5    5    0  502  0.11606804995E+02 -0.12612182911E+03  0.19580344608E+03  0.23324346335E+03  0.47000000000E+01 0.  1.
         11    1    6    6    0    0 -0.15544642693E+02  0.11079566978E+02  0.76144223092E+02  0.78500544146E+02  0.00000000000E+00 0. -1.
        -12    1    6    6    0    0  0.71234432960E+02 -0.14585335551E+02  0.10453219550E+03  0.12733442720E+03  0.00000000000E+00 0.  1.
<mgrwt>
<rscale>  2 0.22600327E+03</rscale>
<asrwt>0</asrwt>
<pdfrwt beam="1">  1       21 0.78948326E-01 0.22602149E+03</pdfrwt>
<pdfrwt beam="2">  1       21 0.23459633E-01 0.22602149E+03</pdfrwt>
<totfact> 0.23774257E+04</totfact>
</mgrwt>
</event>
<event>
12    1  0.1029207E-001  0.1845879E+03  0.7546771E-02  0.1163442E+00
         21   -1    0    0  501  502  0.00000000000E+00  0.00000000000E+00  0.11734099257E+03  0.11734099257E+03  0.00000000000E+00 0. -1.
         21   -1    0    0  502  503 -0.00000000000E+00 -0.00000000000E+00 -0.50823863287E+03  0.50823863287E+03  0.00000000000E+00 0.  1.
         -6    2    1    2    0  503 -0.64124865728E+02  0.11158745571E+02 -0.40027070398E+03  0.44078262387E+03  0.17273149405E+03 0.  0.
        -24    2    3    3    0    0 -0.41963460935E+02 -0.52634906945E+02 -0.16005554928E+03  0.19121065326E+03  0.80077272585E+02 0.  0.
          6    2    1    2  501    0  0.64124865728E+02 -0.11158745571E+02  0.93730636802E+01  0.18479700156E+03  0.17270078592E+03 0.  0.
         24    2    5    5    0    0  0.10808718392E+03  0.58979313619E+01 -0.11512857709E+02  0.13300967337E+03  0.76429067737E+02 0.  0.
          5    1    5    5  501    0 -0.43962318195E+02 -0.17056676933E+02  0.20885921389E+02  0.51787328193E+02  0.47000000000E+01 0. -1.
        -11    1    6    6    0    0  0.86830391126E+02  0.18963479297E+02 -0.37965401894E+02  0.96646273136E+02  0.00000000000E+00 0.  1.
         12    1    6    6    0    0  0.21256792797E+02 -0.13065547935E+02  0.26452544185E+02  0.36363400236E+02  0.00000000000E+00 0. -1.
         -5    1    3    3    0  503 -0.22161404794E+02  0.63793652516E+02 -0.24021515470E+03  0.24957197061E+03  0.47000000000E+01 0.  1.
         13    1    4    4    0    0  0.10507956957E+02 -0.41129616202E+02 -0.10951438727E+03  0.11745409107E+03  0.00000000000E+00 0. -1.
        -14    1    4    4    0    0 -0.52471417891E+02 -0.11505290743E+02 -0.50541162003E+02  0.73756562198E+02  0.00000000000E+00 0.  1.
<mgrwt>
<rscale>  2 0.18458069E+03</rscale>
<asrwt>0</asrwt>
<pdfrwt beam="1">  1       21 0.18052461E-01 0.18458788E+03</pdfrwt>
<pdfrwt beam="2">  1       21 0.78190558E-01 0.18458788E+03</pdfrwt>
<totfact> 0.40606057E+04</totfact>
</mgrwt>
</event>
<event>
12    1  0.1029207E-001  0.1929536E+03  0.7546771E-02  0.1157063E+00
         21   -1    0    0  501  502  0.00000000000E+00  0.00000000000E+00  0.76474936898E+02  0.76474936898E+02  0.00000000000E+00 0. -1.
         21   -1    0    0  502  503 -0.00000000000E+00 -0.00000000000E+00 -0.67297791553E+03  0.67297791553E+03  0.00000000000E+00 0. -1.
         -6    2    1    2    0  503 -0.29012505152E+02  0.64902155244E+02 -0.49945718331E+03  0.53346906598E+03  0.17342938385E+03 0.  0.
        -24    2    3    3    0    0 -0.70464061600E+02  0.33052037559E+02 -0.20399369285E+03  0.23338003631E+03  0.82432963449E+02 0.  0.
          6    2    1    2  501    0  0.29012505152E+02 -0.64902155244E+02 -0.97045795320E+02  0.21598378645E+03  0.17937974916E+03 0.  0.
         24    2    5    5    0    0  0.19241222272E+02 -0.94815449787E+02 -0.12250910227E+03  0.17523144713E+03  0.79607699202E+02 0.  0.
          5    1    5    5  501    0  0.97712828802E+01  0.29913294543E+02  0.25463306946E+02  0.40752339322E+02  0.47000000000E+01 0. -1.
        -11    1    6    6    0    0 -0.31307081722E+02 -0.35421025164E+02 -0.47901574942E+02  0.67300395775E+02  0.00000000000E+00 0.  1.
         12    1    6    6    0    0  0.50548303994E+02 -0.59394424624E+02 -0.74607527325E+02  0.10793105136E+03  0.00000000000E+00 0. -1.
         -5    1    3    3    0  503  0.41451556448E+02  0.31850117686E+02 -0.29546349046E+03  0.30008902966E+03  0.47000000000E+01 0.  1.
         13    1    4    4    0    0 -0.11635137671E+02 -0.78840665074E+01 -0.12856710912E+03  0.12933304482E+03  0.00000000000E+00 0. -1.
        -14    1    4    4    0    0 -0.58828923929E+02  0.40936104066E+02 -0.75426583726E+02  0.10404699150E+03  0.00000000000E+00 0.  1.
<mgrwt>
<rscale>  2 0.19155886E+03</rscale>
<asrwt>0</asrwt>
<pdfrwt beam="1">  1       21 0.11765375E-01 0.19295365E+03</pdfrwt>
<pdfrwt beam="2">  1       21 0.10353506E+00 0.19295365E+03</pdfrwt>
<totfact> 0.45931923E+04</totfact>
</mgrwt>
</event>
<event>
12    1  0.1029207E-001  0.2425828E+03  0.7546771E-02  0.1118162E+00
         21   -1    0    0  501  502  0.00000000000E+00  0.00000000000E+00  0.53421721224E+02  0.53421721224E+02  0.00000000000E+00 0. -1.
         21   -1    0    0  502  503 -0.00000000000E+00 -0.00000000000E+00 -0.12367350261E+04  0.12367350261E+04  0.00000000000E+00 0.  1.
         -6    2    1    2    0  503  0.76734090735E+02  0.15181039852E+03 -0.80610378946E+03  0.84167774247E+03  0.17228924814E+03 0.  0.
        -24    2    3    3    0    0  0.11149227505E+03  0.11235549947E+03 -0.48906802821E+03  0.52027677119E+03  0.80287587851E+02 0.  0.
          6    2    1    2  501    0 -0.76734090735E+02 -0.15181039852E+03 -0.37720951538E+03  0.44847900481E+03  0.17295051744E+03 0.  0.
         24    2    5    5    0    0 -0.53798044629E+02 -0.25473222150E+02 -0.92433231405E+02  0.13605818883E+03  0.80154936384E+02 0.  0.
          5    1    5    5  501    0 -0.22936046105E+02 -0.12633717637E+03 -0.28477628398E+03  0.31242081598E+03  0.47000000000E+01 0. -1.
        -11    1    6    6    0    0 -0.35935309725E+02  0.25848093735E+02 -0.31008320425E+02  0.54046150375E+02  0.00000000000E+00 0.  1.
         12    1    6    6    0    0 -0.17862734905E+02 -0.51321315885E+02 -0.61424910980E+02  0.82012038454E+02  0.00000000000E+00 0. -1.
         -5    1    3    3    0  503 -0.34758184315E+02  0.39454899044E+02 -0.31703576125E+03  0.32140097129E+03  0.47000000000E+01 0.  1.
         11    1    4    4    0    0  0.37679711166E+02  0.64558613779E+01 -0.51969085015E+02  0.64515304982E+02  0.00000000000E+00 0. -1.
        -12    1    4    4    0    0  0.73812563884E+02  0.10589963810E+03 -0.43709894319E+03  0.45576146620E+03  0.00000000000E+00 0.  1.
<mgrwt>
<rscale>  2 0.24246493E+03</rscale>
<asrwt>0</asrwt>
<pdfrwt beam="1">  1       21 0.82187269E-02 0.24258277E+03</pdfrwt>
<pdfrwt beam="2">  1       21 0.19026691E+00 0.24258277E+03</pdfrwt>
<totfact> 0.17177145E+04</totfact>
</mgrwt>
</event>
<event>
12    1  0.1029207E-001  0.2047916E+03  0.7546771E-02  0.1145896E+00
         21   -1    0    0  503  502  0.00000000000E+00  0.00000000000E+00  0.20149118259E+03  0.20149118259E+03  0.00000000000E+00 0.  1.
         21   -1    0    0  501  503 -0.00000000000E+00 -0.00000000000E+00 -0.23428704935E+03  0.23428704935E+03  0.00000000000E+00 0.  1.
          6    2    1    2  501    0  0.81617847415E+02 -0.72591797257E+02 -0.90151237888E+02  0.22375625771E+03  0.17322983325E+03 0.  0.
         24    2    3    3    0    0  0.10446124239E+03 -0.70516748884E+02 -0.21089934556E+02  0.15083383223E+03  0.80132993030E+02 0.  0.
         -6    2    1    2    0  502 -0.81617847415E+02  0.72591797257E+02  0.57355371136E+02  0.21202197423E+03  0.17243154268E+03 0.  0.
        -24    2    5    5    0    0 -0.62528807305E+02 -0.41090253763E+01  0.75086396077E+02  0.13088082012E+03  0.86977504943E+02 0.  0.
          5    1    3    3  501    0 -0.22843394976E+02 -0.20750483730E+01 -0.69061303332E+02  0.72922425478E+02  0.47000000000E+01 0. -1.
        -11    1    4    4    0    0  0.39251480825E+02 -0.43513758140E+02 -0.47541137309E+02  0.75460490530E+02  0.00000000000E+00 0.  1.
         12    1    4    4    0    0  0.65209761566E+02 -0.27002990744E+02  0.26451202753E+02  0.75373341704E+02  0.00000000000E+00 0. -1.
         -5    1    5    5    0  502 -0.19089040110E+02  0.76700822633E+02 -0.17731024941E+02  0.81141154110E+02  0.47000000000E+01 0.  1.
         13    1    6    6    0    0 -0.59402760975E+02 -0.17396392534E+02  0.79914481110E+01  0.62411423054E+02  0.00000000000E+00 0. -1.
        -14    1    6    6    0    0 -0.31260463295E+01  0.13287367157E+02  0.67094947966E+02  0.68469397063E+02  0.00000000000E+00 0.  1.
<mgrwt>
<rscale>  2 0.20462273E+03</rscale>
<asrwt>0</asrwt>
<pdfrwt beam="1">  1       21 0.30998643E-01 0.20479164E+03</pdfrwt>
<pdfrwt beam="2">  1       21 0.36044162E-01 0.20479164E+03</pdfrwt>
<totfact> 0.73802811E+04</totfact>
</mgrwt>
</event>
<event>
12    1  0.1029207E-001  0.1750711E+03  0.7546771E-02  0.1173290E+00
         21   -1    0    0  503  502  0.00000000000E+00  0.00000000000E+00  0.66411891195E+02  0.66411891195E+02  0.00000000000E+00 0.  1.
         21   -1    0    0  501  503 -0.00000000000E+00 -0.00000000000E+00 -0.17268471650E+04  0.17268471650E+04  0.00000000000E+00 0.  1.
          6    2    1    2  501    0 -0.10188969096E+02  0.12448763854E+01 -0.15981454298E+04  0.16074367616E+04  0.17227525340E+03 0.  0.
         24    2    3    3    0    0 -0.14213446032E+02 -0.34872881834E+02 -0.45087759105E+03  0.45958386479E+03  0.80675812547E+02 0.  0.
         -6    2    1    2    0  502  0.10188969096E+02 -0.12448763854E+01 -0.62289843970E+02  0.18582229456E+03  0.17476995075E+03 0.  0.
        -24    2    5    5    0    0 -0.29643521155E+02  0.40475672047E+02 -0.79688689782E+02  0.12539017333E+03  0.82797282047E+02 0.  0.
          5    1    3    3  501    0  0.40244769357E+01  0.36117758219E+02 -0.11472678388E+04  0.11478528968E+04  0.47000000000E+01 0. -1.
        -11    1    4    4    0    0  0.24799440431E+02  0.10863970133E+02 -0.18668819002E+03  0.18864124253E+03  0.00000000000E+00 0.  1.
         12    1    4    4    0    0 -0.39012886463E+02 -0.45736851967E+02 -0.26418940103E+03  0.27094262226E+03  0.00000000000E+00 0. -1.
         -5    1    5    5    0  502  0.39832490251E+02 -0.41720548432E+02  0.17398845812E+02  0.60432121233E+02  0.47000000000E+01 0.  1.
         13    1    6    6    0    0  0.52677664040E+01  0.56149577373E+02 -0.34242437502E+02  0.65977791173E+02  0.00000000000E+00 0. -1.
        -14    1    6    6    0    0 -0.34911287559E+02 -0.15673905326E+02 -0.45446252280E+02  0.59412382157E+02  0.00000000000E+00 0.  1.
<mgrwt>
<rscale>  2 0.17444520E+03</rscale>
<asrwt>0</asrwt>
<pdfrwt beam="1">  1       21 0.10217214E-01 0.17507113E+03</pdfrwt>
<pdfrwt beam="2">  1       21 0.26566880E+00 0.17507113E+03</pdfrwt>
<totfact> 0.42929206E+03</totfact>
</mgrwt>
</event>
<event>
12    1  0.1029207E-001  0.2533261E+03  0.7546771E-02  0.1111261E+00
         21   -1    0    0  503  502  0.00000000000E+00  0.00000000000E+00  0.13565731249E+03  0.13565731249E+03  0.00000000000E+00 0.  1.
         21   -1    0    0  501  503 -0.00000000000E+00 -0.00000000000E+00 -0.62994824815E+03  0.62994824815E+03  0.00000000000E+00 0.  1.
          6    2    1    2  501    0 -0.18312163581E+03 -0.28859835134E+02 -0.43857641423E+03  0.50648137386E+03  0.17264902944E+03 0.  0.
         24    2    3    3    0    0 -0.19077908836E+03  0.16365389207E+02 -0.36189494503E+03  0.41700458796E+03  0.79122617636E+02 0.  0.
         -6    2    1    2    0  502  0.18312163581E+03  0.28859835134E+02 -0.55714521423E+02  0.25912418678E+03  0.17226378811E+03 0.  0.
        -24    2    5    5    0    0  0.39080638754E+02  0.41821276776E+02 -0.52465327168E+02  0.11438837551E+03  0.83998657012E+02 0.  0.
          5    1    3    3  501    0  0.76574525569E+01 -0.45225224342E+02 -0.76681469201E+02  0.89476785901E+02  0.47000000000E+01 0. -1.
        -13    1    4    4    0    0 -0.55816470327E+02  0.29913816988E+02 -0.17477030730E+03  0.18588968535E+03  0.00000000000E+00 0.  1.
         14    1    4    4    0    0 -0.13496261803E+03 -0.13548427781E+02 -0.18712463773E+03  0.23111490261E+03  0.00000000000E+00 0. -1.
         -5    1    5    5    0  502  0.14404099705E+03 -0.12961441642E+02 -0.32491942542E+01  0.14473581127E+03  0.47000000000E+01 0.  1.
         13    1    6    6    0    0 -0.68446136078E+01 -0.13093288270E+02 -0.38787597108E+02  0.41506151624E+02  0.00000000000E+00 0. -1.
        -14    1    6    6    0    0  0.45925252362E+02  0.54914565046E+02 -0.13677730060E+02  0.72882223884E+02  0.00000000000E+00 0.  1.
<mgrwt>
<rscale>  2 0.25326047E+03</rscale>
<asrwt>0</asrwt>
<pdfrwt beam="1">  1       21 0.20870355E-01 0.25332610E+03</pdfrwt>
<pdfrwt beam="2">  1       21 0.96915118E-01 0.25332610E+03</pdfrwt>
<totfact> 0.18203190E+04</totfact>
</mgrwt>
</event>
<event>
12    1  0.1029207E-001  0.2588547E+03  0.7546771E-02  0.1109749E+00
         21   -1    0    0  501  502  0.00000000000E+00  0.00000000000E+00  0.53005021618E+03  0.53005021618E+03  0.00000000000E+00 0.  1.
         21   -1    0    0  502  503 -0.00000000000E+00 -0.00000000000E+00 -0.25743495848E+03  0.25743495848E+03  0.00000000000E+00 0.  1.
         -6    2    1    2    0  503 -0.16557844890E+03 -0.65136535731E+02 -0.14930991572E+03  0.29882972603E+03  0.18800734879E+03 0.  0.
        -24    2    3    3    0    0 -0.17889952001E+03 -0.10029733135E+03 -0.12491502608E+03  0.25376385063E+03  0.82022772522E+02 0.  0.
          6    2    1    2  501    0  0.16557844890E+03  0.65136535731E+02  0.42192517342E+03  0.48865544863E+03  0.17059983731E+03 0.  0.
         24    2    5    5    0    0  0.17702935811E+03  0.16248681560E+02  0.32160597464E+03  0.37637376157E+03  0.81384225674E+02 0.  0.
          5    1    5    5  501    0 -0.11450909210E+02  0.48887854171E+02  0.10031919878E+03  0.11228168707E+03  0.47000000000E+01 0. -1.
        -13    1    6    6    0    0  0.16727608833E+03  0.76157958486E+01  0.32243425461E+03  0.36332236185E+03  0.00000000000E+00 0.  1.
         14    1    6    6    0    0  0.97532697757E+01  0.86328857112E+01 -0.82827996572E+00  0.13051399723E+02  0.00000000000E+00 0. -1.
         -5    1    3    3    0  503  0.13321071112E+02  0.35160795622E+02 -0.24394889644E+02  0.45065875395E+02  0.47000000000E+01 0.  1.
         13    1    4    4    0    0 -0.83632352439E+01  0.73677259990E+01  0.66376184917E+01  0.12972473526E+02  0.00000000000E+00 0. -1.
        -14    1    4    4    0    0 -0.17053628477E+03 -0.10766505735E+03 -0.13155264457E+03  0.24079137711E+03  0.00000000000E+00 0.  1.
<mgrwt>
<rscale>  2 0.25570970E+03</rscale>
<asrwt>0</asrwt>
<pdfrwt beam="1">  1       21 0.81546187E-01 0.25885470E+03</pdfrwt>
<pdfrwt beam="2">  1       21 0.39605378E-01 0.25885470E+03</pdfrwt>
<totfact> 0.77559549E+03</totfact>
</mgrwt>
</event>
<event>
12    1  0.1029207E-001  0.1781029E+03  0.7546771E-02  0.1169735E+00
         21   -1    0    0  501  502  0.00000000000E+00  0.00000000000E+00  0.37224758297E+02  0.37224758297E+02  0.00000000000E+00 0.  1.
         21   -1    0    0  502  503 -0.00000000000E+00 -0.00000000000E+00 -0.12660968752E+04  0.12660968752E+04  0.00000000000E+00 0.  1.
         -6    2    1    2    0  503  0.29447092861E+02  0.23353206834E+02 -0.98817620981E+03  0.10040980330E+04  0.17409231686E+03 0.  0.
        -24    2    3    3    0    0  0.52322623527E+02 -0.41794046322E+02 -0.69348152995E+03  0.70138612573E+03  0.80879328250E+02 0.  0.
          6    2    1    2  501    0 -0.29447092861E+02 -0.23353206834E+02 -0.24069590707E+03  0.29922360042E+03  0.17374619369E+03 0.  0.
         24    2    5    5    0    0 -0.70626624112E+02 -0.46330657808E+02 -0.21888183322E+03  0.24705406080E+03  0.77406731966E+02 0.  0.
          5    1    5    5  501    0  0.41179531251E+02  0.22977450973E+02 -0.21814073844E+02  0.52169539627E+02  0.47000000000E+01 0. -1.
        -13    1    6    6    0    0 -0.14131626914E+02 -0.36235257434E+02 -0.16066524826E+03  0.16530583401E+03  0.00000000000E+00 0.  1.
         14    1    6    6    0    0 -0.56494997198E+02 -0.10095400374E+02 -0.58216584964E+02  0.81748226782E+02  0.00000000000E+00 0. -1.
         -5    1    3    3    0  503 -0.22875530665E+02  0.65147253156E+02 -0.29469467985E+03  0.30271190731E+03  0.47000000000E+01 0.  1.
         11    1    4    4    0    0 -0.16039315673E+02 -0.83566378539E+01 -0.30411617906E+03  0.30465348088E+03  0.00000000000E+00 0. -1.
        -12    1    4    4    0    0  0.68361939200E+02 -0.33437408468E+02 -0.38936535089E+03  0.39673264485E+03  0.00000000000E+00 0.  1.
<mgrwt>
<rscale>  2 0.17801825E+03</rscale>
<asrwt>0</asrwt>
<pdfrwt beam="1">  1       21 0.57268852E-02 0.17810289E+03</pdfrwt>
<pdfrwt beam="2">  1       21 0.19478416E+00 0.17810289E+03</pdfrwt>
<totfact> 0.31305393E+04</totfact>
</mgrwt>
</event>
<event>
12    1  0.1029207E-001  0.2004826E+03  0.7546771E-02  0.1149610E+00
         21   -1    0    0  503  502  0.00000000000E+00  0.00000000000E+00  0.13545989525E+03  0.13545989525E+03  0.00000000000E+00 0.  1.
         21   -1    0    0  501  503 -0.00000000000E+00 -0.00000000000E+00 -0.29788043406E+03  0.29788043406E+03  0.00000000000E+00 0.  1.
          6    2    1    2  501    0  0.11283616149E+02  0.10048369914E+03 -0.59341643259E+02  0.20908063855E+03  0.17311553658E+03 0.  0.
         24    2    3    3    0    0  0.61730050291E+02  0.78275117264E+02 -0.78616718744E+02  0.15050007555E+03  0.80821353507E+02 0.  0.
         -6    2    1    2    0  502 -0.11283616149E+02 -0.10048369914E+03 -0.10307889555E+03  0.22425969076E+03  0.17158920830E+03 0.  0.
        -24    2    5    5    0    0 -0.87867331828E+01  0.15961110206E+02 -0.36036773193E+02  0.89789009127E+02  0.80196342927E+02 0.  0.
          5    1    3    3  501    0 -0.50446434141E+02  0.22208581877E+02  0.19275075485E+02  0.58580563001E+02  0.47000000000E+01 0. -1.
        -13    1    4    4    0    0  0.23242690065E+02  0.65845000950E+02 -0.95696125198E+01  0.70479530896E+02  0.00000000000E+00 0.  1.
         14    1    4    4    0    0  0.38487360226E+02  0.12430116315E+02 -0.69047106224E+02  0.80020544654E+02  0.00000000000E+00 0. -1.
         -5    1    5    5    0  502 -0.24968829666E+01 -0.11644480935E+03 -0.67042122356E+02  0.13447068163E+03  0.47000000000E+01 0.  1.
         13    1    6    6    0    0  0.32685384146E+02  0.15270242886E+02 -0.31807517453E+02  0.48096079061E+02  0.00000000000E+00 0. -1.
        -14    1    6    6    0    0 -0.41472117328E+02  0.69086731991E+00 -0.42292557401E+01  0.41692930066E+02  0.00000000000E+00 0.  1.
<mgrwt>
<rscale>  2 0.20015269E+03</rscale>
<asrwt>0</asrwt>
<pdfrwt beam="1">  1       21 0.20839984E-01 0.20048262E+03</pdfrwt>
<pdfrwt beam="2">  1       21 0.45827759E-01 0.20048262E+03</pdfrwt>
<totfact> 0.97240179E+04</totfact>
</mgrwt>
</event>
<event>
12    1  0.1029207E-001  0.1913482E+03  0.7546771E-02  0.1158695E+00
         21   -1    0    0  503  502  0.00000000000E+00  0.00000000000E+00  0.42056608272E+02  0.42056608272E+02  0.00000000000E+00 0.  1.
         21   -1    0    0  501  503 -0.00000000000E+00 -0.00000000000E+00 -0.22082309665E+04  0.22082309665E+04  0.00000000000E+00 0.  1.
          6    2    1    2  501    0 -0.61855111827E+02 -0.23190282878E+02 -0.19610987410E+04  0.19698055738E+04  0.17280590930E+03 0.  0.
         24    2    3    3    0    0 -0.13362336422E+02 -0.90580131449E+01 -0.42886986997E+03  0.43673718859E+03  0.80928405969E+02 0.  0.
         -6    2    1    2    0  502  0.61855111827E+02  0.23190282878E+02 -0.20507561717E+03  0.28048200098E+03  0.17958368533E+03 0.  0.
        -24    2    5    5    0    0 -0.16149693278E+02 -0.35177326284E+02 -0.97097560523E+02  0.13497296986E+03  0.85390335851E+02 0.  0.
          5    1    3    3  501    0 -0.48492775405E+02 -0.14132269733E+02 -0.15322288710E+04  0.15330683852E+04  0.47000000000E+01 0. -1.
        -11    1    4    4    0    0 -0.35668590938E+02  0.18937089383E+02 -0.30927320617E+03  0.31189866589E+03  0.00000000000E+00 0.  1.
         12    1    4    4    0    0  0.22306254516E+02 -0.27995102528E+02 -0.11959666380E+03  0.12483852270E+03  0.00000000000E+00 0. -1.
         -5    1    5    5    0  502  0.78004805105E+02  0.58367609162E+02 -0.10797805664E+03  0.14550903111E+03  0.47000000000E+01 0.  1.
         13    1    6    6    0    0 -0.39870768474E+02 -0.15179229202E+02 -0.94685991973E+02  0.10385337863E+03  0.00000000000E+00 0. -1.
        -14    1    6    6    0    0  0.23721075196E+02 -0.19998097082E+02 -0.24115685497E+01  0.31119591228E+02  0.00000000000E+00 0.  1.
<mgrwt>
<rscale>  2 0.18974154E+03</rscale>
<asrwt>0</asrwt>
<pdfrwt beam="1">  1       21 0.64702474E-02 0.19134823E+03</pdfrwt>
<pdfrwt beam="2">  1       21 0.33972784E+00 0.19134823E+03</pdfrwt>
<totfact> 0.34870021E+03</totfact>
</mgrwt>
</event>
<event>
12    1  0.1029207E-001  0.2890878E+03  0.7546771E-02  0.1090895E+00
         21   -1    0    0  503  502  0.00000000000E+00  0.00000000000E+00  0.76398821943E+03  0.76398821943E+03  0.00000000000E+00 0. -1.
         21   -1    0    0  501  503 -0.00000000000E+00 -0.00000000000E+00 -0.15350474381E+03  0.15350474381E+03  0.00000000000E+00 0. -1.
          6    2    1    2  501    0  0.21360454948E+03 -0.88669389558E+02  0.55191710622E+03  0.62304432139E+03  0.17344327621E+03 0.  0.
         24    2    3    3    0    0  0.47885588451E+02  0.92658006227E+01  0.14370111709E+03  0.17169472372E+03  0.80313027963E+02 0.  0.
         -6    2    1    2    0  502 -0.21360454948E+03  0.88669389558E+02  0.58566369391E+02  0.29444864186E+03  0.17257119940E+03 0.  0.
        -24    2    5    5    0    0 -0.72373449101E+02  0.98372426826E+02  0.15181540415E+02  0.14631118531E+03  0.79129218894E+02 0.  0.
          5    1    3    3  501    0  0.16571896103E+03 -0.97935190181E+02  0.40821598914E+03  0.45134959766E+03  0.47000000000E+01 0. -1.
        -13    1    4    4    0    0  0.48305470376E+02  0.35410015734E+02  0.12767790501E+03  0.14102813588E+03  0.00000000000E+00 0.  1.
         14    1    4    4    0    0 -0.41988192505E+00 -0.26144215111E+02  0.16023212073E+02  0.30666587840E+02  0.00000000000E+00 0. -1.
         -5    1    5    5    0  502 -0.14123110038E+03 -0.97030372679E+01  0.43384828976E+02  0.14813745655E+03  0.47000000000E+01 0.  1.
         11    1    6    6    0    0 -0.60064162659E+02  0.37033481213E+02  0.37473485558E+02  0.79896461039E+02  0.00000000000E+00 0. -1.
        -12    1    6    6    0    0 -0.12309286442E+02  0.61338945613E+02 -0.22291945143E+02  0.66414724270E+02  0.00000000000E+00 0.  1.
<mgrwt>
<rscale>  2 0.28895708E+03</rscale>
<asrwt>0</asrwt>
<pdfrwt beam="1">  1       21 0.11753665E+00 0.28908776E+03</pdfrwt>
<pdfrwt beam="2">  1       21 0.23616115E-01 0.28908776E+03</pdfrwt>
<totfact> 0.88450661E+03</totfact>
</mgrwt>
</event>
<event>
12    1  0.1029207E-001  0.1910900E+03  0.7546771E-02  0.1157975E+00
         21   -1    0    0  501  502  0.00000000000E+00  0.00000000000E+00  0.23331595022E+03  0.23331595022E+03  0.00000000000E+00 0.  1.
         21   -1    0    0  502  503 -0.00000000000E+00 -0.00000000000E+00 -0.15896942196E+03  0.15896942196E+03  0.00000000000E+00 0.  1.
         -6    2    1    2    0  503  0.48790471695E+02 -0.59042739497E+02  0.69046442352E+02  0.20112183999E+03  0.17267318293E+03 0.  0.
        -24    2    3    3    0    0 -0.28731791485E+02 -0.42777493264E+02  0.65114325856E-01  0.95980158722E+02  0.80973803520E+02 0.  0.
          6    2    1    2  501    0 -0.48790471695E+02  0.59042739497E+02  0.53000859081E+01  0.19116353219E+03  0.17506812935E+03 0.  0.
         24    2    5    5    0    0 -0.70322607550E+02  0.61358482660E+02  0.56872522235E+02  0.13503152947E+03  0.79302570187E+02 0.  0.
          5    1    5    5  501    0  0.21532135855E+02 -0.23157431626E+01 -0.51572436327E+02  0.56132002722E+02  0.47000000000E+01 0. -1.
        -13    1    6    6    0    0 -0.22687791305E+02 -0.13281750679E+02  0.35091268287E+02  0.43846754559E+02  0.00000000000E+00 0.  1.
         14    1    6    6    0    0 -0.47634816245E+02  0.74640233339E+02  0.21781253948E+02  0.91184774909E+02  0.00000000000E+00 0. -1.
         -5    1    3    3    0  503  0.77522263179E+02 -0.16265246234E+02  0.68981328026E+02  0.10514168127E+03  0.47000000000E+01 0.  1.
         11    1    4    4    0    0 -0.66748383309E+01  0.20169841295E+02  0.16947269808E+02  0.27176937255E+02  0.00000000000E+00 0. -1.
        -12    1    4    4    0    0 -0.22056953154E+02 -0.62947334559E+02 -0.16882155482E+02  0.68803221467E+02  0.00000000000E+00 0.  1.
<mgrwt>
<rscale>  2 0.19053975E+03</rscale>
<asrwt>0</asrwt>
<pdfrwt beam="1">  1       21 0.35894762E-01 0.19109004E+03</pdfrwt>
<pdfrwt beam="2">  1       21 0.24456834E-01 0.19109004E+03</pdfrwt>
<totfact> 0.11828120E+05</totfact>
</mgrwt>
</event>
<event>
12    1  0.1029207E-001  0.1829755E+03  0.7546771E-02  0.1165698E+00
         21   -1    0    0  503  502  0.00000000000E+00  0.00000000000E+00  0.17662400098E+03  0.17662400098E+03  0.00000000000E+00 0. -1.
         21   -1    0    0  501  503 -0.00000000000E+00 -0.00000000000E+00 -0.21521748625E+03  0.21521748625E+03  0.00000000000E+00 0. -1.
          6    2    1    2  501    0 -0.38813232173E+02  0.50639659893E+02 -0.91198593086E+02  0.20444368109E+03  0.17149108785E+03 0.  0.
         24    2    3    3    0    0 -0.35855970312E+01  0.55910448805E+02  0.82799345096E+01  0.98675845973E+02  0.80805510155E+02 0.  0.
         -6    2    1    2    0  502  0.38813232173E+02 -0.50639659893E+02  0.52605107816E+02  0.18739780613E+03  0.16816598416E+03 0.  0.
        -24    2    5    5    0    0  0.61543533412E+02  0.18679950438E+02  0.12379478269E+02  0.10395880899E+03  0.80731873706E+02 0.  0.
          5    1    3    3  501    0 -0.35227635142E+02 -0.52707889118E+01 -0.99478527596E+02  0.10576783512E+03  0.47000000000E+01 0. -1.
        -13    1    4    4    0    0  0.32142882618E+02  0.52493457810E+02  0.11581782018E+02  0.62632784471E+02  0.00000000000E+00 0.  1.
         14    1    4    4    0    0 -0.35728479649E+02  0.34169909951E+01 -0.33018475086E+01  0.36043061502E+02  0.00000000000E+00 0. -1.
         -5    1    5    5    0  502 -0.22730301239E+02 -0.69319610331E+02  0.40225629547E+02  0.83438997137E+02  0.47000000000E+01 0.  1.
         11    1    6    6    0    0  0.28827874205E+01  0.23194016191E+02  0.34016427503E+02  0.41272147877E+02  0.00000000000E+00 0. -1.
        -12    1    6    6    0    0  0.58660745991E+02 -0.45140657532E+01 -0.21636949233E+02  0.62686661117E+02  0.00000000000E+00 0.  1.
<mgrwt>
<rscale>  2 0.18219232E+03</rscale>
<asrwt>0</asrwt>
<pdfrwt beam="1">  1       21 0.27172923E-01 0.18297550E+03</pdfrwt>
<pdfrwt beam="2">  1       21 0.33110382E-01 0.18297550E+03</pdfrwt>
<totfact> 0.11377174E+05</totfact>
</mgrwt>
</event>
<event>
12    1  0.1029207E-001  0.1872056E+03  0.7546771E-02  0.1164709E+00
         21   -1    0    0  501  502  0.00000000000E+00  0.00000000000E+00  0.91678017755E+03  0.91678017755E+03  0.00000000000E+00 0.  1.
         21   -1    0    0  502  503 -0.00000000000E+00 -0.00000000000E+00 -0.35161732644E+02  0.35161732644E+02  0.00000000000E+00 0.  1.
         -6    2    1    2    0  503  0.44456937058E+01  0.53939038533E+01  0.45097341065E+03  0.48828574041E+03  0.18707508863E+03 0.  0.
        -24    2    3    3    0    0  0.30748468754E+02  0.72382682090E+02  0.21444254615E+03  0.24100397350E+03  0.76893358928E+02 0.  0.
          6    2    1    2  501    0 -0.44456937058E+01 -0.53939038533E+01  0.43064503426E+03  0.46365616978E+03  0.17167713842E+03 0.  0.
         24    2    5    5    0    0  0.21048332545E+02 -0.65561847189E+02  0.31551259664E+03  0.33118845685E+03  0.73458880999E+02 0.  0.
          5    1    5    5  501    0 -0.25494026251E+02  0.60167943336E+02  0.11513243761E+03  0.13246771294E+03  0.47000000000E+01 0. -1.
        -13    1    6    6    0    0  0.44701794424E+02 -0.36072012835E+02  0.13419328637E+03  0.14597012928E+03  0.00000000000E+00 0.  1.
         14    1    6    6    0    0 -0.23653461879E+02 -0.29489834354E+02  0.18131931027E+03  0.18521832757E+03  0.00000000000E+00 0. -1.
         -5    1    3    3    0  503 -0.26302775049E+02 -0.66988778237E+02  0.23653086450E+03  0.24728176691E+03  0.47000000000E+01 0.  1.
         11    1    4    4    0    0  0.25898924561E+02  0.24502291982E+02  0.17553247671E+03  0.17911662957E+03  0.00000000000E+00 0. -1.
        -12    1    4    4    0    0  0.48495441933E+01  0.47880390109E+02  0.38910069433E+02  0.61887343934E+02  0.00000000000E+00 0.  1.
<mgrwt>
<rscale>  2 0.18323448E+03</rscale>
<asrwt>0</asrwt>
<pdfrwt beam="1">  1       21 0.14104309E+00 0.18720563E+03</pdfrwt>
<pdfrwt beam="2">  1       21 0.54094980E-02 0.18720563E+03</pdfrwt>
<totfact> 0.82820219E+04</totfact>
</mgrwt>
</event>
<event>
12    1  0.1029207E-001  0.2452340E+03  0.7546771E-02  0.1116361E+00
         21   -1    0    0  503  502  0.00000000000E+00  0.00000000000E+00  0.50795028167E+03  0.50795028167E+03  0.00000000000E+00 0.  1.
         21   -1    0    0  501  503 -0.00000000000E+00 -0.00000000000E+00 -0.11973312456E+03  0.11973312456E+03  0.00000000000E+00 0. -1.
          6    2    1    2  501    0 -0.32692681650E+01 -0.17441132359E+03  0.16067623131E+03  0.29314704066E+03  0.17230304184E+03 0.  0.
         24    2    3    3    0    0 -0.49964492591E+02 -0.15916883654E+03  0.15742580643E+03  0.24369572462E+03  0.82301595495E+02 0.  0.
         -6    2    1    2    0  502  0.32692681650E+01  0.17441132359E+03  0.22754092580E+03  0.33453636558E+03  0.17236504596E+03 0.  0.
        -24    2    5    5    0    0 -0.55383508543E+02  0.56303399940E+02  0.94196856402E+02  0.14694009512E+03  0.80504272773E+02 0.  0.
          5    1    3    3  501    0  0.46695224426E+02 -0.15242487048E+02  0.32504248756E+01  0.49451316034E+02  0.47000000000E+01 0. -1.
        -13    1    4    4    0    0 -0.24086972937E+00 -0.73674626527E+02  0.11387296207E+03  0.13562838974E+03  0.00000000000E+00 0.  1.
         14    1    4    4    0    0 -0.49723622862E+02 -0.85494210018E+02  0.43552844365E+02  0.10806733489E+03  0.00000000000E+00 0. -1.
         -5    1    5    5    0  502  0.58652776708E+02  0.11810792365E+03  0.13334406940E+03  0.18759627045E+03  0.47000000000E+01 0.  1.
         13    1    6    6    0    0  0.17345658358E+02 -0.45026258074E+01  0.16698471927E+02  0.24494580375E+02  0.00000000000E+00 0. -1.
        -14    1    6    6    0    0 -0.72729166901E+02  0.60806025748E+02  0.77498384475E+02  0.12244551475E+03  0.00000000000E+00 0.  1.
<mgrwt>
<rscale>  2 0.24522309E+03</rscale>
<asrwt>0</asrwt>
<pdfrwt beam="1">  1       21 0.78146196E-01 0.24523398E+03</pdfrwt>
<pdfrwt beam="2">  1       21 0.18420481E-01 0.24523398E+03</pdfrwt>
<totfact> 0.38018733E+04</totfact>
</mgrwt>
</event>
<event>
12    1  0.1029207E-001  0.1866585E+03  0.7546771E-02  0.1161744E+00
         21   -1    0    0  503  502  0.00000000000E+00  0.00000000000E+00  0.12672616017E+03  0.12672616017E+03  0.00000000000E+00 0. -1.
         21   -1    0    0  501  503 -0.00000000000E+00 -0.00000000000E+00 -0.27594159546E+03  0.27594159546E+03  0.00000000000E+00 0.  1.
          6    2    1    2  501    0  0.34165270163E+02 -0.57080533119E+02 -0.55275549681E+02  0.19370337537E+03  0.17332096899E+03 0.  0.
         24    2    3    3    0    0 -0.39674187762E+02  0.49705746011E+01 -0.30180449933E+02  0.93931337465E+02  0.79457465436E+02 0.  0.
         -6    2    1    2    0  502 -0.34165270163E+02  0.57080533119E+02 -0.93939885604E+02  0.20896438027E+03  0.17440171205E+03 0.  0.
        -24    2    5    5    0    0  0.27154588840E+02  0.44407586609E+02  0.13812216503E+00  0.95856068337E+02  0.80491995352E+02 0.  0.
          5    1    3    3  501    0  0.73839457926E+02 -0.62051107720E+02 -0.25095099749E+02  0.99772037904E+02  0.47000000000E+01 0. -1.
        -13    1    4    4    0    0  0.13643740015E+02 -0.23434969248E+02 -0.17285186785E+02  0.32157846748E+02  0.00000000000E+00 0.  1.
         14    1    4    4    0    0 -0.53317927777E+02  0.28405543849E+02 -0.12895263148E+02  0.61773490718E+02  0.00000000000E+00 0. -1.
         -5    1    5    5    0  502 -0.61319859003E+02  0.12672946510E+02 -0.94078007769E+02  0.11310831193E+03  0.47000000000E+01 0.  1.
         13    1    6    6    0    0 -0.85801700423E+01 -0.20243196963E+02  0.15931512726E-01  0.21986509388E+02  0.00000000000E+00 0. -1.
        -14    1    6    6    0    0  0.35734758882E+02  0.64650783572E+02  0.12219065230E+00  0.73869558950E+02  0.00000000000E+00 0.  1.
<mgrwt>
<rscale>  2 0.18640568E+03</rscale>
<asrwt>0</asrwt>
<pdfrwt beam="1">  1       21 0.19496333E-01 0.18665854E+03</pdfrwt>
<pdfrwt beam="2">  1       21 0.42452553E-01 0.18665854E+03</pdfrwt>
<totfact> 0.12949956E+05</totfact>
</mgrwt>
</event>
<event>
12    1  0.1029207E-001  0.2534618E+03  0.7546771E-02  0.1111403E+00
         21   -1    0    0  503  502  0.00000000000E+00  0.00000000000E+00  0.17284360133E+03  0.17284360133E+03  0.00000000000E+00 0. -1.
         21   -1    0    0  501  503 -0.00000000000E+00 -0.00000000000E+00 -0.70652178850E+03  0.70652178850E+03  0.00000000000E+00 0.  1.
          6    2    1    2  501    0  0.58463125343E+02  0.17754482537E+03  0.36506987395E+02  0.25607738675E+03  0.17118050659E+03 0.  0.
         24    2    3    3    0    0  0.89338289369E+02  0.11385971031E+03  0.67007321247E+02  0.17886708952E+03  0.80982041426E+02 0.  0.
         -6    2    1    2    0  502 -0.58463125343E+02 -0.17754482537E+03 -0.57018517457E+03  0.62328800307E+03  0.16863184585E+03 0.  0.
        -24    2    5    5    0    0 -0.29643835300E+02 -0.58332689326E+02 -0.39154526488E+03  0.40654762337E+03  0.87702998843E+02 0.  0.
          5    1    3    3  501    0 -0.30875164026E+02  0.63685115057E+02 -0.30500333852E+02  0.77210297231E+02  0.47000000000E+01 0. -1.
        -11    1    4    4    0    0  0.27416054287E+02 -0.31384917566E+01 -0.51983602458E+01  0.28080475644E+02  0.00000000000E+00 0.  1.
         12    1    4    4    0    0  0.61922235082E+02  0.11699820207E+03  0.72205681493E+02  0.15078661388E+03  0.00000000000E+00 0. -1.
         -5    1    5    5    0  502 -0.28819290043E+02 -0.11921213604E+03 -0.17863990969E+03  0.21674037970E+03  0.47000000000E+01 0.  1.
         11    1    6    6    0    0  0.14465288838E+02  0.47455950056E+01 -0.12304285450E+02  0.19574490889E+02  0.00000000000E+00 0. -1.
        -12    1    6    6    0    0 -0.44109124138E+02 -0.63078284332E+02 -0.37924097943E+03  0.38697313248E+03  0.00000000000E+00 0.  1.
<mgrwt>
<rscale>  2 0.25303211E+03</rscale>
<asrwt>0</asrwt>
<pdfrwt beam="1">  1       21 0.26591323E-01 0.25346177E+03</pdfrwt>
<pdfrwt beam="2">  1       21 0.10869566E+00 0.25346177E+03</pdfrwt>
<totfact> 0.86941952E+03</totfact>
</mgrwt>
</event>
<event>
12    1  0.1029207E-001  0.2516471E+03  0.7546771E-02  0.1112416E+00
         21   -1    0    0  501  502  0.00000000000E+00  0.00000000000E+00  0.27780741639E+04  0.27780741639E+04  0.00000000000E+00 0.  1.
         21   -1    0    0  502  503 -0.00000000000E+00 -0.00000000000E+00 -0.22887053485E+02  0.22887053485E+02  0.00000000000E+00 0. -1.
         -6    2    1    2    0  503 -0.36680061309E+02  0.17817630434E+03  0.12517832271E+04  0.12766418609E+04  0.17251368333E+03 0.  0.
        -24    2    3    3    0    0  0.28461915693E+02  0.15658148477E+03  0.99264827687E+03  0.10085321336E+04  0.80365546108E+02 0.  0.
          6    2    1    2  501    0  0.36680061309E+02 -0.17817630434E+03  0.15034038833E+04  0.15243193565E+04  0.17387938914E+03 0.  0.
         24    2    5    5    0    0  0.61092744330E+02 -0.16503973174E+03  0.14615948741E+04  0.14739345187E+04  0.72477257876E+02 0.  0.
          5    1    5    5  501    0 -0.24412683021E+02 -0.13136572601E+02  0.41809009199E+02  0.50384837821E+02  0.47000000000E+01 0. -1.
        -11    1    6    6    0    0  0.30517842791E+02 -0.13606703198E+03  0.12771899295E+04  0.12847800170E+04  0.00000000000E+00 0.  1.
         12    1    6    6    0    0  0.30574901539E+02 -0.28972699763E+02  0.18440494457E+03  0.18915450171E+03  0.00000000000E+00 0. -1.
         -5    1    3    3    0  503 -0.65141977001E+02  0.21594819574E+02  0.25913495024E+03  0.26810972724E+03  0.47000000000E+01 0.  1.
         13    1    4    4    0    0 -0.45023436725E+00 -0.71261374394E+01  0.12583391289E+02  0.14468112597E+02  0.00000000000E+00 0. -1.
        -14    1    4    4    0    0  0.28912150060E+02  0.16370762221E+03  0.98006488558E+03  0.99406402105E+03  0.00000000000E+00 0.  1.
<mgrwt>
<rscale>  2 0.25141134E+03</rscale>
<asrwt>0</asrwt>
<pdfrwt beam="1">  1       21 0.42739576E+00 0.25164710E+03</pdfrwt>
<pdfrwt beam="2">  1       21 0.35210873E-02 0.25164710E+03</pdfrwt>
<totfact> 0.26292291E+03</totfact>
</mgrwt>
</event>
<event>
12    1  0.1029207E-001  0.3226042E+03  0.7546771E-02  0.1074547E+00
         21   -1    0    0  501  502  0.00000000000E+00  0.00000000000E+00  0.82144222833E+03  0.82144222833E+03  0.00000000000E+00 0. -1.
         21   -1    0    0  502  503 -0.00000000000E+00 -0.00000000000E+00 -0.32807415143E+03  0.32807415143E+03  0.00000000000E+00 0. -1.
         -6    2    1    2    0  503 -0.14354666149E+03 -0.23028483631E+03 -0.20408268339E+03  0.38106921633E+03  0.17299495978E+03 0.  0.
        -24    2    3    3    0    0 -0.30237232496E+02 -0.40317789134E+02 -0.38272821941E+02  0.10458864582E+03  0.83271613324E+02 0.  0.
          6    2    1    2  501    0  0.14354666149E+03  0.23028483631E+03  0.69745076029E+03  0.76844716343E+03  0.17446125670E+03 0.  0.
         24    2    5    5    0    0  0.15317508236E+03  0.11729044887E+03  0.44313227519E+03  0.48995044900E+03  0.80408792493E+02 0.  0.
          5    1    5    5  501    0 -0.96284208681E+01  0.11299438744E+03  0.25431848511E+03  0.27849671443E+03  0.47000000000E+01 0. -1.
        -13    1    6    6    0    0  0.37735281646E+02  0.48065590687E+01  0.37271724325E+02  0.53256322866E+02  0.00000000000E+00 0.  1.
         14    1    6    6    0    0  0.11543980071E+03  0.11248388981E+03  0.40586055086E+03  0.43669412613E+03  0.00000000000E+00 0. -1.
         -5    1    3    3    0  503 -0.11330942899E+03 -0.18996704718E+03 -0.16580986145E+03  0.27648057050E+03  0.47000000000E+01 0.  1.
         13    1    4    4    0    0 -0.32134646535E+02 -0.56832361125E+02 -0.27238324003E+01  0.65345023084E+02  0.00000000000E+00 0. -1.
        -14    1    4    4    0    0  0.18974140390E+01  0.16514571991E+02 -0.35548989541E+02  0.39243622736E+02  0.00000000000E+00 0.  1.
<mgrwt>
<rscale>  2 0.32240638E+03</rscale>
<asrwt>0</asrwt>
<pdfrwt beam="1">  1       21 0.12637573E+00 0.32260422E+03</pdfrwt>
<pdfrwt beam="2">  1       21 0.50472947E-01 0.32260422E+03</pdfrwt>
<totfact> 0.15747733E+03</totfact>
</mgrwt>
</event>
<event>
12    1  0.1029207E-001  0.2337796E+03  0.7546771E-02  0.1124332E+00
         21   -1    0    0  503  502  0.00000000000E+00  0.00000000000E+00  0.24801646061E+02  0.24801646061E+02  0.00000000000E+00 0.  1.
         21   -1    0    0  501  503 -0.00000000000E+00 -0.00000000000E+00 -0.23065344179E+04  0.23065344179E+04  0.00000000000E+00 0.  1.
          6    2    1    2  501    0 -0.10951908263E+03 -0.10819455212E+03 -0.87869798590E+03  0.90926511263E+03  0.17593295325E+03 0.  0.
         24    2    3    3    0    0 -0.68028775575E+02 -0.47596576807E+01 -0.58704641186E+03  0.59701048318E+03  0.84542644291E+02 0.  0.
         -6    2    1    2    0  502  0.10951908263E+03  0.10819455212E+03 -0.14030347859E+04  0.14220709513E+04  0.17343208907E+03 0.  0.
        -24    2    5    5    0    0  0.98144844033E+00  0.43104113822E+02 -0.80964572575E+03  0.81531741822E+03  0.85775074281E+02 0.  0.
          5    1    3    3  501    0 -0.41490307052E+02 -0.10343489444E+03 -0.29165157405E+03  0.31225462945E+03  0.47000000000E+01 0. -1.
        -11    1    4    4    0    0 -0.58940290114E+02 -0.33431129990E+02 -0.26365405017E+03  0.27222243923E+03  0.00000000000E+00 0.  1.
         12    1    4    4    0    0 -0.90884854608E+01  0.28671472309E+02 -0.32339236169E+03  0.32478804395E+03  0.00000000000E+00 0. -1.
         -5    1    5    5    0  502  0.10853763419E+03  0.65090438298E+02 -0.59338906016E+03  0.60675353308E+03  0.47000000000E+01 0.  1.
         11    1    6    6    0    0 -0.30952702524E+02 -0.11264902983E+02 -0.27257992734E+03  0.27456289739E+03  0.00000000000E+00 0. -1.
        -12    1    6    6    0    0  0.31934150965E+02  0.54369016805E+02 -0.53706579840E+03  0.54075452083E+03  0.00000000000E+00 0.  1.
<mgrwt>
<rscale>  2 0.23330912E+03</rscale>
<asrwt>0</asrwt>
<pdfrwt beam="1">  1       21 0.38156357E-02 0.23377959E+03</pdfrwt>
<pdfrwt beam="2">  1       21 0.35485165E+00 0.23377959E+03</pdfrwt>
<totfact> 0.66211076E+03</totfact>
</mgrwt>
</event>
<event>
12    1  0.1029207E-001  0.2124943E+03  0.7546771E-02  0.1141470E+00
         21   -1    0    0  501  502  0.00000000000E+00  0.00000000000E+00  0.46413498660E+02  0.46413498660E+02  0.00000000000E+00 0.  1.
         21   -1    0    0  502  503 -0.00000000000E+00 -0.00000000000E+00 -0.98963104112E+03  0.98963104112E+03  0.00000000000E+00 0. -1.
         -6    2    1    2    0  503 -0.12406860019E+03  0.73908164978E+01 -0.58815103775E+03  0.62224984045E+03  0.16070338829E+03 0.  0.
        -24    2    3    3    0    0 -0.10133843258E+03 -0.41001880681E+02 -0.50721950792E+03  0.52513899563E+03  0.80924059354E+02 0.  0.
          6    2    1    2  501    0  0.12406860019E+03 -0.73908164978E+01 -0.35506650471E+03  0.41379469934E+03  0.17235483372E+03 0.  0.
         24    2    5    5    0    0  0.72353718745E+02 -0.57961267942E+02 -0.14376337054E+03  0.19040512028E+03  0.83615990816E+02 0.  0.
          5    1    5    5  501    0  0.51714881448E+02  0.50570451444E+02 -0.21130313417E+03  0.22338957906E+03  0.47000000000E+01 0. -1.
        -11    1    6    6    0    0  0.31205423913E+02 -0.10062878033E+02  0.64501275421E+00  0.32794146389E+02  0.00000000000E+00 0.  1.
         12    1    6    6    0    0  0.41148294831E+02 -0.47898389909E+02 -0.14440838330E+03  0.15761097389E+03  0.00000000000E+00 0. -1.
         -5    1    3    3    0  503 -0.22730167612E+02  0.48392697179E+02 -0.80931529834E+02  0.97110844817E+02  0.47000000000E+01 0.  1.
         13    1    4    4    0    0  0.83518501387E+01 -0.19276999718E+01 -0.57343951988E+01  0.10312745329E+02  0.00000000000E+00 0. -1.
        -14    1    4    4    0    0 -0.10969028272E+03 -0.39074180709E+02 -0.50148511272E+03  0.51482625030E+03  0.00000000000E+00 0.  1.
<mgrwt>
<rscale>  2 0.21012079E+03</rscale>
<asrwt>0</asrwt>
<pdfrwt beam="1">  1       21 0.71405387E-02 0.21249431E+03</pdfrwt>
<pdfrwt beam="2">  1       21 0.15225092E+00 0.21249431E+03</pdfrwt>
<totfact> 0.41520200E+04</totfact>
</mgrwt>
</event>
<event>
12    1  0.1029207E-001  0.2516074E+03  0.7546771E-02  0.1112557E+00
         21   -1    0    0  503  502  0.00000000000E+00  0.00000000000E+00  0.10797324752E+03  0.10797324752E+03  0.00000000000E+00 0.  1.
         21   -1    0    0  501  503 -0.00000000000E+00 -0.00000000000E+00 -0.60064658151E+03  0.60064658151E+03  0.00000000000E+00 0.  1.
          6    2    1    2  501    0 -0.14268665541E+03 -0.10777564947E+03 -0.30726504817E+03  0.39607777285E+03  0.17461592158E+03 0.  0.
         24    2    3    3    0    0 -0.55668020425E+02  0.13255125134E+02 -0.99882824572E+02  0.14063664872E+03  0.80792706834E+02 0.  0.
         -6    2    1    2    0  502  0.14268665541E+03  0.10777564947E+03 -0.18540828582E+03  0.31254205618E+03  0.17700630548E+03 0.  0.
        -24    2    5    5    0    0  0.51142952733E+02  0.10881424770E+03 -0.39012801989E+02  0.13981378440E+03  0.59747413948E+02 0.  0.
          5    1    3    3  501    0 -0.87018634988E+02 -0.12103077460E+03 -0.20738222359E+03  0.25544112413E+03  0.47000000000E+01 0. -1.
        -11    1    4    4    0    0 -0.71261018832E+02  0.10263000342E+02 -0.10175445754E+03  0.12464923429E+03  0.00000000000E+00 0.  1.
         12    1    4    4    0    0  0.15592998407E+02  0.29921247921E+01  0.18716329633E+01  0.15987414426E+02  0.00000000000E+00 0. -1.
         -5    1    5    5    0  502  0.91543702680E+02 -0.10385982291E+01 -0.14639548383E+03  0.17272827178E+03  0.47000000000E+01 0.  1.
         13    1    6    6    0    0 -0.84775444528E+00  0.22194047808E+02 -0.31455369917E+02  0.38506294840E+02  0.00000000000E+00 0. -1.
        -14    1    6    6    0    0  0.51990707178E+02  0.86620199888E+02 -0.75574320726E+01  0.10130748956E+03  0.00000000000E+00 0.  1.
<mgrwt>
<rscale>  2 0.25118742E+03</rscale>
<asrwt>0</asrwt>
<pdfrwt beam="1">  1       21 0.16611269E-01 0.25160744E+03</pdfrwt>
<pdfrwt beam="2">  1       21 0.92407167E-01 0.25160744E+03</pdfrwt>
<totfact> 0.31213533E+04</totfact>
</mgrwt>
</event>
<event>
12    1  0.1029207E-001  0.2022983E+03  0.7546771E-02  0.1149711E+00
         21   -1    0    0  503  502  0.00000000000E+00  0.00000000000E+00  0.18940348079E+04  0.18940348079E+04  0.00000000000E+00 0. -1.
         21   -1    0    0  501  503 -0.00000000000E+00 -0.00000000000E+00 -0.48700680052E+02  0.48700680052E+02  0.00000000000E+00 0. -1.
          6    2    1    2  501    0  0.66497364824E+02 -0.54191112291E+02  0.17693812226E+03  0.26211958377E+03  0.17332339977E+03 0.  0.
         24    2    3    3    0    0  0.93541383682E+02 -0.86565179696E+02  0.12854923678E+03  0.19775318388E+03  0.79610895373E+02 0.  0.
         -6    2    1    2    0  502 -0.66497364824E+02  0.54191112291E+02  0.16683960055E+04  0.16806159041E+04  0.18321028833E+03 0.  0.
        -24    2    5    5    0    0 -0.53359437411E+02  0.10790946194E+03  0.12847086542E+04  0.12929351852E+04  0.81935251978E+02 0.  0.
          5    1    3    3  501    0 -0.27044018859E+02  0.32374067406E+02  0.48388885486E+02  0.64366399891E+02  0.47000000000E+01 0. -1.
        -13    1    4    4    0    0  0.73137424314E+01 -0.22437865349E+02  0.73132570231E+02  0.76846089415E+02  0.00000000000E+00 0.  1.
         14    1    4    4    0    0  0.86227641251E+02 -0.64127314348E+02  0.55416666545E+02  0.12090709447E+03  0.00000000000E+00 0. -1.
         -5    1    5    5    0  502 -0.13137927413E+02 -0.53718349646E+02  0.38368735135E+03  0.38768071891E+03  0.47000000000E+01 0.  1.
         11    1    6    6    0    0 -0.31083787263E+02  0.34997827102E+02  0.19407244288E+03  0.19963757867E+03  0.00000000000E+00 0. -1.
        -12    1    6    6    0    0 -0.22275650148E+02  0.72911634835E+02  0.10906362113E+04  0.10932976066E+04  0.00000000000E+00 0.  1.
<mgrwt>
<rscale>  2 0.20003337E+03</rscale>
<asrwt>0</asrwt>
<pdfrwt beam="1">  1       21 0.29138991E+00 0.20229826E+03</pdfrwt>
<pdfrwt beam="2">  1       21 0.74924138E-02 0.20229826E+03</pdfrwt>
<totfact> 0.50902955E+03</totfact>
</mgrwt>
</event>
<event>
12    1  0.1029207E-001  0.1887843E+03  0.7546771E-02  0.1159629E+00
         21   -1    0    0  501  502  0.00000000000E+00  0.00000000000E+00  0.73517306432E+02  0.73517306432E+02  0.00000000000E+00 0.  1.
         21   -1    0    0  502  503 -0.00000000000E+00 -0.00000000000E+00 -0.71619401914E+03  0.71619401914E+03  0.00000000000E+00 0. -1.
         -6    2    1    2    0  503  0.63421281962E+02 -0.39276069073E+02 -0.54598361787E+03  0.57760504192E+03  0.17310287363E+03 0.  0.
        -24    2    3    3    0    0  0.59217488445E+02  0.31308319193E+02 -0.34624320023E+03  0.36566601251E+03  0.96645523499E+02 0.  0.
          6    2    1    2  501    0 -0.63421281962E+02  0.39276069073E+02 -0.96693094835E+02  0.21210628365E+03  0.17342044968E+03 0.  0.
         24    2    5    5    0    0 -0.40761997440E+02  0.74860367978E+02 -0.12857159369E+02  0.11813692918E+03  0.80780024516E+02 0.  0.
          5    1    5    5  501    0 -0.22659284522E+02 -0.35584298905E+02 -0.83835935466E+02  0.93969354467E+02  0.47000000000E+01 0. -1.
        -11    1    6    6    0    0  0.20855256591E+02  0.22158910163E+02 -0.20508861411E+02  0.36695673089E+02  0.00000000000E+00 0.  1.
         12    1    6    6    0    0 -0.61617254031E+02  0.52701457814E+02  0.76517020424E+01  0.81441256094E+02  0.00000000000E+00 0. -1.
         -5    1    3    3    0  503  0.42037935168E+01 -0.70584388266E+02 -0.19974041764E+03  0.21193902941E+03  0.47000000000E+01 0.  1.
         11    1    4    4    0    0  0.44949159970E+02 -0.36678286807E+01 -0.31017806114E+03  0.31343948309E+03  0.00000000000E+00 0. -1.
        -12    1    4    4    0    0  0.14268328475E+02  0.34976147874E+02 -0.36065139091E+02  0.52226529419E+02  0.00000000000E+00 0.  1.
<mgrwt>
<rscale>  2 0.18871136E+03</rscale>
<asrwt>0</asrwt>
<pdfrwt beam="1">  1       21 0.11310355E-01 0.18878432E+03</pdfrwt>
<pdfrwt beam="2">  1       21 0.11018369E+00 0.18878432E+03</pdfrwt>
<totfact> 0.42512069E+04</totfact>
</mgrwt>
</event>
<event>
12    1  0.1029207E-001  0.2065670E+03  0.7546771E-02  0.1144338E+00
         21   -1    0    0  503  502  0.00000000000E+00  0.00000000000E+00  0.27342096360E+03  0.27342096360E+03  0.00000000000E+00 0.  1.
         21   -1    0    0  501  503 -0.00000000000E+00 -0.00000000000E+00 -0.18095909978E+03  0.18095909978E+03  0.00000000000E+00 0.  1.
          6    2    1    2  501    0  0.11096373055E+03 -0.15030867240E+02 -0.38182195281E+02  0.21006620490E+03  0.17358298862E+03 0.  0.
         24    2    3    3    0    0  0.89448843411E+02 -0.72883099913E+02 -0.45894193257E+02  0.14768563015E+03  0.79948274129E+02 0.  0.
         -6    2    1    2    0  502 -0.11096373055E+03  0.15030867240E+02  0.13064405910E+03  0.24431385848E+03  0.17344311690E+03 0.  0.
        -24    2    5    5    0    0  0.57896047341E+00  0.31356628902E+02  0.86073377950E+02  0.12300047079E+03  0.82078718634E+02 0.  0.
          5    1    3    3  501    0  0.21514887137E+02  0.57852232674E+02  0.77119979769E+01  0.62380574754E+02  0.47000000000E+01 0. -1.
        -13    1    4    4    0    0  0.40573556734E+01 -0.45429653994E+02 -0.34666606432E+02  0.57289520844E+02  0.00000000000E+00 0.  1.
         14    1    4    4    0    0  0.85391487738E+02 -0.27453445920E+02 -0.11227586825E+02  0.90396109301E+02  0.00000000000E+00 0. -1.
         -5    1    5    5    0  502 -0.11154269102E+03 -0.16325761662E+02  0.44570681149E+02  0.12131338769E+03  0.47000000000E+01 0.  1.
         11    1    6    6    0    0  0.12123899039E+02  0.39298879065E+01 -0.13801924740E+02  0.18786326766E+02  0.00000000000E+00 0. -1.
        -12    1    6    6    0    0 -0.11544938565E+02  0.27426740995E+02  0.99875302690E+02  0.10421414403E+03  0.00000000000E+00 0.  1.
<mgrwt>
<rscale>  2 0.20653762E+03</rscale>
<asrwt>0</asrwt>
<pdfrwt beam="1">  1       21 0.42064763E-01 0.20656701E+03</pdfrwt>
<pdfrwt beam="2">  1       21 0.27839862E-01 0.20656701E+03</pdfrwt>
<totfact> 0.66587905E+04</totfact>
</mgrwt>
</event>
<event>
12    1  0.1029207E-001  0.1819817E+03  0.7546771E-02  0.1166310E+00
         21   -1    0    0  503  502  0.00000000000E+00  0.00000000000E+00  0.18339777400E+03  0.18339777400E+03  0.00000000000E+00 0.  1.
         21   -1    0    0  501  503 -0.00000000000E+00 -0.00000000000E+00 -0.22568696860E+03  0.22568696860E+03  0.00000000000E+00 0.  1.
          6    2    1    2  501    0  0.75679946725E+00 -0.56132078465E+02 -0.11421659677E+03  0.21340416670E+03  0.17130243550E+03 0.  0.
         24    2    3    3    0    0 -0.34532910084E+02  0.26913392290E+02 -0.91131978103E+02  0.12014697699E+03  0.64910754761E+02 0.  0.
         -6    2    1    2    0  502 -0.75679946725E+00  0.56132078465E+02  0.71927402179E+02  0.19568057591E+03  0.17310676944E+03 0.  0.
        -24    2    5    5    0    0 -0.63911740644E+02  0.15635529368E+02  0.26505656078E+02  0.10785266404E+03  0.81243257972E+02 0.  0.
          5    1    3    3  501    0  0.35289709551E+02 -0.83045470755E+02 -0.23084618671E+02  0.93257189708E+02  0.47000000000E+01 0. -1.
        -11    1    4    4    0    0  0.12656163240E+02  0.93723494818E+01 -0.57463373098E+02  0.59582368622E+02  0.00000000000E+00 0.  1.
         12    1    4    4    0    0 -0.47189073324E+02  0.17541042808E+02 -0.33668605005E+02  0.60564608369E+02  0.00000000000E+00 0. -1.
         -5    1    5    5    0  502  0.63154941177E+02  0.40496549097E+02  0.45421746100E+02  0.87827911865E+02  0.47000000000E+01 0.  1.
         11    1    6    6    0    0 -0.76238513770E+02  0.68008608846E+01  0.41037607208E+02  0.86848419076E+02  0.00000000000E+00 0. -1.
        -12    1    6    6    0    0  0.12326773126E+02  0.88346684837E+01 -0.14531951130E+02  0.21004244965E+02  0.00000000000E+00 0.  1.
<mgrwt>
<rscale>  2 0.18155130E+03</rscale>
<asrwt>0</asrwt>
<pdfrwt beam="1">  1       21 0.28215042E-01 0.18198169E+03</pdfrwt>
<pdfrwt beam="2">  1       21 0.34721072E-01 0.18198169E+03</pdfrwt>
<totfact> 0.96368905E+04</totfact>
</mgrwt>
</event>
<event>
12    1  0.1029207E-001  0.1819301E+03  0.7546771E-02  0.1166024E+00
         21   -1    0    0  501  502  0.00000000000E+00  0.00000000000E+00  0.15926924523E+03  0.15926924523E+03  0.00000000000E+00 0.  1.
         21   -1    0    0  502  503 -0.00000000000E+00 -0.00000000000E+00 -0.34759249683E+03  0.34759249683E+03  0.00000000000E+00 0.  1.
         -6    2    1    2    0  503 -0.49488784629E+02  0.22351534675E+02 -0.25512785947E+03  0.31335091389E+03  0.17363709181E+03 0.  0.
        -24    2    3    3    0    0 -0.63388774408E+02  0.30783160683E+02 -0.26995422165E+03  0.29085173506E+03  0.82180960661E+02 0.  0.
          6    2    1    2  501    0  0.49488784629E+02 -0.22351534675E+02  0.66804607875E+02  0.19351082816E+03  0.17330566660E+03 0.  0.
         24    2    5    5    0    0 -0.27619728470E+02 -0.64119619619E+00 -0.46818166747E+01  0.86042411943E+02  0.81351808291E+02 0.  0.
          5    1    5    5  501    0  0.77108513099E+02 -0.21710338479E+02  0.71486424549E+02  0.10746841622E+03  0.47000000000E+01 0. -1.
        -11    1    6    6    0    0  0.26765673697E+02 -0.13519672449E+02 -0.28735731975E+01  0.30123749012E+02  0.00000000000E+00 0.  1.
         12    1    6    6    0    0 -0.54385402168E+02  0.12878476253E+02 -0.18082434772E+01  0.55918662931E+02  0.00000000000E+00 0. -1.
         -5    1    3    3    0  503  0.13899989779E+02 -0.84316260079E+01  0.14826362178E+02  0.22499178839E+02  0.47000000000E+01 0.  1.
         11    1    4    4    0    0 -0.43686333843E+02 -0.23597133088E+02 -0.14204907834E+03  0.15047677931E+03  0.00000000000E+00 0. -1.
        -12    1    4    4    0    0 -0.19702440565E+02  0.54380293771E+02 -0.12790514331E+03  0.14037495574E+03  0.00000000000E+00 0.  1.
<mgrwt>
<rscale>  2 0.18185100E+03</rscale>
<asrwt>0</asrwt>
<pdfrwt beam="1">  1       21 0.24502961E-01 0.18193013E+03</pdfrwt>
<pdfrwt beam="2">  1       21 0.53475769E-01 0.18193013E+03</pdfrwt>
<totfact> 0.52350706E+04</totfact>
</mgrwt>
</event>
<event>
12    1  0.1029207E-001  0.2209275E+03  0.7546771E-02  0.1134720E+00
         21   -1    0    0  503  502  0.00000000000E+00  0.00000000000E+00  0.10038679965E+03  0.10038679965E+03  0.00000000000E+00 0. -1.
         21   -1    0    0  501  503 -0.00000000000E+00 -0.00000000000E+00 -0.47290260162E+03  0.47290260162E+03  0.00000000000E+00 0. -1.
          6    2    1    2  501    0 -0.12214580822E+03 -0.63040287192E+02 -0.15550712899E+03  0.26360933553E+03  0.16252303941E+03 0.  0.
         24    2    3    3    0    0 -0.15134232761E+03 -0.46927678245E+02 -0.12207082322E+03  0.21615272951E+03  0.81939059555E+02 0.  0.
         -6    2    1    2    0  502  0.12214580822E+03  0.63040287192E+02 -0.21700867298E+03  0.30968006574E+03  0.17296040788E+03 0.  0.
        -24    2    5    5    0    0  0.14264197902E+03  0.81408594397E+02 -0.14825864822E+03  0.23547667208E+03  0.80588726882E+02 0.  0.
          5    1    3    3  501    0  0.29196519391E+02 -0.16112608947E+02 -0.33436305777E+02  0.47456606027E+02  0.47000000000E+01 0. -1.
        -11    1    4    4    0    0 -0.45931286055E+01  0.15744909697E+02 -0.21475799836E+01  0.16541194381E+02  0.00000000000E+00 0.  1.
         12    1    4    4    0    0 -0.14674919901E+03 -0.62672587942E+02 -0.11992324323E+03  0.19961153513E+03  0.00000000000E+00 0. -1.
         -5    1    5    5    0  502 -0.20496170796E+02 -0.18368307205E+02 -0.68750024756E+02  0.74203393661E+02  0.47000000000E+01 0.  1.
         11    1    6    6    0    0  0.11091649641E+03  0.96042999070E+02 -0.13013823084E+03  0.19611906070E+03  0.00000000000E+00 0. -1.
        -12    1    6    6    0    0  0.31725482607E+02 -0.14634404672E+02 -0.18120417383E+02  0.39357611372E+02  0.00000000000E+00 0.  1.
<mgrwt>
<rscale>  2 0.21888125E+03</rscale>
<asrwt>0</asrwt>
<pdfrwt beam="1">  1       21 0.15444123E-01 0.22092754E+03</pdfrwt>
<pdfrwt beam="2">  1       21 0.72754248E-01 0.22092754E+03</pdfrwt>
<totfact> 0.62470472E+04</totfact>
</mgrwt>
</event>
<event>
12    1  0.1029207E-001  0.1844735E+03  0.7546771E-02  0.1163750E+00
         21   -1    0    0  503  502  0.00000000000E+00  0.00000000000E+00  0.71812812880E+02  0.71812812880E+02  0.00000000000E+00 0. -1.
         21   -1    0    0  501  503 -0.00000000000E+00 -0.00000000000E+00 -0.47275313596E+03  0.47275313596E+03  0.00000000000E+00 0. -1.
          6    2    1    2  501    0 -0.58446303374E+02 -0.17808324761E+02 -0.18754527120E+03  0.26306598977E+03  0.17406142427E+03 0.  0.
         24    2    3    3    0    0 -0.15863245362E+01  0.46639349269E+02 -0.13027865476E+03  0.15968264856E+03  0.79676063164E+02 0.  0.
         -6    2    1    2    0  502  0.58446303374E+02  0.17808324761E+02 -0.21339505188E+03  0.28149995907E+03  0.17312328549E+03 0.  0.
        -24    2    5    5    0    0 -0.92556417164E+01 -0.30641906088E+02 -0.54160155635E+02  0.10175341412E+03  0.79974005238E+02 0.  0.
          5    1    3    3  501    0 -0.56859978837E+02 -0.64447674029E+02 -0.57266616440E+02  0.10338334121E+03  0.47000000000E+01 0. -1.
        -13    1    4    4    0    0  0.30408505121E+02  0.26766171995E+02 -0.24369559117E+02  0.47275580996E+02  0.00000000000E+00 0.  1.
         14    1    4    4    0    0 -0.31994829658E+02  0.19873177273E+02 -0.10590909564E+03  0.11240706757E+03  0.00000000000E+00 0. -1.
         -5    1    5    5    0  502  0.67701945090E+02  0.48450230849E+02 -0.15923489625E+03  0.17974654495E+03  0.47000000000E+01 0.  1.
         11    1    6    6    0    0  0.30891753273E+02  0.54923418328E+01 -0.26497289428E+02  0.41067902139E+02  0.00000000000E+00 0. -1.
        -12    1    6    6    0    0 -0.40147394990E+02 -0.36134247921E+02 -0.27662866208E+02  0.60685511978E+02  0.00000000000E+00 0.  1.
<mgrwt>
<rscale>  2 0.18425191E+03</rscale>
<asrwt>0</asrwt>
<pdfrwt beam="1">  1       21 0.11048125E-01 0.18447354E+03</pdfrwt>
<pdfrwt beam="2">  1       21 0.72731252E-01 0.18447354E+03</pdfrwt>
<totfact> 0.11612245E+05</totfact>
</mgrwt>
</event>
<event>
12    1  0.1029207E-001  0.1798155E+03  0.7546771E-02  0.1168047E+00
         21   -1    0    0  501  502  0.00000000000E+00  0.00000000000E+00  0.36936720999E+03  0.36936720999E+03  0.00000000000E+00 0.  1.
         21   -1    0    0  502  503 -0.00000000000E+00 -0.00000000000E+00 -0.92958624475E+02  0.92958624475E+02  0.00000000000E+00 0.  1.
         -6    2    1    2    0  503  0.15385360269E+02 -0.45144996241E+02  0.19460242278E+03  0.26477618277E+03  0.17309403229E+03 0.  0.
        -24    2    3    3    0    0  0.48785978034E+02 -0.74051596612E+02  0.85462297939E+02  0.14694219080E+03  0.80152931669E+02 0.  0.
          6    2    1    2  501    0 -0.15385360269E+02  0.45144996241E+02  0.81806162736E+02  0.19754965170E+03  0.17337484428E+03 0.  0.
         24    2    5    5    0    0 -0.39605211087E+02  0.50357617425E+02  0.11678557046E+03  0.15442864107E+03  0.78133688872E+02 0.  0.
          5    1    5    5  501    0  0.24219850818E+02 -0.52126211844E+01 -0.34979407722E+02  0.43121010631E+02  0.47000000000E+01 0. -1.
        -11    1    6    6    0    0  0.75730496977E+01  0.43268321772E+02  0.88922371516E+02  0.99180073133E+02  0.00000000000E+00 0.  1.
         12    1    6    6    0    0 -0.47178260784E+02  0.70892956536E+01  0.27863198942E+02  0.55248567934E+02  0.00000000000E+00 0. -1.
         -5    1    3    3    0  503 -0.33400617765E+02  0.28906600371E+02  0.10914012484E+03  0.11783399197E+03  0.47000000000E+01 0.  1.
         11    1    4    4    0    0  0.53160563223E+02 -0.87292814661E+01  0.34447892346E+02  0.63944531620E+02  0.00000000000E+00 0. -1.
        -12    1    4    4    0    0 -0.43745851884E+01 -0.65322315146E+02  0.51014405593E+02  0.82997659181E+02  0.00000000000E+00 0.  1.
<mgrwt>
<rscale>  2 0.17974778E+03</rscale>
<asrwt>0</asrwt>
<pdfrwt beam="1">  1       21 0.56825724E-01 0.17981551E+03</pdfrwt>
<pdfrwt beam="2">  1       21 0.14301327E-01 0.17981551E+03</pdfrwt>
<totfact> 0.12507488E+05</totfact>
</mgrwt>
</event>
<event>
12    1  0.1029207E-001  0.1727559E+03  0.7546771E-02  0.1175578E+00
         21   -1    0    0  503  502  0.00000000000E+00  0.00000000000E+00  0.75300483509E+02  0.75300483509E+02  0.00000000000E+00 0. -1.
         21   -1    0    0  501  503 -0.00000000000E+00 -0.00000000000E+00 -0.43095569849E+03  0.43095569849E+03  0.00000000000E+00 0. -1.
          6    2    1    2  501    0 -0.47101147314E+01 -0.36946011656E+00 -0.25362364438E+03  0.30561961386E+03  0.17045842222E+03 0.  0.
         24    2    3    3    0    0  0.55224281248E+02 -0.31098878052E+02 -0.17130827739E+03  0.19915676310E+03  0.79372721585E+02 0.  0.
         -6    2    1    2    0  502  0.47101147314E+01  0.36946011656E+00 -0.10203157060E+03  0.20063656815E+03  0.17269125454E+03 0.  0.
        -24    2    5    5    0    0  0.15298232706E+02  0.86998207840E+01 -0.13924594118E+03  0.16078054565E+03  0.78429770615E+02 0.  0.
          5    1    3    3  501    0 -0.59934395979E+02  0.30729417935E+02 -0.82315366989E+02  0.10646285075E+03  0.47000000000E+01 0. -1.
        -13    1    4    4    0    0  0.84807127827E+00 -0.44869547621E+02 -0.65495735264E+02  0.79395761010E+02  0.00000000000E+00 0.  1.
         14    1    4    4    0    0  0.54376209970E+02  0.13770669569E+02 -0.10581254213E+03  0.11976100209E+03  0.00000000000E+00 0. -1.
         -5    1    5    5    0  502 -0.10588117975E+02 -0.83303606675E+01  0.37214370581E+02  0.39856022491E+02  0.47000000000E+01 0.  1.
         11    1    6    6    0    0 -0.23019324648E+02 -0.21030672658E+02 -0.65100768032E+02  0.72182328157E+02  0.00000000000E+00 0. -1.
        -12    1    6    6    0    0  0.38317557354E+02  0.29730493442E+02 -0.74145173152E+02  0.88598217497E+02  0.00000000000E+00 0.  1.
<mgrwt>
<rscale>  2 0.17219515E+03</rscale>
<asrwt>0</asrwt>
<pdfrwt beam="1">  1       21 0.11584690E-01 0.17275587E+03</pdfrwt>
<pdfrwt beam="2">  1       21 0.66300877E-01 0.17275587E+03</pdfrwt>
<totfact> 0.13137236E+05</totfact>
</mgrwt>
</event>
<event>
12    1  0.1029207E-001  0.2490988E+03  0.7546771E-02  0.1114129E+00
         21   -1    0    0  503  502  0.00000000000E+00  0.00000000000E+00  0.47974672341E+02  0.47974672341E+02  0.00000000000E+00 0. -1.
         21   -1    0    0  501  503 -0.00000000000E+00 -0.00000000000E+00 -0.19183139705E+04  0.19183139705E+04  0.00000000000E+00 0.  1.
          6    2    1    2  501    0  0.16571065198E+03  0.66428998929E+02 -0.15020072819E+04  0.15225229357E+04  0.17371638557E+03 0.  0.
         24    2    3    3    0    0  0.54931172535E+02  0.33499965453E+02 -0.10833425699E+04  0.10881744058E+04  0.79704029197E+02 0.  0.
         -6    2    1    2    0  502 -0.16571065198E+03 -0.66428998929E+02 -0.36833201623E+03  0.44376570716E+03  0.17142548409E+03 0.  0.
        -24    2    5    5    0    0 -0.70767919388E+02 -0.97700172652E+02 -0.18908750235E+03  0.23847884802E+03  0.81022560195E+02 0.  0.
          5    1    3    3  501    0  0.11077947944E+03  0.32929033476E+02 -0.41866471205E+03  0.43434852990E+03  0.47000000000E+01 0. -1.
        -11    1    4    4    0    0  0.54450280239E+02  0.55694756123E+02 -0.73230828923E+03  0.73643884291E+03  0.00000000000E+00 0.  1.
         12    1    4    4    0    0  0.48089229639E+00 -0.22194790671E+02 -0.35103428064E+03  0.35173556285E+03  0.00000000000E+00 0. -1.
         -5    1    5    5    0  502 -0.94942732592E+02  0.31271173724E+02 -0.17924451388E+03  0.20528685914E+03  0.47000000000E+01 0.  1.
         11    1    6    6    0    0 -0.19158112612E+02 -0.76989769205E+01  0.23047200419E+01  0.20775448466E+02  0.00000000000E+00 0. -1.
        -12    1    6    6    0    0 -0.51609806776E+02 -0.90001195732E+02 -0.19139222239E+03  0.21770339956E+03  0.00000000000E+00 0.  1.
<mgrwt>
<rscale>  2 0.24869980E+03</rscale>
<asrwt>0</asrwt>
<pdfrwt beam="1">  1       21 0.73807204E-02 0.24909881E+03</pdfrwt>
<pdfrwt beam="2">  1       21 0.29512516E+00 0.24909881E+03</pdfrwt>
<totfact> 0.47447625E+03</totfact>
</mgrwt>
</event>
<event>
12    1  0.1029207E-001  0.2311596E+03  0.7546771E-02  0.1127258E+00
         21   -1    0    0  501  502  0.00000000000E+00  0.00000000000E+00  0.11605152210E+03  0.11605152210E+03  0.00000000000E+00 0. -1.
         21   -1    0    0  502  503 -0.00000000000E+00 -0.00000000000E+00 -0.53301797135E+03  0.53301797135E+03  0.00000000000E+00 0.  1.
         -6    2    1    2    0  503 -0.21357123222E+02 -0.14002898838E+03 -0.33759060876E+03  0.40466143538E+03  0.17239261544E+03 0.  0.
        -24    2    3    3    0    0 -0.67638939238E+02 -0.89860307873E+02 -0.28996257487E+03  0.32129823840E+03  0.80649625791E+02 0.  0.
          6    2    1    2  501    0  0.21357123222E+02  0.14002898838E+03 -0.79375840492E+02  0.24440805807E+03  0.18267602606E+03 0.  0.
         24    2    5    5    0    0  0.30433654893E+02  0.17238145891E+03 -0.49380312403E+02  0.19912133284E+03  0.81051312222E+02 0.  0.
          5    1    5    5  501    0 -0.90765316709E+01 -0.32352470530E+02 -0.29995528088E+02  0.45286725228E+02  0.47000000000E+01 0. -1.
        -13    1    6    6    0    0 -0.14455426817E+02  0.96211816955E+02 -0.52696477164E+02  0.11064624617E+03  0.00000000000E+00 0.  1.
         14    1    6    6    0    0  0.44889081710E+02  0.76169641958E+02  0.33161647610E+01  0.88475086672E+02  0.00000000000E+00 0. -1.
         -5    1    3    3    0  503  0.46281816016E+02 -0.50168680510E+02 -0.47628033890E+02  0.83363196976E+02  0.47000000000E+01 0.  1.
         11    1    4    4    0    0 -0.42744552681E+02 -0.19571099375E+01 -0.58672387617E+02  0.72618015202E+02  0.00000000000E+00 0. -1.
        -12    1    4    4    0    0 -0.24894386558E+02 -0.87903197936E+02 -0.23129018726E+03  0.24868022320E+03  0.00000000000E+00 0.  1.
<mgrwt>
<rscale>  2 0.22912350E+03</rscale>
<asrwt>0</asrwt>
<pdfrwt beam="1">  1       21 0.17854080E-01 0.23115963E+03</pdfrwt>
<pdfrwt beam="2">  1       21 0.82002765E-01 0.23115963E+03</pdfrwt>
<totfact> 0.36341922E+04</totfact>
</mgrwt>
</event>
<event>
12    1  0.1029207E-001  0.2189880E+03  0.7546771E-02  0.1134812E+00
         21   -1    0    0  501  502  0.00000000000E+00  0.00000000000E+00  0.12865225305E+03  0.12865225305E+03  0.00000000000E+00 0. -1.
         21   -1    0    0  502  503 -0.00000000000E+00 -0.00000000000E+00 -0.38414691027E+03  0.38414691027E+03  0.00000000000E+00 0.  1.
         -6    2    1    2    0  503  0.89522106459E+02 -0.99914771540E+02 -0.80404491866E+02  0.23242030069E+03  0.17192191467E+03 0.  0.
        -24    2    3    3    0    0  0.86046289243E+02 -0.12504049175E+03 -0.97568815561E+02  0.20143502791E+03  0.89539422765E+02 0.  0.
          6    2    1    2  501    0 -0.89522106459E+02  0.99914771540E+02 -0.17509016535E+03  0.28037886264E+03  0.17308544565E+03 0.  0.
         24    2    5    5    0    0 -0.21095555735E+02 -0.10565435535E+02 -0.66137892311E+02  0.11072994045E+03  0.85616867575E+02 0.  0.
          5    1    5    5  501    0 -0.68426550724E+02  0.11048020708E+03 -0.10895227304E+03  0.16964892219E+03  0.47000000000E+01 0. -1.
        -13    1    6    6    0    0 -0.34314607558E+02 -0.30211655808E+02 -0.72947752199E+02  0.86090713723E+02  0.00000000000E+00 0.  1.
         14    1    6    6    0    0  0.13219051824E+02  0.19646220273E+02  0.68098598872E+01  0.24639226729E+02  0.00000000000E+00 0. -1.
         -5    1    3    3    0  503  0.34758172154E+01  0.25125720208E+02  0.17164323695E+02  0.30985272779E+02  0.47000000000E+01 0.  1.
         11    1    4    4    0    0  0.81255865797E+02 -0.58462326421E+02 -0.25696841266E+02  0.10334740920E+03  0.00000000000E+00 0. -1.
        -12    1    4    4    0    0  0.47904234468E+01 -0.66578165326E+02 -0.71871974295E+02  0.98087618709E+02  0.00000000000E+00 0.  1.
<mgrwt>
<rscale>  2 0.21875801E+03</rscale>
<asrwt>0</asrwt>
<pdfrwt beam="1">  1       21 0.19792655E-01 0.21898799E+03</pdfrwt>
<pdfrwt beam="2">  1       21 0.59099524E-01 0.21898799E+03</pdfrwt>
<totfact> 0.62252191E+04</totfact>
</mgrwt>
</event>
<event>
12    1  0.1029207E-001  0.1954191E+03  0.7546771E-02  0.1153850E+00
         21   -1    0    0  501  502  0.00000000000E+00  0.00000000000E+00  0.28468582560E+03  0.28468582560E+03  0.00000000000E+00 0. -1.
         21   -1    0    0  502  503 -0.00000000000E+00 -0.00000000000E+00 -0.24287601048E+03  0.24287601048E+03  0.00000000000E+00 0. -1.
         -6    2    1    2    0  503  0.57210468668E+02 -0.73539659409E+02  0.19790272500E+03  0.27812604732E+03  0.17177744440E+03 0.  0.
        -24    2    3    3    0    0  0.63131319495E+01 -0.54649031038E+02  0.20107296764E+03  0.22354092880E+03  0.80708340988E+02 0.  0.
          6    2    1    2  501    0 -0.57210468668E+02  0.73539659409E+02 -0.15609290988E+03  0.24943578876E+03  0.17079841032E+03 0.  0.
         24    2    5    5    0    0 -0.92959148907E+02  0.14410705822E+02 -0.87101418495E+02  0.15168039415E+03  0.81063019052E+02 0.  0.
          5    1    5    5  501    0  0.35748680239E+02  0.59128953586E+02 -0.68991491384E+02  0.97755394605E+02  0.47000000000E+01 0. -1.
        -13    1    6    6    0    0 -0.20879410151E+02  0.19625292442E+02  0.10253486613E+02  0.30434123274E+02  0.00000000000E+00 0.  1.
         14    1    6    6    0    0 -0.72079738756E+02 -0.52145866198E+01 -0.97354905108E+02  0.12124627088E+03  0.00000000000E+00 0. -1.
         -5    1    3    3    0  503  0.50897336719E+02 -0.18890628371E+02 -0.31702426402E+01  0.54585118519E+02  0.47000000000E+01 0.  1.
         11    1    4    4    0    0  0.46178191696E+01 -0.28427107444E+02  0.19427647810E+03  0.19639952809E+03  0.00000000000E+00 0. -1.
        -12    1    4    4    0    0  0.16953127799E+01 -0.26221923594E+02  0.67964895404E+01  0.27141400710E+02  0.00000000000E+00 0.  1.
<mgrwt>
<rscale>  2 0.19520370E+03</rscale>
<asrwt>0</asrwt>
<pdfrwt beam="1">  1       21 0.43797820E-01 0.19541906E+03</pdfrwt>
<pdfrwt beam="2">  1       21 0.37365540E-01 0.19541906E+03</pdfrwt>
<totfact> 0.34551720E+04</totfact>
</mgrwt>
</event>
<event>
12    1  0.1029207E-001  0.1794162E+03  0.7546771E-02  0.1168730E+00
         21   -1    0    0  501  502  0.00000000000E+00  0.00000000000E+00  0.41095559975E+02  0.41095559975E+02  0.00000000000E+00 0.  1.
         21   -1    0    0  502  503 -0.00000000000E+00 -0.00000000000E+00 -0.23713307290E+04  0.23713307290E+04  0.00000000000E+00 0.  1.
         -6    2    1    2    0  503  0.41562635360E+02  0.10252421662E+02 -0.21557798734E+04  0.21632330085E+04  0.17423438736E+03 0.  0.
        -24    2    3    3    0    0  0.92072451340E+02 -0.11666056549E+02 -0.13816657401E+04  0.13871489650E+04  0.81046903662E+02 0.  0.
          6    2    1    2  501    0 -0.41562635360E+02 -0.10252421662E+02 -0.17445529565E+03  0.24919328049E+03  0.17271385600E+03 0.  0.
         24    2    5    5    0    0  0.37041888792E+02 -0.33073107502E+02 -0.10293808876E+03  0.14039872272E+03  0.81545197641E+02 0.  0.
          5    1    5    5  501    0 -0.78604524152E+02  0.22820685840E+02 -0.71517206890E+02  0.10879455777E+03  0.47000000000E+01 0. -1.
        -13    1    6    6    0    0  0.51110130727E+02  0.14911886476E+01 -0.32215242615E+02  0.60434187041E+02  0.00000000000E+00 0.  1.
         14    1    6    6    0    0 -0.14068241935E+02 -0.34564296149E+02 -0.70722846140E+02  0.79964535674E+02  0.00000000000E+00 0. -1.
         -5    1    3    3    0  503 -0.50509815980E+02  0.21918478211E+02 -0.77411413329E+03  0.77608404349E+03  0.47000000000E+01 0.  1.
         11    1    4    4    0    0  0.37745381020E+02  0.33965534371E+02 -0.47304671342E+03  0.47576418990E+03  0.00000000000E+00 0. -1.
        -12    1    4    4    0    0  0.54327070320E+02 -0.45631590919E+02 -0.90861902672E+03  0.91138477515E+03  0.00000000000E+00 0.  1.
<mgrwt>
<rscale>  2 0.17904603E+03</rscale>
<asrwt>0</asrwt>
<pdfrwt beam="1">  1       21 0.63223949E-02 0.17941624E+03</pdfrwt>
<pdfrwt beam="2">  1       21 0.36482005E+00 0.17941624E+03</pdfrwt>
<totfact> 0.26230425E+03</totfact>
</mgrwt>
</event>
<event>
12    1  0.1029207E-001  0.2679568E+03  0.7546771E-02  0.1103238E+00
         21   -1    0    0  503  502  0.00000000000E+00  0.00000000000E+00  0.83680697610E+03  0.83680697610E+03  0.00000000000E+00 0.  1.
         21   -1    0    0  501  503 -0.00000000000E+00 -0.00000000000E+00 -0.94644125556E+02  0.94644125556E+02  0.00000000000E+00 0.  1.
          6    2    1    2  501    0  0.14041062800E+03  0.13754030620E+03  0.21226037152E+03  0.33765188527E+03  0.17413170309E+03 0.  0.
         24    2    3    3    0    0  0.26621217754E+02  0.15266861283E+02  0.13015051782E+03  0.15147201715E+03  0.71153695645E+02 0.  0.
         -6    2    1    2    0  502 -0.14041062800E+03 -0.13754030620E+03  0.52990247902E+03  0.59379921639E+03  0.18212191473E+03 0.  0.
        -24    2    5    5    0    0 -0.88176025583E+02 -0.15176150355E+03  0.48980546894E+03  0.52626732495E+03  0.79002116825E+02 0.  0.
          5    1    3    3  501    0  0.11378941024E+03  0.12227344492E+03  0.82109853709E+02  0.18617986812E+03  0.47000000000E+01 0. -1.
        -13    1    4    4    0    0  0.47138443950E+02  0.24990334126E+02  0.10364773404E+03  0.11657359251E+03  0.00000000000E+00 0.  1.
         14    1    4    4    0    0 -0.20517226196E+02 -0.97234728435E+01  0.26502783772E+02  0.34898424643E+02  0.00000000000E+00 0. -1.
         -5    1    5    5    0  502 -0.52234602414E+02  0.14221197347E+02  0.40097010080E+02  0.67531891435E+02  0.47000000000E+01 0.  1.
         11    1    6    6    0    0 -0.57713361653E+02 -0.11965846494E+03  0.44010457954E+03  0.45971841520E+03  0.00000000000E+00 0. -1.
        -12    1    6    6    0    0 -0.30462663930E+02 -0.32103038613E+02  0.49700889400E+02  0.66548909751E+02  0.00000000000E+00 0.  1.
<mgrwt>
<rscale>  2 0.26660534E+03</rscale>
<asrwt>0</asrwt>
<pdfrwt beam="1">  1       21 0.12873953E+00 0.26795685E+03</pdfrwt>
<pdfrwt beam="2">  1       21 0.14560635E-01 0.26795685E+03</pdfrwt>
<totfact> 0.17561083E+04</totfact>
</mgrwt>
</event>
<event>
12    1  0.1029207E-001  0.2700480E+03  0.7546771E-02  0.1101351E+00
         21   -1    0    0  503  502  0.00000000000E+00  0.00000000000E+00  0.11360306593E+03  0.11360306593E+03  0.00000000000E+00 0.  1.
         21   -1    0    0  501  503 -0.00000000000E+00 -0.00000000000E+00 -0.12048222238E+04  0.12048222238E+04  0.00000000000E+00 0.  1.
          6    2    1    2  501    0 -0.20636871000E+03  0.30664967141E+02 -0.99722267221E+03  0.10331403592E+04  0.17145716432E+03 0.  0.
         24    2    3    3    0    0 -0.12468013951E+03 -0.37562226205E+02 -0.43017827154E+03  0.45617466284E+03  0.78012304732E+02 0.  0.
         -6    2    1    2    0  502  0.20636871000E+03 -0.30664967141E+02 -0.93996485617E+02  0.28528493047E+03  0.17036363335E+03 0.  0.
        -24    2    5    5    0    0  0.25665903464E+02 -0.20960825221E+02 -0.48421743249E+02  0.98611895989E+02  0.79256204909E+02 0.  0.
          5    1    3    3  501    0 -0.81688570493E+02  0.68227193346E+02 -0.56704440067E+03  0.57696569637E+03  0.47000000000E+01 0. -1.
        -13    1    4    4    0    0 -0.51707825690E+02 -0.41092374106E+02 -0.29718587889E+03  0.30443674065E+03  0.00000000000E+00 0.  1.
         14    1    4    4    0    0 -0.72972313817E+02  0.35301479008E+01 -0.13299239265E+03  0.15173792219E+03  0.00000000000E+00 0. -1.
         -5    1    5    5    0  502  0.18070280654E+03 -0.97041419200E+01 -0.45574742368E+02  0.18667303448E+03  0.47000000000E+01 0.  1.
         13    1    6    6    0    0  0.25994699694E+02 -0.50194413349E+02 -0.29190522834E+02  0.63618316285E+02  0.00000000000E+00 0. -1.
        -14    1    6    6    0    0 -0.32879622971E+00  0.29233588128E+02 -0.19231220415E+02  0.34993579703E+02  0.00000000000E+00 0.  1.
<mgrwt>
<rscale>  2 0.26987463E+03</rscale>
<asrwt>0</asrwt>
<pdfrwt beam="1">  1       21 0.17477396E-01 0.27004804E+03</pdfrwt>
<pdfrwt beam="2">  1       21 0.18535725E+00 0.27004804E+03</pdfrwt>
<totfact> 0.46735057E+03</totfact>
</mgrwt>
</event>
<event>
12    1  0.1029207E-001  0.1889042E+03  0.7546771E-02  0.1159554E+00
         21   -1    0    0  501  502  0.00000000000E+00  0.00000000000E+00  0.45515333250E+03  0.45515333250E+03  0.00000000000E+00 0.  1.
         21   -1    0    0  502  503 -0.00000000000E+00 -0.00000000000E+00 -0.87520693497E+02  0.87520693497E+02  0.00000000000E+00 0.  1.
         -6    2    1    2    0  503  0.71579119472E+02  0.22625910011E+02  0.95165400642E+02  0.21112736304E+03  0.17286644497E+03 0.  0.
        -24    2    3    3    0    0  0.19159311124E+02 -0.12822378021E+02 -0.13738244191E+02  0.85085658475E+02  0.80742413537E+02 0.  0.
          6    2    1    2  501    0 -0.71579119472E+02 -0.22625910011E+02  0.27246723836E+03  0.33154666296E+03  0.17334731492E+03 0.  0.
         24    2    5    5    0    0 -0.10876167348E+03 -0.32838754518E+02  0.15363347366E+03  0.20652507223E+03  0.78370120664E+02 0.  0.
          5    1    5    5  501    0  0.37182554009E+02  0.10212844508E+02  0.11883376470E+03  0.12502159073E+03  0.47000000000E+01 0. -1.
        -11    1    6    6    0    0 -0.53428708129E+02  0.10285786625E+02  0.11309206866E+03  0.12549996116E+03  0.00000000000E+00 0.  1.
         12    1    6    6    0    0 -0.55332965353E+02 -0.43124541144E+02  0.40541405007E+02  0.81025111068E+02  0.00000000000E+00 0. -1.
         -5    1    3    3    0  503  0.52419808348E+02  0.35448288031E+02  0.10890364483E+03  0.12604170456E+03  0.47000000000E+01 0.  1.
         13    1    4    4    0    0  0.15439617154E+02 -0.43517359173E+02  0.85633268702E+01  0.46962462610E+02  0.00000000000E+00 0. -1.
        -14    1    4    4    0    0  0.37196939703E+01  0.30694981153E+02 -0.22301571061E+02  0.38123195865E+02  0.00000000000E+00 0.  1.
<mgrwt>
<rscale>  2 0.18879380E+03</rscale>
<asrwt>0</asrwt>
<pdfrwt beam="1">  1       21 0.70023588E-01 0.18890419E+03</pdfrwt>
<pdfrwt beam="2">  1       21 0.13464722E-01 0.18890419E+03</pdfrwt>
<totfact> 0.88474280E+04</totfact>
</mgrwt>
</event>
<event>
12    1  0.1029207E-001  0.3035745E+03  0.7546771E-02  0.1083522E+00
         21   -1    0    0  503  502  0.00000000000E+00  0.00000000000E+00  0.72928070368E+03  0.72928070368E+03  0.00000000000E+00 0. -1.
         21   -1    0    0  501  503 -0.00000000000E+00 -0.00000000000E+00 -0.12662107085E+03  0.12662107085E+03  0.00000000000E+00 0.  1.
          6    2    1    2  501    0  0.78105303182E+02  0.23621547605E+03  0.32631657402E+03  0.44538625325E+03  0.17317106742E+03 0.  0.
         24    2    3    3    0    0  0.22296040571E+02  0.93446463046E+02  0.62139963699E+02  0.13992097485E+03  0.80542840982E+02 0.  0.
         -6    2    1    2    0  502 -0.78105303182E+02 -0.23621547605E+03  0.27634305881E+03  0.41051552128E+03  0.17395205531E+03 0.  0.
        -24    2    5    5    0    0 -0.34471225510E+02 -0.22594865555E+03  0.17243223625E+03  0.29725083400E+03  0.79900700163E+02 0.  0.
          5    1    3    3  501    0  0.55809262612E+02  0.14276901301E+03  0.26417661032E+03  0.30546527840E+03  0.47000000000E+01 0. -1.
        -13    1    4    4    0    0  0.16758453110E+02  0.93547329962E+02  0.78110668588E+02  0.12301717458E+03  0.00000000000E+00 0.  1.
         14    1    4    4    0    0  0.55375874607E+01 -0.10086691602E+00 -0.15970704889E+02  0.16903800273E+02  0.00000000000E+00 0. -1.
         -5    1    5    5    0  502 -0.43634077672E+02 -0.10266820502E+02  0.10391082256E+03  0.11326468727E+03  0.47000000000E+01 0.  1.
         11    1    6    6    0    0 -0.35857719541E+01 -0.10745249631E+03  0.12758033641E+03  0.16684015992E+03  0.00000000000E+00 0. -1.
        -12    1    6    6    0    0 -0.30885453556E+02 -0.11849615924E+03  0.44851899833E+02  0.13041067408E+03  0.00000000000E+00 0.  1.
<mgrwt>
<rscale>  2 0.30346278E+03</rscale>
<asrwt>0</asrwt>
<pdfrwt beam="1">  1       21 0.11219703E+00 0.30357455E+03</pdfrwt>
<pdfrwt beam="2">  1       21 0.19480165E-01 0.30357455E+03</pdfrwt>
<totfact> 0.14205722E+04</totfact>
</mgrwt>
</event>
<event>
12    1  0.1029207E-001  0.1828950E+03  0.7546771E-02  0.1165624E+00
         21   -1    0    0  501  502  0.00000000000E+00  0.00000000000E+00  0.28804328444E+03  0.28804328444E+03  0.00000000000E+00 0. -1.
         21   -1    0    0  502  503 -0.00000000000E+00 -0.00000000000E+00 -0.19879420847E+03  0.19879420847E+03  0.00000000000E+00 0.  1.
         -6    2    1    2    0  503 -0.43940632324E+02 -0.29593710859E+02 -0.11400482766E+03  0.21340972129E+03  0.17245301250E+03 0.  0.
        -24    2    3    3    0    0  0.21491768883E+02 -0.25401744681E+02 -0.64702517676E+01  0.87375016867E+02  0.80531885933E+02 0.  0.
          6    2    1    2  501    0  0.43940632324E+02  0.29593710859E+02  0.20325390363E+03  0.27342777162E+03  0.17505436316E+03 0.  0.
         24    2    5    5    0    0  0.15850150183E+02  0.77464167010E+02  0.18158870758E+03  0.21366050233E+03  0.80152523983E+02 0.  0.
          5    1    5    5  501    0  0.28090482141E+02 -0.47870456151E+02  0.21665196046E+02  0.59767269293E+02  0.47000000000E+01 0. -1.
        -11    1    6    6    0    0  0.43408314298E+02  0.20819598401E+02  0.95937141834E+02  0.10733905445E+03  0.00000000000E+00 0.  1.
         12    1    6    6    0    0 -0.27558164114E+02  0.56644568609E+02  0.85651565749E+02  0.10632144787E+03  0.00000000000E+00 0. -1.
         -5    1    3    3    0  503 -0.65432401208E+02 -0.41919661780E+01 -0.10753457589E+03  0.12603470443E+03  0.47000000000E+01 0.  1.
         13    1    4    4    0    0 -0.16145792395E+02 -0.40207691910E+02  0.86732386144E+01  0.44187896180E+02  0.00000000000E+00 0. -1.
        -14    1    4    4    0    0  0.37637561278E+02  0.14805947228E+02 -0.15143490382E+02  0.43187120687E+02  0.00000000000E+00 0.  1.
<mgrwt>
<rscale>  2 0.18226978E+03</rscale>
<asrwt>0</asrwt>
<pdfrwt beam="1">  1       21 0.44314352E-01 0.18289504E+03</pdfrwt>
<pdfrwt beam="2">  1       21 0.30583724E-01 0.18289504E+03</pdfrwt>
<totfact> 0.50418010E+04</totfact>
</mgrwt>
</event>
<event>
12    1  0.1029207E-001  0.1992909E+03  0.7546771E-02  0.1150498E+00
         21   -1    0    0  503  502  0.00000000000E+00  0.00000000000E+00  0.32601148912E+03  0.32601148912E+03  0.00000000000E+00 0.  1.
         21   -1    0    0  501  503 -0.00000000000E+00 -0.00000000000E+00 -0.14821417722E+03  0.14821417722E+03  0.00000000000E+00 0. -1.
          6    2    1    2  501    0 -0.25113372904E+02  0.94141629198E+02 -0.11876179605E+02  0.19964445701E+03  0.17384918098E+03 0.  0.
         24    2    3    3    0    0 -0.61475940542E+02  0.41524773222E+01  0.32171409842E+01  0.10130737293E+03  0.80351101296E+02 0.  0.
         -6    2    1    2    0  502  0.25113372904E+02 -0.94141629198E+02  0.18967349150E+03  0.27458120933E+03  0.17298982424E+03 0.  0.
        -24    2    5    5    0    0 -0.46108980497E+02 -0.85007120133E+02  0.13074362119E+03  0.18157108894E+03  0.80758388430E+02 0.  0.
          5    1    3    3  501    0  0.36362567639E+02  0.89989151876E+02 -0.15093320590E+02  0.98337084088E+02  0.47000000000E+01 0. -1.
        -13    1    4    4    0    0 -0.79894367074E+02  0.94658469651E+01 -0.46474393559E+01  0.80587287096E+02  0.00000000000E+00 0.  1.
         14    1    4    4    0    0  0.18418426532E+02 -0.53133696429E+01  0.78645803402E+01  0.20720085830E+02  0.00000000000E+00 0. -1.
         -5    1    5    5    0  502  0.71222353401E+02 -0.91345090648E+01  0.58929870318E+02  0.93010120393E+02  0.47000000000E+01 0.  1.
         11    1    6    6    0    0 -0.21083272228E+02 -0.51173085542E+01  0.81730496147E+02  0.84561014748E+02  0.00000000000E+00 0. -1.
        -12    1    6    6    0    0 -0.25025708269E+02 -0.79889811579E+02  0.49013125039E+02  0.97010074191E+02  0.00000000000E+00 0.  1.
<mgrwt>
<rscale>  2 0.19910334E+03</rscale>
<asrwt>0</asrwt>
<pdfrwt beam="1">  1       21 0.50155614E-01 0.19929091E+03</pdfrwt>
<pdfrwt beam="2">  1       21 0.22802181E-01 0.19929091E+03</pdfrwt>
<totfact> 0.68095390E+04</totfact>
</mgrwt>
</event>
<event>
12    1  0.1029207E-001  0.1973536E+03  0.7546771E-02  0.1152104E+00
         21   -1    0    0  501  502  0.00000000000E+00  0.00000000000E+00  0.78507654905E+02  0.78507654905E+02  0.00000000000E+00 0.  1.
         21   -1    0    0  502  503 -0.00000000000E+00 -0.00000000000E+00 -0.71415546878E+03  0.71415546878E+03  0.00000000000E+00 0.  1.
         -6    2    1    2    0  503 -0.90164452482E+02 -0.30453500709E+02 -0.53777299966E+03  0.57284224681E+03  0.17289128481E+03 0.  0.
        -24    2    3    3    0    0 -0.50374112716E+02  0.38902436605E+02 -0.39860149291E+03  0.41226729399E+03  0.83846411615E+02 0.  0.
          6    2    1    2  501    0  0.90164452482E+02  0.30453500709E+02 -0.97874814207E+02  0.21982087687E+03  0.17229246779E+03 0.  0.
         24    2    5    5    0    0  0.37932295452E+02  0.15807312084E+02 -0.12851659596E+03  0.15734113729E+03  0.80938173276E+02 0.  0.
          5    1    5    5  501    0  0.52232157030E+02  0.14646188625E+02  0.30641781754E+02  0.62479739582E+02  0.47000000000E+01 0. -1.
        -11    1    6    6    0    0  0.61525938990E+02  0.12858098813E+02 -0.11186071890E+03  0.12831053077E+03  0.00000000000E+00 0.  1.
         12    1    6    6    0    0 -0.23593643538E+02  0.29492132705E+01 -0.16655877059E+02  0.29030606520E+02  0.00000000000E+00 0. -1.
         -5    1    3    3    0  503 -0.39790339766E+02 -0.69355937313E+02 -0.13917150676E+03  0.16057495282E+03  0.47000000000E+01 0.  1.
         13    1    4    4    0    0 -0.21678382944E+01  0.36163730489E+02 -0.30306378236E+03  0.30522151154E+03  0.00000000000E+00 0. -1.
        -14    1    4    4    0    0 -0.48206274422E+02  0.27387061159E+01 -0.95537710547E+02  0.10704578246E+03  0.00000000000E+00 0.  1.
<mgrwt>
<rscale>  2 0.19722237E+03</rscale>
<asrwt>0</asrwt>
<pdfrwt beam="1">  1       21 0.12078101E-01 0.19735359E+03</pdfrwt>
<pdfrwt beam="2">  1       21 0.10987007E+00 0.19735359E+03</pdfrwt>
<totfact> 0.37893028E+04</totfact>
</mgrwt>
</event>
<event>
12    1  0.1029207E-001  0.2443823E+03  0.7546771E-02  0.1118444E+00
         21   -1    0    0  501  502  0.00000000000E+00  0.00000000000E+00  0.21727539549E+03  0.21727539549E+03  0.00000000000E+00 0. -1.
         21   -1    0    0  502  503 -0.00000000000E+00 -0.00000000000E+00 -0.26683918335E+03  0.26683918335E+03  0.00000000000E+00 0. -1.
         -6    2    1    2    0  503 -0.16598966758E+03  0.14015372678E+02 -0.19645257123E+01  0.23513990858E+03  0.16594552369E+03 0.  0.
        -24    2    3    3    0    0 -0.12635570802E+03 -0.43070942071E+02 -0.32317949820E+02  0.15915886860E+03  0.80412838353E+02 0.  0.
          6    2    1    2  501    0  0.16598966758E+03 -0.14015372678E+02 -0.47599262149E+02  0.24897467026E+03  0.17881190189E+03 0.  0.
         24    2    5    5    0    0  0.11121538767E+03  0.31143504226E+01  0.41186517304E+02  0.14315097827E+03  0.80108125297E+02 0.  0.
          5    1    5    5  501    0  0.54774279909E+02 -0.17129723101E+02 -0.88785779453E+02  0.10582369199E+03  0.47000000000E+01 0. -1.
        -13    1    6    6    0    0  0.74985100937E+01 -0.27852276423E+02  0.94716108718E+01  0.30359320943E+02  0.00000000000E+00 0.  1.
         14    1    6    6    0    0  0.10371687758E+03  0.30966626846E+02  0.31714906432E+02  0.11279165733E+03  0.00000000000E+00 0. -1.
         -5    1    3    3    0  503 -0.39633959557E+02  0.57086314750E+02  0.30353424108E+02  0.75981039983E+02  0.47000000000E+01 0.  1.
         11    1    4    4    0    0 -0.12922988838E+03 -0.20420026959E+02 -0.36757555558E+02  0.13589871023E+03  0.00000000000E+00 0. -1.
        -12    1    4    4    0    0  0.28741803577E+01 -0.22650915112E+02  0.44396057377E+01  0.23260158367E+02  0.00000000000E+00 0.  1.
<mgrwt>
<rscale>  2 0.24203606E+03</rscale>
<asrwt>0</asrwt>
<pdfrwt beam="1">  1       21 0.33426984E-01 0.24438228E+03</pdfrwt>
<pdfrwt beam="2">  1       21 0.41052182E-01 0.24438228E+03</pdfrwt>
<totfact> 0.48118474E+04</totfact>
</mgrwt>
</event>
<event>
12    1  0.1029207E-001  0.1734760E+03  0.7546771E-02  0.1174294E+00
         21   -1    0    0  503  502  0.00000000000E+00  0.00000000000E+00  0.24514647963E+02  0.24514647963E+02  0.00000000000E+00 0. -1.
         21   -1    0    0  501  503 -0.00000000000E+00 -0.00000000000E+00 -0.17996467676E+04  0.17996467676E+04  0.00000000000E+00 0. -1.
          6    2    1    2  501    0 -0.32212745148E+00  0.15461501560E+02 -0.14022462412E+04  0.14129361069E+04  0.17278529879E+03 0.  0.
         24    2    3    3    0    0 -0.33268597107E+01  0.59351869464E+02 -0.52294460867E+03  0.53252208852E+03  0.81086365237E+02 0.  0.
         -6    2    1    2    0  502  0.32212745148E+00 -0.15461501560E+02 -0.37288587849E+03  0.41122530870E+03  0.17269399046E+03 0.  0.
        -24    2    5    5    0    0  0.64867607312E+02  0.50873598645E+01 -0.26306244714E+03  0.28210656200E+03  0.78412840258E+02 0.  0.
          5    1    3    3  501    0  0.30047322592E+01 -0.43890367904E+02 -0.87930163249E+03  0.88041401835E+03  0.47000000000E+01 0. -1.
        -11    1    4    4    0    0  0.34285019645E+02  0.54717816060E+01 -0.19301889776E+03  0.19611654152E+03  0.00000000000E+00 0.  1.
         12    1    4    4    0    0 -0.37611879355E+02  0.53880087858E+02 -0.32992571091E+03  0.33640554700E+03  0.00000000000E+00 0. -1.
         -5    1    5    5    0  502 -0.64545479861E+02 -0.20548861424E+02 -0.10982343135E+03  0.12911874670E+03  0.47000000000E+01 0.  1.
         11    1    6    6    0    0  0.52551731913E+02 -0.29857137647E+02 -0.12050859205E+03  0.13481637124E+03  0.00000000000E+00 0. -1.
        -12    1    6    6    0    0  0.12315875400E+02  0.34944497511E+02 -0.14255385509E+03  0.14729019076E+03  0.00000000000E+00 0.  1.
<mgrwt>
<rscale>  2 0.17345326E+03</rscale>
<asrwt>0</asrwt>
<pdfrwt beam="1">  1       21 0.37714828E-02 0.17347600E+03</pdfrwt>
<pdfrwt beam="2">  1       21 0.27686885E+00 0.17347600E+03</pdfrwt>
<totfact> 0.20439632E+04</totfact>
</mgrwt>
</event>
<event>
12    1  0.1029207E-001  0.2161376E+03  0.7546771E-02  0.1137523E+00
         21   -1    0    0  501  502  0.00000000000E+00  0.00000000000E+00  0.82139405948E+03  0.82139405948E+03  0.00000000000E+00 0. -1.
         21   -1    0    0  502  503 -0.00000000000E+00 -0.00000000000E+00 -0.94311922294E+02  0.94311922294E+02  0.00000000000E+00 0.  1.
         -6    2    1    2    0  503  0.14422549046E+02 -0.12146780266E+03  0.69393602704E+02  0.22341292792E+03  0.17359558537E+03 0.  0.
        -24    2    3    3    0    0  0.44909823396E+02 -0.50714309919E+02  0.95344697585E+02  0.14198148462E+03  0.80494081450E+02 0.  0.
          6    2    1    2  501    0 -0.14422549046E+02  0.12146780266E+03  0.65768853448E+03  0.69229305385E+03  0.17819379064E+03 0.  0.
         24    2    5    5    0    0 -0.20390875887E+02 -0.83700319398E+01  0.31051577555E+03  0.32155797490E+03  0.80583119234E+02 0.  0.
          5    1    5    5  501    0  0.59683268405E+01  0.12983783460E+03  0.34717275893E+03  0.37073507895E+03  0.47000000000E+01 0. -1.
        -13    1    6    6    0    0  0.73843215366E+01 -0.18100994755E+02  0.15157637696E+02  0.24737182463E+02  0.00000000000E+00 0.  1.
         14    1    6    6    0    0 -0.27775197423E+02  0.97309628154E+01  0.29535813785E+03  0.29682079244E+03  0.00000000000E+00 0. -1.
         -5    1    3    3    0  503 -0.30487274350E+02 -0.70753492744E+02 -0.25951094881E+02  0.81431443302E+02  0.47000000000E+01 0.  1.
         11    1    4    4    0    0  0.53841062461E+02 -0.57142946617E+02  0.45095785107E+02  0.90541737279E+02  0.00000000000E+00 0. -1.
        -12    1    4    4    0    0 -0.89312390652E+01  0.64286366981E+01  0.50248912478E+02  0.51439747338E+02  0.00000000000E+00 0.  1.
<mgrwt>
<rscale>  2 0.21518760E+03</rscale>
<asrwt>0</asrwt>
<pdfrwt beam="1">  1       21 0.12636831E+00 0.21613760E+03</pdfrwt>
<pdfrwt beam="2">  1       21 0.14509527E-01 0.21613760E+03</pdfrwt>
<totfact> 0.19057614E+04</totfact>
</mgrwt>
</event>
<event>
12    1  0.1029207E-001  0.2040000E+03  0.7546771E-02  0.1146486E+00
         21   -1    0    0  501  502  0.00000000000E+00  0.00000000000E+00  0.18747664357E+03  0.18747664357E+03  0.00000000000E+00 0. -1.
         21   -1    0    0  502  503 -0.00000000000E+00 -0.00000000000E+00 -0.30572543128E+03  0.30572543128E+03  0.00000000000E+00 0.  1.
         -6    2    1    2    0  503  0.10251049087E+03  0.35052964075E+02 -0.18847085543E+03  0.27745425717E+03  0.17240211846E+03 0.  0.
        -24    2    3    3    0    0  0.85298703498E+02 -0.38662158909E+02 -0.86446836237E+02  0.15032772386E+03  0.79716608773E+02 0.  0.
          6    2    1    2  501    0 -0.10251049087E+03 -0.35052964075E+02  0.70222067721E+02  0.21574781768E+03  0.17285505781E+03 0.  0.
         24    2    5    5    0    0 -0.29468920060E+01  0.28207888844E+02  0.42904973212E+02  0.94573730587E+02  0.79366142814E+02 0.  0.
          5    1    5    5  501    0 -0.99563598863E+02 -0.63260852919E+02  0.27317094509E+02  0.12117408709E+03  0.47000000000E+01 0. -1.
        -13    1    6    6    0    0 -0.21467776626E+02  0.20122562755E+02  0.60822334627E+02  0.67565814985E+02  0.00000000000E+00 0.  1.
         14    1    6    6    0    0  0.18520884620E+02  0.80853260892E+01 -0.17917361415E+02  0.27007915602E+02  0.00000000000E+00 0. -1.
         -5    1    3    3    0  503  0.17211787371E+02  0.73715122984E+02 -0.10202401919E+03  0.12712653332E+03  0.47000000000E+01 0.  1.
         13    1    4    4    0    0  0.80253635465E+02 -0.29339385069E+02 -0.26518149399E+02  0.89468753033E+02  0.00000000000E+00 0. -1.
        -14    1    4    4    0    0  0.50450680329E+01 -0.93227738399E+01 -0.59928686838E+02  0.60858970823E+02  0.00000000000E+00 0.  1.
<mgrwt>
<rscale>  2 0.20390398E+03</rscale>
<asrwt>0</asrwt>
<pdfrwt beam="1">  1       21 0.28842561E-01 0.20399996E+03</pdfrwt>
<pdfrwt beam="2">  1       21 0.47034681E-01 0.20399996E+03</pdfrwt>
<totfact> 0.49489192E+04</totfact>
</mgrwt>
</event>
<event>
12    1  0.1029207E-001  0.1865775E+03  0.7546771E-02  0.1163448E+00
         21   -1    0    0  503  502  0.00000000000E+00  0.00000000000E+00  0.13490130061E+04  0.13490130061E+04  0.00000000000E+00 0. -1.
         21   -1    0    0  501  503 -0.00000000000E+00 -0.00000000000E+00 -0.25555898149E+02  0.25555898149E+02  0.00000000000E+00 0. -1.
          6    2    1    2  501    0  0.44771404915E+02  0.62201871928E+01  0.79937744222E+03  0.82086264058E+03  0.18101936400E+03 0.  0.
         24    2    3    3    0    0 -0.30332375258E+02  0.22215415517E+02  0.24882730113E+03  0.26496339343E+03  0.82927657609E+02 0.  0.
         -6    2    1    2    0  502 -0.44771404915E+02 -0.62201871928E+01  0.52407966574E+03  0.55370626368E+03  0.17288134939E+03 0.  0.
        -24    2    5    5    0    0 -0.49504475723E+02 -0.60745856523E+01  0.13860733458E+03  0.16817619838E+03  0.81139674599E+02 0.  0.
          5    1    3    3  501    0  0.75103780173E+02 -0.15995228324E+02  0.55055014109E+03  0.55589924715E+03  0.47000000000E+01 0. -1.
        -13    1    4    4    0    0 -0.39752424445E+02 -0.22159760714E+02  0.13286988011E+03  0.14044826551E+03  0.00000000000E+00 0.  1.
         14    1    4    4    0    0  0.94200491866E+01  0.44375176231E+02  0.11595742102E+03  0.12451512792E+03  0.00000000000E+00 0. -1.
         -5    1    5    5    0  502  0.47330708081E+01 -0.14560154052E+00  0.38547233116E+03  0.38553006530E+03  0.47000000000E+01 0. -1.
         13    1    6    6    0    0 -0.61759274601E+02  0.23974051795E+01  0.53409407758E+02  0.81685496803E+02  0.00000000000E+00 0. -1.
        -14    1    6    6    0    0  0.12254798878E+02 -0.84719908318E+01  0.85197926823E+02  0.86490701576E+02  0.00000000000E+00 0.  1.
<mgrwt>
<rscale>  2 0.18457434E+03</rscale>
<asrwt>0</asrwt>
<pdfrwt beam="1">  1       21 0.20754041E+00 0.18657754E+03</pdfrwt>
<pdfrwt beam="2">  1       21 0.39316777E-02 0.18657754E+03</pdfrwt>
<totfact> 0.48695249E+04</totfact>
</mgrwt>
</event>
<event>
12    1  0.1029207E-001  0.2490083E+03  0.7546771E-02  0.1113964E+00
         21   -1    0    0  501  502  0.00000000000E+00  0.00000000000E+00  0.17920546173E+04  0.17920546173E+04  0.00000000000E+00 0. -1.
         21   -1    0    0  502  503 -0.00000000000E+00 -0.00000000000E+00 -0.45775131018E+02  0.45775131018E+02  0.00000000000E+00 0.  1.
         -6    2    1    2    0  503  0.11097831030E+03 -0.14127717700E+03  0.41881577378E+03  0.48724918212E+03  0.17242298866E+03 0.  0.
        -24    2    3    3    0    0  0.47134779142E+02 -0.22058891330E+01  0.64749600618E+02  0.10150086450E+03  0.62316621872E+02 0.  0.
          6    2    1    2  501    0 -0.11097831030E+03  0.14127717700E+03  0.13274637125E+04  0.13505805662E+04  0.17214102260E+03 0.  0.
         24    2    5    5    0    0 -0.32130161023E+02  0.14525367869E+03  0.93481905605E+03  0.95004996879E+03  0.81100537780E+02 0.  0.
          5    1    5    5  501    0 -0.78848149279E+02 -0.39765016986E+01  0.39264465650E+03  0.40053059744E+03  0.47000000000E+01 0. -1.
        -13    1    6    6    0    0 -0.21383017539E+02  0.37155353561E+02  0.10917125283E+03  0.11728647059E+03  0.00000000000E+00 0.  1.
         14    1    6    6    0    0 -0.10747143483E+02  0.10809832513E+03  0.82564780321E+03  0.83276349821E+03  0.00000000000E+00 0. -1.
         -5    1    3    3    0  503  0.63843531160E+02 -0.13907128786E+03  0.35406617316E+03  0.38574831763E+03  0.47000000000E+01 0.  1.
         13    1    4    4    0    0  0.13264751051E+02  0.27809172218E+02  0.38034592196E+02  0.48948277635E+02  0.00000000000E+00 0. -1.
        -14    1    4    4    0    0  0.33870028091E+02 -0.30015061351E+02  0.26715008422E+02  0.52552586861E+02  0.00000000000E+00 0.  1.
<mgrwt>
<rscale>  2 0.24895945E+03</rscale>
<asrwt>0</asrwt>
<pdfrwt beam="1">  1       21 0.27570066E+00 0.24900826E+03</pdfrwt>
<pdfrwt beam="2">  1       21 0.70423292E-02 0.24900826E+03</pdfrwt>
<totfact> 0.66872642E+03</totfact>
</mgrwt>
</event>
<event>
12    1  0.1029207E-001  0.1806878E+03  0.7546771E-02  0.1167312E+00
         21   -1    0    0  501  502  0.00000000000E+00  0.00000000000E+00  0.40952417345E+03  0.40952417345E+03  0.00000000000E+00 0. -1.
         21   -1    0    0  502  503 -0.00000000000E+00 -0.00000000000E+00 -0.89906901983E+02  0.89906901983E+02  0.00000000000E+00 0. -1.
         -6    2    1    2    0  503 -0.54379649038E+02 -0.69824655829E+01  0.74745734451E+02  0.19553769892E+03  0.17216900367E+03 0.  0.
        -24    2    3    3    0    0 -0.75460100446E+02  0.18946243337E+02 -0.99939599453E+00  0.11261545725E+03  0.81412870744E+02 0.  0.
          6    2    1    2  501    0  0.54379649038E+02  0.69824655829E+01  0.24487153701E+03  0.30389337651E+03  0.17141532484E+03 0.  0.
         24    2    5    5    0    0 -0.14823437214E+02  0.48501943466E+02  0.16388622312E+03  0.18946590928E+03  0.80414326083E+02 0.  0.
          5    1    5    5  501    0  0.69203086252E+02 -0.41519477883E+02  0.80985313896E+02  0.11442746723E+03  0.47000000000E+01 0. -1.
        -13    1    6    6    0    0 -0.44042384208E+02  0.32991199677E+02  0.64850802778E+02  0.85051616586E+02  0.00000000000E+00 0.  1.
         14    1    6    6    0    0  0.29218946994E+02  0.15510743789E+02  0.99035420338E+02  0.10441429269E+03  0.00000000000E+00 0. -1.
         -5    1    3    3    0  503  0.21080451409E+02 -0.25928708920E+02  0.75745130445E+02  0.82922241673E+02  0.47000000000E+01 0.  1.
         13    1    4    4    0    0 -0.65607590353E+02  0.37396552707E+02  0.24724057317E+02  0.79461544640E+02  0.00000000000E+00 0. -1.
        -14    1    4    4    0    0 -0.98525100931E+01 -0.18450309369E+02 -0.25723453311E+02  0.33153912608E+02  0.00000000000E+00 0.  1.
<mgrwt>
<rscale>  2 0.18050799E+03</rscale>
<asrwt>0</asrwt>
<pdfrwt beam="1">  1       21 0.63003718E-01 0.18068776E+03</pdfrwt>
<pdfrwt beam="2">  1       21 0.13831831E-01 0.18068776E+03</pdfrwt>
<totfact> 0.10646904E+05</totfact>
</mgrwt>
</event>
<event>
12    1  0.1029207E-001  0.2057978E+03  0.7546771E-02  0.1145160E+00
         21   -1    0    0  503  502  0.00000000000E+00  0.00000000000E+00  0.97397929168E+03  0.97397929168E+03  0.00000000000E+00 0.  1.
         21   -1    0    0  501  503 -0.00000000000E+00 -0.00000000000E+00 -0.57139265682E+02  0.57139265682E+02  0.00000000000E+00 0.  1.
          6    2    1    2  501    0 -0.60918192259E+02 -0.93896972318E+02  0.71349634630E+03  0.74258318674E+03  0.17269940786E+03 0.  0.
         24    2    3    3    0    0 -0.51827639941E+02  0.33011157651E+01  0.48060339840E+03  0.49001374747E+03  0.80229947827E+02 0.  0.
         -6    2    1    2    0  502  0.60918192259E+02  0.93896972318E+02  0.20334367970E+03  0.28853537063E+03  0.17139527553E+03 0.  0.
        -24    2    5    5    0    0  0.80632442820E+02  0.13636744957E+02  0.64977073308E+02  0.12729715080E+03  0.72766701843E+02 0.  0.
          5    1    3    3  501    0 -0.90905523179E+01 -0.97198088083E+02  0.23289294790E+03  0.25256943926E+03  0.47000000000E+01 0. -1.
        -11    1    4    4    0    0 -0.63029731787E+01 -0.24482864685E+02  0.49094817710E+02  0.55221728151E+02  0.00000000000E+00 0.  1.
         12    1    4    4    0    0 -0.45524666762E+02  0.27783980450E+02  0.43150858069E+03  0.43479201932E+03  0.00000000000E+00 0. -1.
         -5    1    5    5    0  502 -0.19714250561E+02  0.80260227361E+02  0.13836660639E+03  0.16123821983E+03  0.47000000000E+01 0.  1.
         11    1    6    6    0    0  0.70711425857E+01 -0.25000741421E+02  0.11006625024E+02  0.28216731269E+02  0.00000000000E+00 0. -1.
        -12    1    6    6    0    0  0.73561300234E+02  0.38637486379E+02  0.53970448284E+02  0.99080419527E+02  0.00000000000E+00 0.  1.
<mgrwt>
<rscale>  2 0.20552401E+03</rscale>
<asrwt>0</asrwt>
<pdfrwt beam="1">  1       21 0.14984296E+00 0.20579785E+03</pdfrwt>
<pdfrwt beam="2">  1       21 0.87906570E-02 0.20579785E+03</pdfrwt>
<totfact> 0.30262142E+04</totfact>
</mgrwt>
</event>
<event>
12    1  0.1029207E-001  0.1881527E+03  0.7546771E-02  0.1160372E+00
         21   -1    0    0  501  502  0.00000000000E+00  0.00000000000E+00  0.89352163728E+02  0.89352163728E+02  0.00000000000E+00 0. -1.
         21   -1    0    0  502  503 -0.00000000000E+00 -0.00000000000E+00 -0.81174939227E+03  0.81174939227E+03  0.00000000000E+00 0. -1.
         -6    2    1    2    0  503 -0.60293979792E+01  0.73017488383E+02 -0.68486702935E+03  0.71024240556E+03  0.17330181626E+03 0.  0.
        -24    2    3    3    0    0 -0.55082990739E+02  0.72833035858E+02 -0.59913160017E+03  0.61135386830E+03  0.80349803866E+02 0.  0.
          6    2    1    2  501    0  0.60293979792E+01 -0.73017488383E+02 -0.37530199196E+02  0.19085915044E+03  0.17219405392E+03 0.  0.
         24    2    5    5    0    0  0.37892783158E+02 -0.15390996360E+02  0.30348051648E+02  0.96172114180E+02  0.81580178491E+02 0.  0.
          5    1    5    5  501    0 -0.31863385179E+02 -0.57626492023E+02 -0.67878250843E+02  0.94687036259E+02  0.47000000000E+01 0. -1.
        -13    1    6    6    0    0 -0.40885776324E+01  0.29239859485E+02  0.14448431522E+02  0.32870093143E+02  0.00000000000E+00 0.  1.
         14    1    6    6    0    0  0.41981360790E+02 -0.44630855845E+02  0.15899620125E+02  0.63302021037E+02  0.00000000000E+00 0. -1.
         -5    1    3    3    0  503  0.49053592760E+02  0.18445252524E+00 -0.85735429178E+02  0.98888537261E+02  0.47000000000E+01 0.  1.
         11    1    4    4    0    0 -0.48968315750E+02  0.72264881825E+02 -0.30730831080E+03  0.31946597155E+03  0.00000000000E+00 0. -1.
        -12    1    4    4    0    0 -0.61146749892E+01  0.56815403295E+00 -0.29182328937E+03  0.29188789674E+03  0.00000000000E+00 0.  1.
<mgrwt>
<rscale>  2 0.18789719E+03</rscale>
<asrwt>0</asrwt>
<pdfrwt beam="1">  1       21 0.13746487E-01 0.18815267E+03</pdfrwt>
<pdfrwt beam="2">  1       21 0.12488452E+00 0.18815267E+03</pdfrwt>
<totfact> 0.22036415E+04</totfact>
</mgrwt>
</event>
<event>
12    1  0.1029207E-001  0.1958843E+03  0.7546771E-02  0.1153318E+00
         21   -1    0    0  501  502  0.00000000000E+00  0.00000000000E+00  0.36955675937E+02  0.36955675937E+02  0.00000000000E+00 0.  1.
         21   -1    0    0  502  503 -0.00000000000E+00 -0.00000000000E+00 -0.11158478829E+04  0.11158478829E+04  0.00000000000E+00 0.  1.
         -6    2    1    2    0  503 -0.40934374180E+02 -0.81503260626E+02 -0.69317660022E+03  0.72032245542E+03  0.17335580810E+03 0.  0.
        -24    2    3    3    0    0 -0.56179677090E+02 -0.83009290826E+01 -0.55050535647E+03  0.55917601767E+03  0.79978807798E+02 0.  0.
          6    2    1    2  501    0  0.40934374180E+02  0.81503260626E+02 -0.38571560679E+03  0.43248110346E+03  0.17304615296E+03 0.  0.
         24    2    5    5    0    0  0.63439913642E+02  0.60180452676E+02 -0.38340845340E+03  0.40103950042E+03  0.78640506304E+02 0.  0.
          5    1    5    5  501    0 -0.22505539463E+02  0.21322807950E+02 -0.23071533896E+01  0.31441603046E+02  0.47000000000E+01 0. -1.
        -13    1    6    6    0    0  0.17103377624E+02  0.65237030748E+02 -0.27275915981E+03  0.28097322821E+03  0.00000000000E+00 0.  1.
         14    1    6    6    0    0  0.46336536019E+02 -0.50565780724E+01 -0.11064929358E+03  0.12006627221E+03  0.00000000000E+00 0. -1.
         -5    1    3    3    0  503  0.15245302910E+02 -0.73202331543E+02 -0.14267124375E+03  0.16114643775E+03  0.47000000000E+01 0.  1.
         13    1    4    4    0    0 -0.79842596314E+01 -0.15845456375E+02 -0.41108378796E+03  0.41146653280E+03  0.00000000000E+00 0. -1.
        -14    1    4    4    0    0 -0.48195417458E+02  0.75445272928E+01 -0.13942156851E+03  0.14770948487E+03  0.00000000000E+00 0.  1.
<mgrwt>
<rscale>  2 0.19581572E+03</rscale>
<asrwt>0</asrwt>
<pdfrwt beam="1">  1       21 0.56854887E-02 0.19588425E+03</pdfrwt>
<pdfrwt beam="2">  1       21 0.17166890E+00 0.19588425E+03</pdfrwt>
<totfact> 0.44815173E+04</totfact>
</mgrwt>
</event>
<event>
12    1  0.1029207E-001  0.1740717E+03  0.7546771E-02  0.1173834E+00
         21   -1    0    0  501  502  0.00000000000E+00  0.00000000000E+00  0.13908336086E+04  0.13908336086E+04  0.00000000000E+00 0. -1.
         21   -1    0    0  502  503 -0.00000000000E+00 -0.00000000000E+00 -0.25034556428E+02  0.25034556428E+02  0.00000000000E+00 0. -1.
         -6    2    1    2    0  503 -0.27885877256E+01  0.15710552222E+02  0.94000160360E+03  0.95586337253E+03  0.17267650246E+03 0.  0.
        -24    2    3    3    0    0 -0.54987530075E+02 -0.30825068554E+02  0.61496027334E+03  0.62335134274E+03  0.80105838641E+02 0.  0.
          6    2    1    2  501    0  0.27885877256E+01 -0.15710552222E+02  0.42579744859E+03  0.46000479251E+03  0.17333881342E+03 0.  0.
         24    2    5    5    0    0 -0.19857385480E+02  0.90431206447E+01  0.41686225812E+03  0.42496892444E+03  0.79676537996E+02 0.  0.
          5    1    5    5  501    0  0.22645973206E+02 -0.24753672866E+02  0.89351904681E+01  0.35035868071E+02  0.47000000000E+01 0. -1.
        -11    1    6    6    0    0  0.26361147380E+02  0.20668937827E+02  0.21243468589E+03  0.21505955187E+03  0.00000000000E+00 0.  1.
         12    1    6    6    0    0 -0.46218532860E+02 -0.11625817182E+02  0.20442757223E+03  0.20990937257E+03  0.00000000000E+00 0. -1.
         -5    1    3    3    0  503  0.52198942350E+02  0.46535620775E+02  0.32504133025E+03  0.33251202979E+03  0.47000000000E+01 0.  1.
         11    1    4    4    0    0 -0.33537075905E+02 -0.51464495787E+02  0.52528506773E+03  0.52886456884E+03  0.00000000000E+00 0. -1.
        -12    1    4    4    0    0 -0.21450454170E+02  0.20639427233E+02  0.89675205610E+02  0.94486773899E+02  0.00000000000E+00 0.  1.
<mgrwt>
<rscale>  2 0.17390654E+03</rscale>
<asrwt>0</asrwt>
<pdfrwt beam="1">  1       21 0.21397434E+00 0.17407166E+03</pdfrwt>
<pdfrwt beam="2">  1       21 0.38514713E-02 0.17407166E+03</pdfrwt>
<totfact> 0.46363705E+04</totfact>
</mgrwt>
</event>
<event>
12    1  0.1029207E-001  0.1758099E+03  0.7546771E-02  0.1172026E+00
         21   -1    0    0  503  502  0.00000000000E+00  0.00000000000E+00  0.19356756759E+03  0.19356756759E+03  0.00000000000E+00 0. -1.
         21   -1    0    0  501  503 -0.00000000000E+00 -0.00000000000E+00 -0.16606454581E+03  0.16606454581E+03  0.00000000000E+00 0. -1.
          6    2    1    2  501    0 -0.25372629352E+02 -0.10060024679E+02 -0.22553017415E+02  0.17683512080E+03  0.17325428403E+03 0.  0.
         24    2    3    3    0    0  0.54523563038E+01  0.20648813531E+02  0.46466945488E+02  0.95109618266E+02  0.80190777364E+02 0.  0.
         -6    2    1    2    0  502  0.25372629352E+02  0.10060024679E+02  0.50056039199E+02  0.18279699261E+03  0.17367832055E+03 0.  0.
        -24    2    5    5    0    0  0.21409731639E+02  0.28148866115E+02 -0.35717083680E+02  0.94921914507E+02  0.80521577944E+02 0.  0.
          5    1    3    3  501    0 -0.30824985656E+02 -0.30708838211E+02 -0.69019962903E+02  0.81725502532E+02  0.47000000000E+01 0. -1.
        -11    1    4    4    0    0  0.42608605814E+02  0.13698592098E+02  0.20360205034E+02  0.49169936587E+02  0.00000000000E+00 0.  1.
         12    1    4    4    0    0 -0.37156249511E+02  0.69502214338E+01  0.26106740454E+02  0.45939681679E+02  0.00000000000E+00 0. -1.
         -5    1    5    5    0  502  0.39628977126E+01 -0.18088841436E+02  0.85773122879E+02  0.87875078100E+02  0.47000000000E+01 0.  1.
         11    1    6    6    0    0  0.38880123080E+02  0.20502605143E+02 -0.53228556408E+02  0.69031152428E+02  0.00000000000E+00 0. -1.
        -12    1    6    6    0    0 -0.17470391441E+02  0.76462609716E+01  0.17511472727E+02  0.25890762079E+02  0.00000000000E+00 0.  1.
<mgrwt>
<rscale>  2 0.17570512E+03</rscale>
<asrwt>0</asrwt>
<pdfrwt beam="1">  1       21 0.29779626E-01 0.17580994E+03</pdfrwt>
<pdfrwt beam="2">  1       21 0.25548392E-01 0.17580994E+03</pdfrwt>
<totfact> 0.15792847E+05</totfact>
</mgrwt>
</event>
<event>
12    1  0.1029207E-001  0.1750696E+03  0.7546771E-02  0.1174037E+00
         21   -1    0    0  503  502  0.00000000000E+00  0.00000000000E+00  0.22912793377E+04  0.22912793377E+04  0.00000000000E+00 0.  1.
         21   -1    0    0  501  503 -0.00000000000E+00 -0.00000000000E+00 -0.47252203987E+02  0.47252203987E+02  0.00000000000E+00 0.  1.
          6    2    1    2  501    0  0.23193401678E+02 -0.92675011372E+01  0.12125316973E+03  0.20855063296E+03  0.16783091157E+03 0.  0.
         24    2    3    3    0    0  0.21028240143E+02 -0.40776262664E+02  0.14309011715E+03  0.16986688637E+03  0.79215446583E+02 0.  0.
         -6    2    1    2    0  502 -0.23193401678E+02  0.92675011372E+01  0.21227739640E+04  0.21299809087E+04  0.17327881843E+03 0.  0.
        -24    2    5    5    0    0  0.54551671437E+01 -0.34783660089E+02  0.18532838418E+04  0.18553752620E+04  0.80726095095E+02 0.  0.
          5    1    3    3  501    0  0.21651615346E+01  0.31508761527E+02 -0.21836947424E+02  0.38683746590E+02  0.47000000000E+01 0. -1.
        -13    1    4    4    0    0  0.45440205997E+02 -0.17329181049E+01  0.69235981476E+02  0.82833788137E+02  0.00000000000E+00 0.  1.
         14    1    4    4    0    0 -0.24411965854E+02 -0.39043344559E+02  0.73854135674E+02  0.87033098230E+02  0.00000000000E+00 0. -1.
         -5    1    5    5    0  502 -0.28648568821E+02  0.44051161227E+02  0.26949012217E+03  0.27460564679E+03  0.47000000000E+01 0.  1.
         13    1    6    6    0    0 -0.28719514050E+02 -0.37021534349E+02  0.69088874307E+03  0.69247574672E+03  0.00000000000E+00 0. -1.
        -14    1    6    6    0    0  0.34174681194E+02  0.22378742595E+01  0.11623950988E+04  0.11628995152E+04  0.00000000000E+00 0.  1.
<mgrwt>
<rscale>  2 0.17370617E+03</rscale>
<asrwt>0</asrwt>
<pdfrwt beam="1">  1       21 0.35250443E+00 0.17506961E+03</pdfrwt>
<pdfrwt beam="2">  1       21 0.72695716E-02 0.17506961E+03</pdfrwt>
<totfact> 0.24559323E+03</totfact>
</mgrwt>
</event>
<event>
12    1  0.1029207E-001  0.2081984E+03  0.7546771E-02  0.1143244E+00
         21   -1    0    0  503  502  0.00000000000E+00  0.00000000000E+00  0.19108206186E+03  0.19108206186E+03  0.00000000000E+00 0. -1.
         21   -1    0    0  501  503 -0.00000000000E+00 -0.00000000000E+00 -0.33248925028E+03  0.33248925028E+03  0.00000000000E+00 0. -1.
          6    2    1    2  501    0 -0.81073745035E+02  0.84115758613E+02 -0.21904137333E+03  0.30136950199E+03  0.17086848896E+03 0.  0.
         24    2    3    3    0    0  0.16313115941E+02  0.25851929724E+02 -0.13620898357E+03  0.16079151921E+03  0.79790885597E+02 0.  0.
         -6    2    1    2    0  502  0.81073745035E+02 -0.84115758613E+02  0.77634184903E+02  0.22220181015E+03  0.17233155483E+03 0.  0.
        -24    2    5    5    0    0  0.10255857508E+02 -0.39638760549E+02 -0.24426869917E+02  0.90171792880E+02  0.76536699081E+02 0.  0.
          5    1    3    3  501    0 -0.97386860976E+02  0.58263828889E+02 -0.82832389756E+02  0.14057798277E+03  0.47000000000E+01 0. -1.
        -11    1    4    4    0    0 -0.97137234332E+01  0.43292306946E+02 -0.11416492068E+03  0.12248350655E+03  0.00000000000E+00 0.  1.
         12    1    4    4    0    0  0.26026839374E+02 -0.17440377222E+02 -0.22044062890E+02  0.38308012663E+02  0.00000000000E+00 0. -1.
         -5    1    5    5    0  502  0.70817887527E+02 -0.44476998064E+02  0.10206105482E+03  0.13203001728E+03  0.47000000000E+01 0.  1.
         13    1    6    6    0    0  0.41270864889E+02 -0.17203969471E+02 -0.26251383961E+02  0.51849744591E+02  0.00000000000E+00 0. -1.
        -14    1    6    6    0    0 -0.31015007381E+02 -0.22434791078E+02  0.18245140436E+01  0.38322048289E+02  0.00000000000E+00 0.  1.
<mgrwt>
<rscale>  2 0.20789540E+03</rscale>
<asrwt>0</asrwt>
<pdfrwt beam="1">  1       21 0.29397241E-01 0.20819841E+03</pdfrwt>
<pdfrwt beam="2">  1       21 0.51152192E-01 0.20819841E+03</pdfrwt>
<totfact> 0.39958489E+04</totfact>
</mgrwt>
</event>
<event>
12    1  0.1029207E-001  0.1971605E+03  0.7546771E-02  0.1152339E+00
         21   -1    0    0  503  502  0.00000000000E+00  0.00000000000E+00  0.13253427988E+03  0.13253427988E+03  0.00000000000E+00 0. -1.
         21   -1    0    0  501  503 -0.00000000000E+00 -0.00000000000E+00 -0.29954107199E+03  0.29954107199E+03  0.00000000000E+00 0. -1.
          6    2    1    2  501    0 -0.43787440058E+02  0.80832339251E+02 -0.11750938465E+03  0.22879659655E+03  0.17345956340E+03 0.  0.
         24    2    3    3    0    0  0.36104555863E+01 -0.25072321507E+02 -0.40779773584E+01  0.66466279472E+02  0.61314596241E+02 0.  0.
         -6    2    1    2    0  502  0.43787440058E+02 -0.80832339251E+02 -0.49497407462E+02  0.20327875533E+03  0.17441631818E+03 0.  0.
        -24    2    5    5    0    0  0.93358885667E+02 -0.43830377062E+02 -0.44361173643E+02  0.14102970455E+03  0.85349167263E+02 0.  0.
          5    1    3    3  501    0 -0.47397895645E+02  0.10590466076E+03 -0.11343140729E+03  0.16233031707E+03  0.47000000000E+01 0. -1.
        -11    1    4    4    0    0 -0.95150224081E+01 -0.42968922831E+02 -0.68918992181E+00  0.44015212864E+02  0.00000000000E+00 0.  1.
         12    1    4    4    0    0  0.13125477994E+02  0.17896601324E+02 -0.33887874366E+01  0.22451066608E+02  0.00000000000E+00 0. -1.
         -5    1    5    5    0  502 -0.49571445608E+02 -0.37001962188E+02 -0.51362338188E+01  0.62249050782E+02  0.47000000000E+01 0.  1.
         11    1    6    6    0    0  0.73913953528E+02 -0.69475252362E+02 -0.37303637922E+02  0.10808165718E+03  0.00000000000E+00 0. -1.
        -12    1    6    6    0    0  0.19444932139E+02  0.25644875300E+02 -0.70575357219E+01  0.32948047370E+02  0.00000000000E+00 0.  1.
<mgrwt>
<rscale>  2 0.19694868E+03</rscale>
<asrwt>0</asrwt>
<pdfrwt beam="1">  1       21 0.20389889E-01 0.19716049E+03</pdfrwt>
<pdfrwt beam="2">  1       21 0.46083242E-01 0.19716049E+03</pdfrwt>
<totfact> 0.10028604E+05</totfact>
</mgrwt>
</event>
<event>
12    1  0.1029207E-001  0.2319397E+03  0.7546771E-02  0.1125635E+00
         21   -1    0    0  503  502  0.00000000000E+00  0.00000000000E+00  0.44066080445E+03  0.44066080445E+03  0.00000000000E+00 0.  1.
         21   -1    0    0  501  503 -0.00000000000E+00 -0.00000000000E+00 -0.12186967027E+03  0.12186967027E+03  0.00000000000E+00 0.  1.
          6    2    1    2  501    0  0.48718254471E+02  0.14376297135E+03  0.13661261090E+03  0.26918214304E+03  0.17537035219E+03 0.  0.
         24    2    3    3    0    0 -0.12325621620E+02  0.35078569987E+02  0.11118782030E+03  0.14187478315E+03  0.79895529842E+02 0.  0.
         -6    2    1    2    0  502 -0.48718254471E+02 -0.14376297135E+03  0.18217852328E+03  0.29334833168E+03  0.17269328043E+03 0.  0.
        -24    2    5    5    0    0 -0.92940986847E+01 -0.15502246268E+03  0.18387143491E+03  0.25204462538E+03  0.74829435380E+02 0.  0.
          5    1    3    3  501    0  0.61043876091E+02  0.10868440136E+03  0.25424790596E+02  0.12730735990E+03  0.47000000000E+01 0. -1.
        -11    1    4    4    0    0 -0.19346951174E+01  0.60416644382E+02  0.71054478945E+02  0.93288010708E+02  0.00000000000E+00 0.  1.
         12    1    4    4    0    0 -0.10390926503E+02 -0.25338074395E+02  0.40133341356E+02  0.48586772439E+02  0.00000000000E+00 0. -1.
         -5    1    5    5    0  502 -0.39424155786E+02  0.11259491335E+02 -0.16929116286E+01  0.41303706303E+02  0.47000000000E+01 0.  1.
         13    1    6    6    0    0 -0.16395040028E+02 -0.35222586852E+02  0.95222060027E+02  0.10284293208E+03  0.00000000000E+00 0. -1.
        -14    1    6    6    0    0  0.71009413434E+01 -0.11979987583E+03  0.88649374880E+02  0.14920169330E+03  0.00000000000E+00 0.  1.
<mgrwt>
<rscale>  2 0.23143367E+03</rscale>
<asrwt>0</asrwt>
<pdfrwt beam="1">  1       21 0.67793969E-01 0.23193969E+03</pdfrwt>
<pdfrwt beam="2">  1       21 0.18749180E-01 0.23193969E+03</pdfrwt>
<totfact> 0.50816340E+04</totfact>
</mgrwt>
</event>
<event>
12    1  0.1029207E-001  0.1880779E+03  0.7546771E-02  0.1160301E+00
         21   -1    0    0  501  502  0.00000000000E+00  0.00000000000E+00  0.17275857088E+03  0.17275857088E+03  0.00000000000E+00 0. -1.
         21   -1    0    0  502  503 -0.00000000000E+00 -0.00000000000E+00 -0.20888560589E+03  0.20888560589E+03  0.00000000000E+00 0. -1.
         -6    2    1    2    0  503 -0.54433977348E+02  0.30156357929E+02 -0.46341796570E+02  0.19370297933E+03  0.17748469871E+03 0.  0.
        -24    2    3    3    0    0  0.92604158518E+01  0.71894808349E+02 -0.13012681444E+02  0.11044438287E+03  0.82304392717E+02 0.  0.
          6    2    1    2  501    0  0.54433977348E+02 -0.30156357929E+02  0.10214761555E+02  0.18794119745E+03  0.17704544199E+03 0.  0.
         24    2    5    5    0    0 -0.18117160921E+02  0.15189018768E+02  0.45667424685E+02  0.95211201355E+02  0.80129403935E+02 0.  0.
          5    1    5    5  501    0  0.72551138269E+02 -0.45345376698E+02 -0.35452663130E+02  0.92729996091E+02  0.47000000000E+01 0. -1.
        -11    1    6    6    0    0 -0.23806729293E+02 -0.12280589035E+02 -0.13302587717E+02  0.29908728937E+02  0.00000000000E+00 0.  1.
         12    1    6    6    0    0  0.56895683724E+01  0.27469607804E+02  0.58970012402E+02  0.65302472417E+02  0.00000000000E+00 0. -1.
         -5    1    3    3    0  503 -0.63694393200E+02 -0.41738450419E+02 -0.33329115126E+02  0.83258596455E+02  0.47000000000E+01 0.  1.
         13    1    4    4    0    0 -0.17162328616E+02  0.40181469545E+02 -0.41523647515E+02  0.60276938553E+02  0.00000000000E+00 0. -1.
        -14    1    4    4    0    0  0.26422744468E+02  0.31713338803E+02  0.28510966071E+02  0.50167444320E+02  0.00000000000E+00 0.  1.
<mgrwt>
<rscale>  2 0.18797416E+03</rscale>
<asrwt>0</asrwt>
<pdfrwt beam="1">  1       21 0.26578242E-01 0.18807786E+03</pdfrwt>
<pdfrwt beam="2">  1       21 0.32136247E-01 0.18807786E+03</pdfrwt>
<totfact> 0.12567093E+05</totfact>
</mgrwt>
</event>
<event>
12    1  0.1029207E-001  0.2008495E+03  0.7546771E-02  0.1149302E+00
         21   -1    0    0  503  502  0.00000000000E+00  0.00000000000E+00  0.35111807910E+02  0.35111807910E+02  0.00000000000E+00 0.  1.
         21   -1    0    0  501  503 -0.00000000000E+00 -0.00000000000E+00 -0.11565197144E+04  0.11565197144E+04  0.00000000000E+00 0.  1.
          6    2    1    2  501    0  0.98506015329E+02  0.24364298896E+02 -0.62705596883E+03  0.65803584666E+03  0.17179910747E+03 0.  0.
         24    2    3    3    0    0  0.11736040751E+03 -0.14670086740E+02 -0.55643887504E+03  0.57504165830E+03  0.84023868205E+02 0.  0.
         -6    2    1    2    0  502 -0.98506015329E+02 -0.24364298896E+02 -0.49435193769E+03  0.53359567568E+03  0.17333047248E+03 0.  0.
        -24    2    5    5    0    0  0.12047643837E+02  0.67421571665E+01 -0.26665658630E+03  0.27853296533E+03  0.79273421500E+02 0.  0.
          5    1    3    3  501    0 -0.18854392178E+02  0.39034385636E+02 -0.70617093795E+02  0.82994188366E+02  0.47000000000E+01 0. -1.
        -11    1    4    4    0    0  0.37088522985E+02  0.33927977816E+02 -0.16342414431E+03  0.17097987355E+03  0.00000000000E+00 0.  1.
         12    1    4    4    0    0  0.80271884522E+02 -0.48598064556E+02 -0.39301473073E+03  0.40406178475E+03  0.00000000000E+00 0. -1.
         -5    1    5    5    0  502 -0.11055365917E+03 -0.31106456062E+02 -0.22769535139E+03  0.25506271035E+03  0.47000000000E+01 0.  1.
         13    1    6    6    0    0 -0.81971449571E+01  0.21587374734E+02 -0.24281791235E+03  0.24391339957E+03  0.00000000000E+00 0. -1.
        -14    1    6    6    0    0  0.20244788794E+02 -0.14845217568E+02 -0.23838673952E+02  0.34619565765E+02  0.00000000000E+00 0.  1.
<mgrwt>
<rscale>  2 0.20051863E+03</rscale>
<asrwt>0</asrwt>
<pdfrwt beam="1">  1       21 0.54018172E-02 0.20084946E+03</pdfrwt>
<pdfrwt beam="2">  1       21 0.17792609E+00 0.20084946E+03</pdfrwt>
<totfact> 0.44117601E+04</totfact>
</mgrwt>
</event>
<event>
12    1  0.1029207E-001  0.2038781E+03  0.7546771E-02  0.1146826E+00
         21   -1    0    0  501  502  0.00000000000E+00  0.00000000000E+00  0.68912274725E+03  0.68912274725E+03  0.00000000000E+00 0.  1.
         21   -1    0    0  502  503 -0.00000000000E+00 -0.00000000000E+00 -0.59911816841E+02  0.59911816841E+02  0.00000000000E+00 0. -1.
         -6    2    1    2    0  503  0.98542697913E+02 -0.31370743792E+02  0.30270829605E+03  0.36410565374E+03  0.17391327642E+03 0.  0.
        -24    2    3    3    0    0  0.60351275728E+01 -0.46728068246E+02  0.22176153380E+03  0.24013805192E+03  0.79171781448E+02 0.  0.
          6    2    1    2  501    0 -0.98542697913E+02  0.31370743792E+02  0.32650263436E+03  0.38492891034E+03  0.17570289951E+03 0.  0.
         24    2    5    5    0    0 -0.96953075656E+02  0.67154110865E+02  0.31667669789E+03  0.34749075754E+03  0.80969883935E+02 0.  0.
          5    1    5    5  501    0 -0.15896222571E+01 -0.35783367073E+02  0.98259364718E+01  0.37438152806E+02  0.47000000000E+01 0. -1.
        -13    1    6    6    0    0 -0.74288909553E+02  0.25759505153E+01  0.17580160134E+03  0.19087084805E+03  0.00000000000E+00 0.  1.
         14    1    6    6    0    0 -0.22664166103E+02  0.64578160349E+02  0.14087509655E+03  0.15661990948E+03  0.00000000000E+00 0. -1.
         -5    1    3    3    0  503  0.92507570340E+02  0.15357324454E+02  0.80946762244E+02  0.12396760183E+03  0.47000000000E+01 0.  1.
         11    1    4    4    0    0  0.54620143706E+01 -0.83514027341E+01 -0.42822642994E+01  0.10858973991E+02  0.00000000000E+00 0. -1.
        -12    1    4    4    0    0  0.57311320219E+00 -0.38376665512E+02  0.22604379810E+03  0.22927907793E+03  0.00000000000E+00 0.  1.
<mgrwt>
<rscale>  2 0.20349198E+03</rscale>
<asrwt>0</asrwt>
<pdfrwt beam="1">  1       21 0.10601888E+00 0.20387814E+03</pdfrwt>
<pdfrwt beam="2">  1       21 0.92172031E-02 0.20387814E+03</pdfrwt>
<totfact> 0.66508411E+04</totfact>
</mgrwt>
</event>
<event>
12    1  0.1029207E-001  0.1740699E+03  0.7546771E-02  0.1173771E+00
         21   -1    0    0  501  502  0.00000000000E+00  0.00000000000E+00  0.24068168397E+03  0.24068168397E+03  0.00000000000E+00 0.  1.
         21   -1    0    0  502  503 -0.00000000000E+00 -0.00000000000E+00 -0.13618137210E+03  0.13618137210E+03  0.00000000000E+00 0.  1.
         -6    2    1    2    0  503 -0.96268349621E+01 -0.77892071029E+01 -0.32250345806E+00  0.17366817773E+03  0.17322581865E+03 0.  0.
        -24    2    3    3    0    0 -0.15613347867E+01 -0.38417525221E+02 -0.59299103777E+02  0.10656023819E+03  0.79751844142E+02 0.  0.
          6    2    1    2  501    0  0.96268349621E+01  0.77892071029E+01  0.10482281533E+03  0.20319487835E+03  0.17362888088E+03 0.  0.
         24    2    5    5    0    0  0.62757020259E+02 -0.12168110074E+02  0.10363852780E+03  0.14623345600E+03  0.80973901441E+02 0.  0.
          5    1    5    5  501    0 -0.53130185297E+02  0.19957317177E+02  0.11842875243E+01  0.56961422344E+02  0.47000000000E+01 0. -1.
        -11    1    6    6    0    0 -0.10898828714E+02 -0.22386118606E+02  0.10424839022E+02  0.26992592358E+02  0.00000000000E+00 0.  1.
         12    1    6    6    0    0  0.73655848973E+02  0.10218008533E+02  0.93213688781E+02  0.11924086364E+03  0.00000000000E+00 0. -1.
         -5    1    3    3    0  503 -0.80655001753E+01  0.30628318118E+02  0.58976600319E+02  0.67107939538E+02  0.47000000000E+01 0.  1.
         13    1    4    4    0    0 -0.23889524639E+02  0.98378452474E+01  0.13907311502E+01  0.25873281967E+02  0.00000000000E+00 0. -1.
        -14    1    4    4    0    0  0.22328189853E+02 -0.48255370469E+02 -0.60689834927E+02  0.80686956224E+02  0.00000000000E+00 0.  1.
<mgrwt>
<rscale>  2 0.17396932E+03</rscale>
<asrwt>0</asrwt>
<pdfrwt beam="1">  1       21 0.37027951E-01 0.17406992E+03</pdfrwt>
<pdfrwt beam="2">  1       21 0.20950980E-01 0.17406992E+03</pdfrwt>
<totfact> 0.14975184E+05</totfact>
</mgrwt>
</event>
<event>
12    1  0.1029207E-001  0.1999810E+03  0.7546771E-02  0.1151575E+00
         21   -1    0    0  501  502  0.00000000000E+00  0.00000000000E+00  0.42995212543E+03  0.42995212543E+03  0.00000000000E+00 0.  1.
         21   -1    0    0  502  503 -0.00000000000E+00 -0.00000000000E+00 -0.89166498718E+02  0.89166498718E+02  0.00000000000E+00 0.  1.
         -6    2    1    2    0  503 -0.13136015928E+02 -0.81139579721E+02  0.17153136886E+03  0.25712740910E+03  0.17301822938E+03 0.  0.
        -24    2    3    3    0    0  0.23658773321E+02  0.32009386767E+01  0.13273724824E+03  0.15715614646E+03  0.80677715239E+02 0.  0.
          6    2    1    2  501    0  0.13136015928E+02  0.81139579721E+02  0.16925425785E+03  0.26199121504E+03  0.18230799941E+03 0.  0.
         24    2    5    5    0    0  0.26775579673E+02  0.11929543207E+03  0.16945833366E+03  0.22119858808E+03  0.72555887024E+02 0.  0.
          5    1    5    5  501    0 -0.13639563745E+02 -0.38155852349E+02 -0.20407581382E+00  0.40792626963E+02  0.47000000000E+01 0. -1.
        -11    1    6    6    0    0  0.35012769688E+02  0.21541615683E+02  0.30896020773E+02  0.51424695887E+02  0.00000000000E+00 0.  1.
         12    1    6    6    0    0 -0.82371900148E+01  0.97753816387E+02  0.13856231289E+03  0.16977389219E+03  0.00000000000E+00 0. -1.
         -5    1    3    3    0  503 -0.36794789249E+02 -0.84340518397E+02  0.38794120620E+02  0.99971262641E+02  0.47000000000E+01 0.  1.
         11    1    4    4    0    0  0.47691469053E+02  0.19553811854E+02  0.61673202710E+02  0.80376686365E+02  0.00000000000E+00 0. -1.
        -12    1    4    4    0    0 -0.24032695732E+02 -0.16352873177E+02  0.71064045534E+02  0.76779460098E+02  0.00000000000E+00 0.  1.
<mgrwt>
<rscale>  2 0.19783913E+03</rscale>
<asrwt>0</asrwt>
<pdfrwt beam="1">  1       21 0.66146479E-01 0.19998098E+03</pdfrwt>
<pdfrwt beam="2">  1       21 0.13717923E-01 0.19998098E+03</pdfrwt>
<totfact> 0.96491243E+04</totfact>
</mgrwt>
</event>
<event>
12    1  0.1029207E-001  0.1761942E+03  0.7546771E-02  0.1172618E+00
         21   -1    0    0  503  502  0.00000000000E+00  0.00000000000E+00  0.51084700619E+03  0.51084700619E+03  0.00000000000E+00 0. -1.
         21   -1    0    0  501  503 -0.00000000000E+00 -0.00000000000E+00 -0.87440839269E+02  0.87440839269E+02  0.00000000000E+00 0. -1.
          6    2    1    2  501    0  0.81708359831E+01 -0.27312009819E+02  0.43781430147E+02  0.18155223579E+03  0.17387263227E+03 0.  0.
         24    2    3    3    0    0 -0.96219170316E+01  0.31288146192E+02 -0.24096693192E+02  0.90009404433E+02  0.80308859313E+02 0.  0.
         -6    2    1    2    0  502 -0.81708359831E+01  0.27312009819E+02  0.37962473677E+03  0.41673560967E+03  0.16953146952E+03 0.  0.
        -24    2    5    5    0    0  0.37184196000E+01  0.29294021738E+01  0.38073793997E+03  0.38918211306E+03  0.80491801769E+02 0.  0.
          5    1    3    3  501    0  0.17792753015E+02 -0.58600156011E+02  0.67878123338E+02  0.91542831354E+02  0.47000000000E+01 0. -1.
        -11    1    4    4    0    0  0.11718639536E+02 -0.60039823118E+01  0.22847894925E+02  0.26370449724E+02  0.00000000000E+00 0.  1.
         12    1    4    4    0    0 -0.21340556568E+02  0.37292128503E+02 -0.46944588116E+02  0.63638954708E+02  0.00000000000E+00 0. -1.
         -5    1    5    5    0  502 -0.11889255583E+02  0.24382607645E+02 -0.11132032010E+01  0.27553496607E+02  0.47000000000E+01 0.  1.
         13    1    6    6    0    0  0.26574816663E+02 -0.30255441629E+02  0.18237234694E+03  0.18676532215E+03  0.00000000000E+00 0. -1.
        -14    1    6    6    0    0 -0.22856397063E+02  0.33184843803E+02  0.19836559303E+03  0.20241679092E+03  0.00000000000E+00 0.  1.
<mgrwt>
<rscale>  2 0.17511368E+03</rscale>
<asrwt>0</asrwt>
<pdfrwt beam="1">  1       21 0.78591846E-01 0.17619421E+03</pdfrwt>
<pdfrwt beam="2">  1       21 0.13452437E-01 0.17619421E+03</pdfrwt>
<totfact> 0.68918300E+04</totfact>
</mgrwt>
</event>
<event>
12    1  0.1029207E-001  0.2369634E+03  0.7546771E-02  0.1122044E+00
         21   -1    0    0  501  502  0.00000000000E+00  0.00000000000E+00  0.35260855355E+03  0.35260855355E+03  0.00000000000E+00 0. -1.
         21   -1    0    0  502  503 -0.00000000000E+00 -0.00000000000E+00 -0.22669228021E+03  0.22669228021E+03  0.00000000000E+00 0.  1.
         -6    2    1    2    0  503  0.50672714667E+02 -0.15395211752E+03 -0.95892314288E+02  0.25563058592E+03  0.17286608117E+03 0.  0.
        -24    2    3    3    0    0  0.27022560360E+02 -0.90390634747E+02  0.14053382030E+02  0.12636520761E+03  0.82885357753E+02 0.  0.
          6    2    1    2  501    0 -0.50672714667E+02  0.15395211752E+03  0.22180858763E+03  0.32367024784E+03  0.17115607290E+03 0.  0.
         24    2    5    5    0    0 -0.58493490634E+02  0.16247814776E+03  0.23776980355E+03  0.30340431233E+03  0.75492120867E+02 0.  0.
          5    1    5    5  501    0  0.78207759674E+01 -0.85260302384E+01 -0.15961215922E+02  0.20265935510E+02  0.47000000000E+01 0. -1.
        -11    1    6    6    0    0 -0.22561094549E+02  0.11367976778E+03  0.10069143157E+03  0.15352803321E+03  0.00000000000E+00 0.  1.
         12    1    6    6    0    0 -0.35932396086E+02  0.48798379976E+02  0.13707837198E+03  0.14987627912E+03  0.00000000000E+00 0. -1.
         -5    1    3    3    0  503  0.23650154307E+02 -0.63561482771E+02 -0.10994569632E+03  0.12926537831E+03  0.47000000000E+01 0.  1.
         13    1    4    4    0    0  0.27115470496E+01 -0.21472834644E+02  0.42699349990E+02  0.47871386074E+02  0.00000000000E+00 0. -1.
        -14    1    4    4    0    0  0.24311013310E+02 -0.68917800102E+02 -0.28645967960E+02  0.78493821537E+02  0.00000000000E+00 0.  1.
<mgrwt>
<rscale>  2 0.23665166E+03</rscale>
<asrwt>0</asrwt>
<pdfrwt beam="1">  1       21 0.54247470E-01 0.23696342E+03</pdfrwt>
<pdfrwt beam="2">  1       21 0.34875735E-01 0.23696342E+03</pdfrwt>
<totfact> 0.24851805E+04</totfact>
</mgrwt>
</event>
<event>
12    1  0.1029207E-001  0.2081384E+03  0.7546771E-02  0.1143997E+00
         21   -1    0    0  503  502  0.00000000000E+00  0.00000000000E+00  0.45499129165E+02  0.45499129165E+02  0.00000000000E+00 0. -1.
         21   -1    0    0  501  503 -0.00000000000E+00 -0.00000000000E+00 -0.11738313130E+04  0.11738313130E+04  0.00000000000E+00 0. -1.
          6    2    1    2  501    0 -0.11408040553E+03  0.21319791529E+02 -0.83643811311E+03  0.86082833837E+03  0.16711624290E+03 0.  0.
         24    2    3    3    0    0 -0.42813172379E+01 -0.13942914154E+02 -0.44991117755E+03  0.45743713852E+03  0.81338388733E+02 0.  0.
         -6    2    1    2    0  502  0.11408040553E+03 -0.21319791529E+02 -0.29189407076E+03  0.35850210383E+03  0.17277944747E+03 0.  0.
        -24    2    5    5    0    0  0.28069016265E+02 -0.68519767820E+02 -0.14067595285E+03  0.17818348020E+03  0.80478572604E+02 0.  0.
          5    1    3    3  501    0 -0.10979908829E+03  0.35262705683E+02 -0.38652693556E+03  0.40339119985E+03  0.47000000000E+01 0. -1.
        -13    1    4    4    0    0 -0.28238144707E+01 -0.47441178533E+02 -0.21844754323E+03  0.22355752837E+03  0.00000000000E+00 0.  1.
         14    1    4    4    0    0 -0.14575027672E+01  0.33498264379E+02 -0.23146363432E+03  0.23387961015E+03  0.00000000000E+00 0. -1.
         -5    1    5    5    0  502  0.86011389266E+02  0.47199976290E+02 -0.15121811791E+03  0.18031862363E+03  0.47000000000E+01 0.  1.
         13    1    6    6    0    0  0.45305887302E+02 -0.30881369615E+02 -0.11995008552E+03  0.13188747260E+03  0.00000000000E+00 0. -1.
        -14    1    6    6    0    0 -0.17236871037E+02 -0.37638398205E+02 -0.20725867334E+02  0.46296007596E+02  0.00000000000E+00 0.  1.
<mgrwt>
<rscale>  2 0.20695930E+03</rscale>
<asrwt>0</asrwt>
<pdfrwt beam="1">  1       21 0.69998668E-02 0.20813844E+03</pdfrwt>
<pdfrwt beam="2">  1       21 0.18058941E+00 0.20813844E+03</pdfrwt>
<totfact> 0.26986302E+04</totfact>
</mgrwt>
</event>
<event>
12    1  0.1029207E-001  0.2267066E+03  0.7546771E-02  0.1129179E+00
         21   -1    0    0  501  502  0.00000000000E+00  0.00000000000E+00  0.32273356001E+03  0.32273356001E+03  0.00000000000E+00 0.  1.
         21   -1    0    0  502  503 -0.00000000000E+00 -0.00000000000E+00 -0.15862284618E+03  0.15862284618E+03  0.00000000000E+00 0. -1.
         -6    2    1    2    0  503 -0.14426591329E+03 -0.22466804436E+02  0.89246231318E+02  0.24260847373E+03  0.17197840178E+03 0.  0.
        -24    2    3    3    0    0 -0.90466174861E+02 -0.81287884605E+02  0.64045850298E+02  0.15887388988E+03  0.79669272427E+02 0.  0.
          6    2    1    2  501    0  0.14426591329E+03  0.22466804436E+02  0.74864482512E+02  0.23874793246E+03  0.17343146621E+03 0.  0.
         24    2    5    5    0    0  0.17009189239E+02 -0.33368921040E+02  0.30587723089E+02  0.92821843354E+02  0.79230602610E+02 0.  0.
          5    1    5    5  501    0  0.12725672405E+03  0.55835725475E+02  0.44276759423E+02  0.14592608910E+03  0.47000000000E+01 0. -1.
        -11    1    6    6    0    0  0.35819556561E+02 -0.16952289085E+02  0.48102744533E+02  0.62324110656E+02  0.00000000000E+00 0.  1.
         12    1    6    6    0    0 -0.18810367322E+02 -0.16416631954E+02 -0.17515021444E+02  0.30497732698E+02  0.00000000000E+00 0. -1.
         -5    1    3    3    0  503 -0.53799738432E+02  0.58821080169E+02  0.25200381020E+02  0.83734583842E+02  0.47000000000E+01 0.  1.
         13    1    4    4    0    0 -0.73109912137E+02 -0.19849762890E+02  0.12416571182E+02  0.76767464328E+02  0.00000000000E+00 0. -1.
        -14    1    4    4    0    0 -0.17356262725E+02 -0.61438121715E+02  0.51629279116E+02  0.82106425557E+02  0.00000000000E+00 0.  1.
<mgrwt>
<rscale>  2 0.22642868E+03</rscale>
<asrwt>0</asrwt>
<pdfrwt beam="1">  1       21 0.49651317E-01 0.22670660E+03</pdfrwt>
<pdfrwt beam="2">  1       21 0.24403515E-01 0.22670660E+03</pdfrwt>
<totfact> 0.60398308E+04</totfact>
</mgrwt>
</event>
<event>
12    1  0.1029207E-001  0.1800726E+03  0.7546771E-02  0.1167741E+00
         21   -1    0    0  503  502  0.00000000000E+00  0.00000000000E+00  0.37379080064E+03  0.37379080064E+03  0.00000000000E+00 0. -1.
         21   -1    0    0  501  503 -0.00000000000E+00 -0.00000000000E+00 -0.24475276401E+03  0.24475276401E+03  0.00000000000E+00 0. -1.
          6    2    1    2  501    0 -0.45424266866E+02 -0.23278400743E+02 -0.18398267354E+03  0.25744076509E+03  0.17268721842E+03 0.  0.
         24    2    3    3    0    0 -0.34316077231E+02 -0.77183716713E+02 -0.81110131198E+02  0.14067593762E+03  0.77948359572E+02 0.  0.
         -6    2    1    2    0  502  0.45424266866E+02  0.23278400743E+02  0.31302071016E+03  0.36110279956E+03  0.17264998957E+03 0.  0.
        -24    2    5    5    0    0  0.17948269917E+02 -0.51899044212E+02  0.20147427958E+03  0.22373004093E+03  0.80296915879E+02 0.  0.
          5    1    3    3  501    0 -0.11108189635E+02  0.53905315970E+02 -0.10287254234E+03  0.11676482747E+03  0.47000000000E+01 0. -1.
        -11    1    4    4    0    0 -0.19356545759E+02 -0.33767388161E+02  0.86315968899E+01  0.39867490915E+02  0.00000000000E+00 0.  1.
         12    1    4    4    0    0 -0.14959531471E+02 -0.43416328552E+02 -0.89741728088E+02  0.10080844670E+03  0.00000000000E+00 0. -1.
         -5    1    5    5    0  502  0.27475996948E+02  0.75177444955E+02  0.11154643058E+03  0.13737275863E+03  0.47000000000E+01 0.  1.
         11    1    6    6    0    0 -0.23491136859E+02 -0.11089191136E+02  0.12489801890E+03  0.12757083835E+03  0.00000000000E+00 0. -1.
        -12    1    6    6    0    0  0.41439406777E+02 -0.40809853076E+02  0.76576260676E+02  0.96159202582E+02  0.00000000000E+00 0.  1.
<mgrwt>
<rscale>  2 0.18006362E+03</rscale>
<asrwt>0</asrwt>
<pdfrwt beam="1">  1       21 0.57506277E-01 0.18007255E+03</pdfrwt>
<pdfrwt beam="2">  1       21 0.37654271E-01 0.18007255E+03</pdfrwt>
<totfact> 0.19447969E+04</totfact>
</mgrwt>
</event>
<event>
12    1  0.1029207E-001  0.1778774E+03  0.7546771E-02  0.1170086E+00
         21   -1    0    0  503  502  0.00000000000E+00  0.00000000000E+00  0.98865390986E+02  0.98865390986E+02  0.00000000000E+00 0. -1.
         21   -1    0    0  501  503 -0.00000000000E+00 -0.00000000000E+00 -0.64053476799E+03  0.64053476799E+03  0.00000000000E+00 0. -1.
          6    2    1    2  501    0 -0.38457398689E+02 -0.67785234026E+01 -0.53330565972E+03  0.56218794567E+03  0.17353800643E+03 0.  0.
         24    2    3    3    0    0 -0.35092174378E+02 -0.20345187491E+02 -0.53864399299E+03  0.54650461339E+03  0.82973212075E+02 0.  0.
         -6    2    1    2    0  502  0.38457398689E+02  0.67785234026E+01 -0.83637172877E+01  0.17721221331E+03  0.17265369062E+03 0.  0.
        -24    2    5    5    0    0  0.81671384937E+02  0.31195800758E+02  0.19156579839E+02  0.12026391399E+03  0.80330824443E+02 0.  0.
          5    1    3    3  501    0 -0.33652243109E+01  0.13566664088E+02  0.53383332703E+01  0.15683332275E+02  0.47000000000E+01 0. -1.
        -11    1    4    4    0    0  0.33360827656E+01  0.26170069069E+02 -0.88914150481E+02  0.92745501880E+02  0.00000000000E+00 0.  1.
         12    1    4    4    0    0 -0.38428257144E+02 -0.46515256560E+02 -0.44972984251E+03  0.45375911151E+03  0.00000000000E+00 0. -1.
         -5    1    5    5    0  502 -0.43213986248E+02 -0.24417277356E+02 -0.27520297126E+02  0.56948299314E+02  0.47000000000E+01 0.  1.
         11    1    6    6    0    0  0.80857621447E+02  0.13743969435E+01 -0.62063331061E+01  0.81107105014E+02  0.00000000000E+00 0. -1.
        -12    1    6    6    0    0  0.81376348972E+00  0.29821403815E+02  0.25362912945E+02  0.39156808981E+02  0.00000000000E+00 0.  1.
<mgrwt>
<rscale>  2 0.17766132E+03</rscale>
<asrwt>0</asrwt>
<pdfrwt beam="1">  1       21 0.15210060E-01 0.17787737E+03</pdfrwt>
<pdfrwt beam="2">  1       21 0.98543813E-01 0.17787737E+03</pdfrwt>
<totfact> 0.32775391E+04</totfact>
</mgrwt>
</event>
<event>
12    1  0.1029207E-001  0.1821508E+03  0.7546771E-02  0.1165774E+00
         21   -1    0    0  503  502  0.00000000000E+00  0.00000000000E+00  0.47583064890E+02  0.47583064890E+02  0.00000000000E+00 0. -1.
         21   -1    0    0  501  503 -0.00000000000E+00 -0.00000000000E+00 -0.93008841777E+03  0.93008841777E+03  0.00000000000E+00 0. -1.
          6    2    1    2  501    0 -0.28292143318E+02 -0.48977224442E+02 -0.68598758908E+03  0.70971973904E+03  0.17298532229E+03 0.  0.
         24    2    3    3    0    0 -0.53753647354E+02 -0.44540433670E+02 -0.23772676950E+03  0.26068986735E+03  0.81067164547E+02 0.  0.
         -6    2    1    2    0  502  0.28292143318E+02  0.48977224442E+02 -0.19651776380E+03  0.26795174362E+03  0.17314644533E+03 0.  0.
        -24    2    5    5    0    0 -0.27459871264E+02  0.80217293617E+02 -0.10769214855E+03  0.15842408055E+03  0.79446407814E+02 0.  0.
          5    1    3    3  501    0  0.25461504036E+02 -0.44367907720E+01 -0.44826081958E+03  0.44902987169E+03  0.47000000000E+01 0. -1.
        -13    1    4    4    0    0  0.13087846298E+02  0.70042505518E+01 -0.10199845972E+02  0.18010777451E+02  0.00000000000E+00 0.  1.
         14    1    4    4    0    0 -0.66841493653E+02 -0.51544684222E+02 -0.22752692353E+03  0.24267908990E+03  0.00000000000E+00 0. -1.
         -5    1    5    5    0  502  0.55752014582E+02 -0.31240069175E+02 -0.88825615250E+02  0.10952766307E+03  0.47000000000E+01 0.  1.
         13    1    6    6    0    0  0.18496465298E+02  0.63613870401E+02 -0.72481481476E+02  0.98195768203E+02  0.00000000000E+00 0. -1.
        -14    1    6    6    0    0 -0.45956336562E+02  0.16603423216E+02 -0.35210667075E+02  0.60228312350E+02  0.00000000000E+00 0.  1.
<mgrwt>
<rscale>  2 0.18211248E+03</rscale>
<asrwt>0</asrwt>
<pdfrwt beam="1">  1       21 0.73204711E-02 0.18215078E+03</pdfrwt>
<pdfrwt beam="2">  1       21 0.14309053E+00 0.18215078E+03</pdfrwt>
<totfact> 0.47615638E+04</totfact>
</mgrwt>
</event>
<event>
12    1  0.1029207E-001  0.1963353E+03  0.7546771E-02  0.1153097E+00
         21   -1    0    0  501  502  0.00000000000E+00  0.00000000000E+00  0.44082386548E+03  0.44082386548E+03  0.00000000000E+00 0. -1.
         21   -1    0    0  502  503 -0.00000000000E+00 -0.00000000000E+00 -0.15711034437E+03  0.15711034437E+03  0.00000000000E+00 0.  1.
         -6    2    1    2    0  503  0.89363586615E+02 -0.20855870781E+02 -0.58107289168E+02  0.20374008011E+03  0.17237385309E+03 0.  0.
        -24    2    3    3    0    0  0.77858270204E+02  0.26336454286E+02  0.12959059659E+02  0.11753100990E+03  0.83006517801E+02 0.  0.
          6    2    1    2  501    0 -0.89363586615E+02  0.20855870781E+02  0.34182081028E+03  0.39419412973E+03  0.17357052634E+03 0.  0.
         24    2    5    5    0    0 -0.35508490929E+02  0.47702642916E+02  0.97888556263E+02  0.14290514260E+03  0.85459436367E+02 0.  0.
          5    1    5    5  501    0 -0.53855095685E+02 -0.26846772134E+02  0.24393225401E+03  0.25128898713E+03  0.47000000000E+01 0. -1.
        -13    1    6    6    0    0 -0.62039138543E+02  0.42593050112E+02  0.59357688530E+02  0.95845489287E+02  0.00000000000E+00 0.  1.
         14    1    6    6    0    0  0.26530647613E+02  0.51095928037E+01  0.38530867733E+02  0.47059653310E+02  0.00000000000E+00 0. -1.
         -5    1    3    3    0  503  0.11505316411E+02 -0.47192325068E+02 -0.71066348828E+02  0.86209070211E+02  0.47000000000E+01 0.  1.
         13    1    4    4    0    0 -0.57562953223E+00  0.32159651016E+02  0.21089354174E+02  0.38462128937E+02  0.00000000000E+00 0. -1.
        -14    1    4    4    0    0  0.78433899736E+02 -0.58231967302E+01 -0.81302945148E+01  0.79068880964E+02  0.00000000000E+00 0.  1.
<mgrwt>
<rscale>  2 0.19607047E+03</rscale>
<asrwt>0</asrwt>
<pdfrwt beam="1">  1       21 0.67819056E-01 0.19633529E+03</pdfrwt>
<pdfrwt beam="2">  1       21 0.24170822E-01 0.19633529E+03</pdfrwt>
<totfact> 0.32022035E+04</totfact>
</mgrwt>
</event>
<event>
12    1  0.1029207E-001  0.2250572E+03  0.7546771E-02  0.1130319E+00
         21   -1    0    0  503  502  0.00000000000E+00  0.00000000000E+00  0.80466469995E+03  0.80466469995E+03  0.00000000000E+00 0. -1.
         21   -1    0    0  501  503 -0.00000000000E+00 -0.00000000000E+00 -0.11705402370E+03  0.11705402370E+03  0.00000000000E+00 0.  1.
          6    2    1    2  501    0  0.83326208101E+02 -0.11618043951E+03  0.29457863521E+02  0.22614997323E+03  0.17272780086E+03 0.  0.
         24    2    3    3    0    0  0.77491810992E+02 -0.14027132985E+03 -0.10325029318E+02  0.17904180250E+03  0.79172811408E+02 0.  0.
         -6    2    1    2    0  502 -0.83326208101E+02  0.11618043951E+03  0.65815281273E+03  0.69556875041E+03  0.17380911990E+03 0.  0.
        -24    2    5    5    0    0 -0.47855987307E+01  0.56571041350E+02  0.51899296124E+03  0.52495379815E+03  0.54768710928E+02 0.  0.
          5    1    3    3  501    0  0.58343971094E+01  0.24090890334E+02  0.39782892839E+02  0.47108170728E+02  0.47000000000E+01 0. -1.
        -11    1    4    4    0    0 -0.13566349357E+02 -0.23361308874E+02 -0.14767729455E+02  0.30787699175E+02  0.00000000000E+00 0.  1.
         12    1    4    4    0    0  0.91058160349E+02 -0.11691002097E+03  0.44427001371E+01  0.14825410333E+03  0.00000000000E+00 0. -1.
         -5    1    5    5    0  502 -0.78540609370E+02  0.59609398162E+02  0.13915985149E+03  0.17061495227E+03  0.47000000000E+01 0.  1.
         13    1    6    6    0    0 -0.27087800688E+02  0.46085522387E+02  0.31897692523E+03  0.32342526671E+03  0.00000000000E+00 0. -1.
        -14    1    6    6    0    0  0.22302201957E+02  0.10485518963E+02  0.20001603601E+03  0.20152853143E+03  0.00000000000E+00 0.  1.
<mgrwt>
<rscale>  2 0.22484844E+03</rscale>
<asrwt>0</asrwt>
<pdfrwt beam="1">  1       21 0.12379457E+00 0.22505724E+03</pdfrwt>
<pdfrwt beam="2">  1       21 0.18008312E-01 0.22505724E+03</pdfrwt>
<totfact> 0.13419059E+04</totfact>
</mgrwt>
</event>
<event>
12    1  0.1029207E-001  0.2782304E+03  0.7546771E-02  0.1096675E+00
         21   -1    0    0  503  502  0.00000000000E+00  0.00000000000E+00  0.61104519589E+03  0.61104519589E+03  0.00000000000E+00 0. -1.
         21   -1    0    0  501  503 -0.00000000000E+00 -0.00000000000E+00 -0.15987633793E+03  0.15987633793E+03  0.00000000000E+00 0.  1.
          6    2    1    2  501    0  0.12052504870E+03 -0.18133043704E+03  0.49860285195E+02  0.28266274570E+03  0.17321999019E+03 0.  0.
         24    2    3    3    0    0  0.48007645129E+00 -0.92902970118E+02  0.50266997368E+02  0.13349013533E+03  0.81618949241E+02 0.  0.
         -6    2    1    2    0  502 -0.12052504870E+03  0.18133043704E+03  0.40130857277E+03  0.48825878812E+03  0.17303484863E+03 0.  0.
        -24    2    5    5    0    0 -0.27969153963E+02  0.10653740828E+03  0.11975311350E+03  0.18255278975E+03  0.82778136688E+02 0.  0.
          5    1    3    3  501    0  0.12004497225E+03 -0.88427466925E+02 -0.40671217306E+00  0.14917261037E+03  0.47000000000E+01 0. -1.
        -11    1    4    4    0    0  0.24179840409E+02 -0.20192880456E+01  0.27834159649E+02  0.36925365940E+02  0.00000000000E+00 0.  1.
         12    1    4    4    0    0 -0.23699763958E+02 -0.90883682072E+02  0.22432837718E+02  0.96564769387E+02  0.00000000000E+00 0. -1.
         -5    1    5    5    0  502 -0.92555894739E+02  0.74793028762E+02  0.28155545927E+03  0.30570599838E+03  0.47000000000E+01 0.  1.
         13    1    6    6    0    0  0.11437251518E+02  0.39400625879E+01 -0.76363024796E+01  0.14305520999E+02  0.00000000000E+00 0. -1.
        -14    1    6    6    0    0 -0.39406405481E+02  0.10259734569E+03  0.12738941598E+03  0.16824726875E+03  0.00000000000E+00 0.  1.
<mgrwt>
<rscale>  2 0.27820163E+03</rscale>
<asrwt>0</asrwt>
<pdfrwt beam="1">  1       21 0.94006953E-01 0.27823044E+03</pdfrwt>
<pdfrwt beam="2">  1       21 0.24596360E-01 0.27823044E+03</pdfrwt>
<totfact> 0.14135440E+04</totfact>
</mgrwt>
</event>
<event>
12    1  0.1029207E-001  0.1881246E+03  0.7546771E-02  0.1164832E+00
         21   -1    0    0  501  502  0.00000000000E+00  0.00000000000E+00  0.68166636618E+02  0.68166636618E+02  0.00000000000E+00 0. -1.
         21   -1    0    0  502  503 -0.00000000000E+00 -0.00000000000E+00 -0.49465168196E+03  0.49465168196E+03  0.00000000000E+00 0. -1.
         -6    2    1    2    0  503  0.65102145776E+02  0.28767505032E+02 -0.13628061892E+03  0.21697226834E+03  0.15309702612E+03 0.  0.
        -24    2    3    3    0    0  0.25624806277E+02  0.40242278069E+02 -0.33326964912E+02  0.10601427799E+03  0.88613028987E+02 0.  0.
          6    2    1    2  501    0 -0.65102145776E+02 -0.28767505032E+02 -0.29020442642E+03  0.34584605023E+03  0.17414081261E+03 0.  0.
         24    2    5    5    0    0  0.31697481227E+02 -0.29223551019E+02 -0.13559714003E+03  0.16337446677E+03  0.80286273782E+02 0.  0.
          5    1    5    5  501    0 -0.96799627004E+02  0.45604598643E+00 -0.15460728639E+03  0.18247158346E+03  0.47000000000E+01 0. -1.
        -11    1    6    6    0    0 -0.23403186330E+02  0.43476264216E+01 -0.20448128707E+02  0.31380518695E+02  0.00000000000E+00 0.  1.
         12    1    6    6    0    0  0.55100667558E+02 -0.33571177440E+02 -0.11514901133E+03  0.13199394808E+03  0.00000000000E+00 0. -1.
         -5    1    3    3    0  503  0.39477339500E+02 -0.11474773037E+02 -0.10295365401E+03  0.11095799036E+03  0.47000000000E+01 0.  1.
         11    1    4    4    0    0 -0.32318156885E+02  0.15253214945E+02 -0.26066283584E+01  0.35831806290E+02  0.00000000000E+00 0. -1.
        -12    1    4    4    0    0  0.57942963161E+02  0.24989063125E+02 -0.30720336553E+02  0.70182471698E+02  0.00000000000E+00 0.  1.
<mgrwt>
<rscale>  2 0.18310431E+03</rscale>
<asrwt>0</asrwt>
<pdfrwt beam="1">  1       21 0.10487175E-01 0.18812464E+03</pdfrwt>
<pdfrwt beam="2">  1       21 0.76100258E-01 0.18812464E+03</pdfrwt>
<totfact> 0.11499522E+05</totfact>
</mgrwt>
</event>
<event>
12    1  0.1029207E-001  0.2295968E+03  0.7546771E-02  0.1127142E+00
         21   -1    0    0  501  502  0.00000000000E+00  0.00000000000E+00  0.97593418497E+02  0.97593418497E+02  0.00000000000E+00 0. -1.
         21   -1    0    0  502  503 -0.00000000000E+00 -0.00000000000E+00 -0.75583701626E+03  0.75583701626E+03  0.00000000000E+00 0. -1.
         -6    2    1    2    0  503 -0.12311558236E+03  0.85076724884E+02 -0.55796570407E+03  0.60289033609E+03  0.17249792664E+03 0.  0.
        -24    2    3    3    0    0 -0.60973475274E+02  0.11233220694E+03 -0.29455439607E+03  0.33083866828E+03  0.79722285362E+02 0.  0.
          6    2    1    2  501    0  0.12311558236E+03 -0.85076724884E+02 -0.10027789369E+03  0.25054009867E+03  0.17412406307E+03 0.  0.
         24    2    5    5    0    0  0.57742732629E+02 -0.12020226427E+02  0.11185021274E+02  0.10202433229E+03  0.82493337091E+02 0.  0.
          5    1    5    5  501    0  0.65372849731E+02 -0.73056498456E+02 -0.11146291497E+03  0.14851576637E+03  0.47000000000E+01 0. -1.
        -11    1    6    6    0    0  0.26186699934E+02  0.36657566820E+01 -0.35040827059E+02  0.43898070418E+02  0.00000000000E+00 0.  1.
         12    1    6    6    0    0  0.31556032695E+02 -0.15685983109E+02  0.46225848333E+02  0.58126261876E+02  0.00000000000E+00 0. -1.
         -5    1    3    3    0  503 -0.62142107086E+02 -0.27255482052E+02 -0.26341130800E+03  0.27205166781E+03  0.47000000000E+01 0.  1.
         13    1    4    4    0    0 -0.48374016833E+02  0.47655167501E+02 -0.22501940401E+03  0.23504210830E+03  0.00000000000E+00 0. -1.
        -14    1    4    4    0    0 -0.12599458441E+02  0.64677039434E+02 -0.69534992061E+02  0.95796559979E+02  0.00000000000E+00 0.  1.
<mgrwt>
<rscale>  2 0.22928847E+03</rscale>
<asrwt>0</asrwt>
<pdfrwt beam="1">  1       21 0.15014372E-01 0.22959679E+03</pdfrwt>
<pdfrwt beam="2">  1       21 0.11628262E+00 0.22959679E+03</pdfrwt>
<totfact> 0.21860143E+04</totfact>
</mgrwt>
</event>
<event>
12    1  0.1029207E-001  0.2250334E+03  0.7546771E-02  0.1130442E+00
         21   -1    0    0  503  502  0.00000000000E+00  0.00000000000E+00  0.29394468462E+03  0.29394468462E+03  0.00000000000E+00 0. -1.
         21   -1    0    0  501  503 -0.00000000000E+00 -0.00000000000E+00 -0.42274223520E+03  0.42274223520E+03  0.00000000000E+00 0.  1.
          6    2    1    2  501    0 -0.93986901463E+02  0.10809496975E+03 -0.34090186383E+03  0.40847781487E+03  0.17355686199E+03 0.  0.
         24    2    3    3    0    0 -0.86764327763E+02  0.14485559326E+03 -0.27905518475E+03  0.33601671686E+03  0.80772807309E+02 0.  0.
         -6    2    1    2    0  502  0.93986901463E+02 -0.10809496975E+03  0.21210431325E+03  0.30820910495E+03  0.17171648884E+03 0.  0.
        -24    2    5    5    0    0 -0.12151249746E+02 -0.12914146829E+02  0.91656229818E+02  0.12151543340E+03  0.77786297187E+02 0.  0.
          5    1    3    3  501    0 -0.72225736998E+01 -0.36760623508E+02 -0.61846679080E+02  0.72461098009E+02  0.47000000000E+01 0. -1.
        -11    1    4    4    0    0 -0.11284336089E+02  0.85039565258E+02 -0.93063870185E+02  0.12656993258E+03  0.00000000000E+00 0.  1.
         12    1    4    4    0    0 -0.75479991674E+02  0.59816028003E+02 -0.18599131457E+03  0.20944678428E+03  0.00000000000E+00 0. -1.
         -5    1    5    5    0  502  0.10613815121E+03 -0.95180822924E+02  0.12044808343E+03  0.18669367155E+03  0.47000000000E+01 0.  1.
         11    1    6    6    0    0  0.84870390812E+01  0.30527694153E+02  0.36739391621E+02  0.48515490716E+02  0.00000000000E+00 0. -1.
        -12    1    6    6    0    0 -0.20638288827E+02 -0.43441840982E+02  0.54916838197E+02  0.72999942679E+02  0.00000000000E+00 0.  1.
<mgrwt>
<rscale>  2 0.22467851E+03</rscale>
<asrwt>0</asrwt>
<pdfrwt beam="1">  1       21 0.45222259E-01 0.22503343E+03</pdfrwt>
<pdfrwt beam="2">  1       21 0.65037267E-01 0.22503343E+03</pdfrwt>
<totfact> 0.99951287E+03</totfact>
</mgrwt>
</event>
<event>
12    1  0.1029207E-001  0.2030999E+03  0.7546771E-02  0.1148276E+00
         21   -1    0    0  501  502  0.00000000000E+00  0.00000000000E+00  0.18080701982E+03  0.18080701982E+03  0.00000000000E+00 0. -1.
         21   -1    0    0  502  503 -0.00000000000E+00 -0.00000000000E+00 -0.44116563659E+03  0.44116563659E+03  0.00000000000E+00 0.  1.
         -6    2    1    2    0  503 -0.39024612044E+02  0.90668386974E+02 -0.35016722271E+03  0.40480448027E+03  0.17749903280E+03 0.  0.
        -24    2    3    3    0    0 -0.17497903270E+02  0.17428892967E+02 -0.57859691527E+02  0.10265682521E+03  0.81121741412E+02 0.  0.
          6    2    1    2  501    0  0.39024612044E+02 -0.90668386974E+02  0.89808605939E+02  0.21716817614E+03  0.17132645530E+03 0.  0.
         24    2    5    5    0    0 -0.13740825746E+02 -0.10131377129E+03  0.97960382125E+02  0.16252334942E+03  0.79776638773E+02 0.  0.
          5    1    5    5  501    0  0.52765437790E+02  0.10645384317E+02 -0.81517761865E+01  0.54644826722E+02  0.47000000000E+01 0. -1.
        -11    1    6    6    0    0 -0.55451343761E+01 -0.55277484849E+02  0.17855403721E+01  0.55583603706E+02  0.00000000000E+00 0.  1.
         12    1    6    6    0    0 -0.81956913698E+01 -0.46036286442E+02  0.96174841753E+02  0.10693974571E+03  0.00000000000E+00 0. -1.
         -5    1    3    3    0  503 -0.21526708775E+02  0.73239494007E+02 -0.29230753118E+03  0.30214765506E+03  0.47000000000E+01 0.  1.
         11    1    4    4    0    0 -0.46627537732E+01  0.42673456268E+02 -0.60534744310E+02  0.74210648907E+02  0.00000000000E+00 0. -1.
        -12    1    4    4    0    0 -0.12835149496E+02 -0.25244563301E+02  0.26750527830E+01  0.28446176303E+02  0.00000000000E+00 0.  1.
<mgrwt>
<rscale>  2 0.20174347E+03</rscale>
<asrwt>0</asrwt>
<pdfrwt beam="1">  1       21 0.27816465E-01 0.20309993E+03</pdfrwt>
<pdfrwt beam="2">  1       21 0.67871636E-01 0.20309993E+03</pdfrwt>
<totfact> 0.24321971E+04</totfact>
</mgrwt>
</event>
<event>
12    1  0.1029207E-001  0.2120455E+03  0.7546771E-02  0.1143030E+00
         21   -1    0    0  503  502  0.00000000000E+00  0.00000000000E+00  0.58347714657E+03  0.58347714657E+03  0.00000000000E+00 0.  1.
         21   -1    0    0  501  503 -0.00000000000E+00 -0.00000000000E+00 -0.49853190227E+03  0.49853190227E+03  0.00000000000E+00 0. -1.
          6    2    1    2  501    0 -0.89819297345E+02 -0.11551019517E+02 -0.45831461948E+03  0.49883275094E+03  0.17487392817E+03 0.  0.
         24    2    3    3    0    0 -0.52385912566E+01 -0.39522222444E+02 -0.12315853659E+03  0.15200718393E+03  0.79678792197E+02 0.  0.
         -6    2    1    2    0  502  0.89819297345E+02  0.11551019517E+02  0.54325986378E+03  0.58317629790E+03  0.19173518877E+03 0.  0.
        -24    2    5    5    0    0 -0.29206875061E+02  0.35875590892E+00  0.20443940452E+03  0.22385208484E+03  0.86377748915E+02 0.  0.
          5    1    3    3  501    0 -0.84580706088E+02  0.27971202926E+02 -0.33515608288E+03  0.34682556701E+03  0.47000000000E+01 0. -1.
        -13    1    4    4    0    0 -0.37786241485E+02 -0.26809886120E+00 -0.58816161663E+02  0.69908603157E+02  0.00000000000E+00 0.  1.
         14    1    4    4    0    0  0.32547650229E+02 -0.39254123582E+02 -0.64342374930E+02  0.82098580775E+02  0.00000000000E+00 0. -1.
         -5    1    5    5    0  502  0.11902617241E+03  0.11192263608E+02  0.33882045926E+03  0.35932421306E+03  0.47000000000E+01 0.  1.
         11    1    6    6    0    0 -0.25964613258E+02 -0.81315291014E+01  0.21093411994E+03  0.21268165380E+03  0.00000000000E+00 0. -1.
        -12    1    6    6    0    0 -0.32422618028E+01  0.84902850103E+01 -0.64947154200E+01  0.11170431037E+02  0.00000000000E+00 0.  1.
<mgrwt>
<rscale>  2 0.20816149E+03</rscale>
<asrwt>0</asrwt>
<pdfrwt beam="1">  1       21 0.89765715E-01 0.21204555E+03</pdfrwt>
<pdfrwt beam="2">  1       21 0.76697216E-01 0.21204555E+03</pdfrwt>
<totfact> 0.15702084E+03</totfact>
</mgrwt>
</event>
<event>
12    1  0.1029207E-001  0.2165546E+03  0.7546771E-02  0.1136602E+00
         21   -1    0    0  501  502  0.00000000000E+00  0.00000000000E+00  0.32847161198E+03  0.32847161198E+03  0.00000000000E+00 0. -1.
         21   -1    0    0  502  503 -0.00000000000E+00 -0.00000000000E+00 -0.34535783677E+03  0.34535783677E+03  0.00000000000E+00 0.  1.
         -6    2    1    2    0  503 -0.82908762427E+02  0.98731655901E+02 -0.26676300819E+03  0.34359629569E+03  0.17399456632E+03 0.  0.
        -24    2    3    3    0    0 -0.11221992536E+03  0.41536489751E+02 -0.14788710871E+03  0.20837795086E+03  0.85042235689E+02 0.  0.
          6    2    1    2  501    0  0.82908762427E+02 -0.98731655901E+02  0.24987678340E+03  0.33023315306E+03  0.17318696757E+03 0.  0.
         24    2    5    5    0    0  0.50267541825E+02 -0.13619872356E+03  0.18210049395E+03  0.24606103266E+03  0.79426216313E+02 0.  0.
          5    1    5    5  501    0  0.32641220602E+02  0.37467067656E+02  0.67776289445E+02  0.84172120396E+02  0.47000000000E+01 0. -1.
        -11    1    6    6    0    0  0.60773923778E+02 -0.14047285968E+03  0.16123847621E+03  0.22231495750E+03  0.00000000000E+00 0.  1.
         12    1    6    6    0    0 -0.10506381953E+02  0.42741361232E+01  0.20862017737E+02  0.23746075158E+02  0.00000000000E+00 0. -1.
         -5    1    3    3    0  503  0.29311162932E+02  0.57195166150E+02 -0.11887589947E+03  0.13521834483E+03  0.47000000000E+01 0.  1.
         13    1    4    4    0    0 -0.11392887416E+02 -0.12700762805E+02 -0.64558067062E+02  0.66774630529E+02  0.00000000000E+00 0. -1.
        -14    1    4    4    0    0 -0.10082703794E+03  0.54237252557E+02 -0.83329041652E+02  0.14160332033E+03  0.00000000000E+00 0.  1.
<mgrwt>
<rscale>  2 0.21639237E+03</rscale>
<asrwt>0</asrwt>
<pdfrwt beam="1">  1       21 0.50534094E-01 0.21655464E+03</pdfrwt>
<pdfrwt beam="2">  1       21 0.53131975E-01 0.21655464E+03</pdfrwt>
<totfact> 0.12312513E+04</totfact>
</mgrwt>
</event>
<event>
12    1  0.1029207E-001  0.2090561E+03  0.7546771E-02  0.1142532E+00
         21   -1    0    0  501  502  0.00000000000E+00  0.00000000000E+00  0.48561921314E+03  0.48561921314E+03  0.00000000000E+00 0.  1.
         21   -1    0    0  502  503 -0.00000000000E+00 -0.00000000000E+00 -0.13345878232E+03  0.13345878232E+03  0.00000000000E+00 0.  1.
         -6    2    1    2    0  503 -0.10211683690E+03  0.56984831825E+02  0.35335913852E+03  0.41001841159E+03  0.17198051527E+03 0.  0.
        -24    2    3    3    0    0 -0.49761742840E+02  0.95795323959E+02  0.18330991918E+03  0.22784778506E+03  0.81603379484E+02 0.  0.
          6    2    1    2  501    0  0.10211683690E+03 -0.56984831825E+02 -0.11987076990E+01  0.20905958387E+03  0.17328979563E+03 0.  0.
         24    2    5    5    0    0  0.12776565890E+03 -0.46211584032E+01 -0.15188240428E+01  0.15056164511E+03  0.79505241653E+02 0.  0.
          5    1    5    5  501    0 -0.25648822008E+02 -0.52363673422E+02  0.32011634380E+00  0.58497938760E+02  0.47000000000E+01 0. -1.
        -13    1    6    6    0    0  0.66045721787E+02  0.30649963118E+02  0.21366502379E+02  0.75881387899E+02  0.00000000000E+00 0.  1.
         14    1    6    6    0    0  0.61719937117E+02 -0.35271121522E+02 -0.22885326421E+02  0.74680257207E+02  0.00000000000E+00 0. -1.
         -5    1    3    3    0  503 -0.52355094057E+02 -0.38810492133E+02  0.17004921934E+03  0.18217062653E+03  0.47000000000E+01 0.  1.
         13    1    4    4    0    0  0.63741615468E+01  0.58069802514E+02  0.12718142039E+03  0.13995658467E+03  0.00000000000E+00 0. -1.
        -14    1    4    4    0    0 -0.56135904386E+02  0.37725521445E+02  0.56128498790E+02  0.87891200390E+02  0.00000000000E+00 0.  1.
<mgrwt>
<rscale>  2 0.20878462E+03</rscale>
<asrwt>0</asrwt>
<pdfrwt beam="1">  1       21 0.74710648E-01 0.20905615E+03</pdfrwt>
<pdfrwt beam="2">  1       21 0.20532121E-01 0.20905615E+03</pdfrwt>
<totfact> 0.34936322E+04</totfact>
</mgrwt>
</event>
<event>
12    1  0.1029207E-001  0.1824444E+03  0.7546771E-02  0.1165883E+00
         21   -1    0    0  501  502  0.00000000000E+00  0.00000000000E+00  0.11528729525E+03  0.11528729525E+03  0.00000000000E+00 0.  1.
         21   -1    0    0  502  503 -0.00000000000E+00 -0.00000000000E+00 -0.38067845912E+03  0.38067845912E+03  0.00000000000E+00 0.  1.
         -6    2    1    2    0  503 -0.18664523105E+02 -0.51455378651E+02 -0.25593338173E+03  0.31327636110E+03  0.17217480107E+03 0.  0.
        -24    2    3    3    0    0  0.32999175058E+02 -0.20397996655E+02 -0.23101900882E+03  0.24788129506E+03  0.81057573270E+02 0.  0.
          6    2    1    2  501    0  0.18664523105E+02  0.51455378651E+02 -0.94577821373E+01  0.18268939328E+03  0.17404006538E+03 0.  0.
         24    2    5    5    0    0 -0.28379058649E+01  0.97242596081E+02  0.15008946120E+02  0.12630203190E+03  0.79137592810E+02 0.  0.
          5    1    5    5  501    0  0.21502428970E+02 -0.45787217430E+02 -0.24466728257E+02  0.56387361378E+02  0.47000000000E+01 0. -1.
        -11    1    6    6    0    0  0.20594590631E+02  0.67331398153E+02 -0.21487777952E+02  0.73616431194E+02  0.00000000000E+00 0.  1.
         12    1    6    6    0    0 -0.23432496496E+02  0.29911197928E+02  0.36496724072E+02  0.52685600703E+02  0.00000000000E+00 0. -1.
         -5    1    3    3    0  503 -0.51663698163E+02 -0.31057381996E+02 -0.24914372914E+02  0.65395066037E+02  0.47000000000E+01 0.  1.
         13    1    4    4    0    0  0.29871949032E+02 -0.45686536484E+02 -0.20208137283E+03  0.20932385005E+03  0.00000000000E+00 0. -1.
        -14    1    4    4    0    0  0.31272260257E+01  0.25288539828E+02 -0.28937635985E+02  0.38557445009E+02  0.00000000000E+00 0.  1.
<mgrwt>
<rscale>  2 0.18199816E+03</rscale>
<asrwt>0</asrwt>
<pdfrwt beam="1">  1       21 0.17736507E-01 0.18244442E+03</pdfrwt>
<pdfrwt beam="2">  1       21 0.58565916E-01 0.18244442E+03</pdfrwt>
<totfact> 0.79068595E+04</totfact>
</mgrwt>
</event>
<event>
12    1  0.1029207E-001  0.3005421E+03  0.7546771E-02  0.1084984E+00
         21   -1    0    0  501  502  0.00000000000E+00  0.00000000000E+00  0.23223408346E+03  0.23223408346E+03  0.00000000000E+00 0. -1.
         21   -1    0    0  502  503 -0.00000000000E+00 -0.00000000000E+00 -0.42216059182E+03  0.42216059182E+03  0.00000000000E+00 0. -1.
         -6    2    1    2    0  503 -0.24474707551E+03  0.13590426359E+02 -0.18693355174E+03  0.35383771537E+03  0.17369843234E+03 0.  0.
        -24    2    3    3    0    0 -0.22768481600E+03  0.29284112148E+02 -0.98507530884E+02  0.26230267488E+03  0.80006405678E+02 0.  0.
          6    2    1    2  501    0  0.24474707551E+03 -0.13590426359E+02 -0.29929566156E+01  0.30055695991E+03  0.17389565176E+03 0.  0.
         24    2    5    5    0    0  0.18292932303E+03  0.18645104554E+02  0.57604305466E+02  0.20806543518E+03  0.78499631602E+02 0.  0.
          5    1    5    5  501    0  0.61817752480E+02 -0.32235530913E+02 -0.60597262081E+02  0.92491524729E+02  0.47000000000E+01 0. -1.
        -11    1    6    6    0    0  0.46767332580E+02 -0.27749147699E+02  0.28141533799E+02  0.61230258200E+02  0.00000000000E+00 0.  1.
         12    1    6    6    0    0  0.13616199045E+03  0.46394252253E+02  0.29462771667E+02  0.14683517698E+03  0.00000000000E+00 0. -1.
         -5    1    3    3    0  503 -0.17062259509E+02 -0.15693685788E+02 -0.88426020858E+02  0.91535040492E+02  0.47000000000E+01 0.  1.
         13    1    4    4    0    0 -0.19149571288E+03 -0.70444125173E+00 -0.98408613615E+02  0.21530294825E+03  0.00000000000E+00 0. -1.
        -14    1    4    4    0    0 -0.36189103113E+02  0.29988553400E+02 -0.98917269696E-01  0.46999726635E+02  0.00000000000E+00 0.  1.
<mgrwt>
<rscale>  2 0.30051354E+03</rscale>
<asrwt>0</asrwt>
<pdfrwt beam="1">  1       21 0.35728321E-01 0.30054206E+03</pdfrwt>
<pdfrwt beam="2">  1       21 0.64947783E-01 0.30054206E+03</pdfrwt>
<totfact> 0.15594789E+04</totfact>
</mgrwt>
</event>
<event>
12    1  0.1029207E-001  0.2093167E+03  0.7546771E-02  0.1142212E+00
         21   -1    0    0  503  502  0.00000000000E+00  0.00000000000E+00  0.38754276068E+02  0.38754276068E+02  0.00000000000E+00 0.  1.
         21   -1    0    0  501  503 -0.00000000000E+00 -0.00000000000E+00 -0.11345723730E+04  0.11345723730E+04  0.00000000000E+00 0.  1.
          6    2    1    2  501    0 -0.85567706936E+02 -0.78498698242E+02 -0.50171300231E+03  0.54342638281E+03  0.17352930227E+03 0.  0.
         24    2    3    3    0    0 -0.12350765083E+03 -0.61403634310E+02 -0.44503032184E+03  0.47295158718E+03  0.81281426767E+02 0.  0.
         -6    2    1    2    0  502  0.85567706936E+02  0.78498698242E+02 -0.59410509460E+03  0.62990026624E+03  0.17415396603E+03 0.  0.
        -24    2    5    5    0    0  0.11672817722E+03  0.39030442755E+02 -0.51687734262E+03  0.53762386744E+03  0.82026780429E+02 0.  0.
          5    1    3    3  501    0  0.37939943893E+02 -0.17095063932E+02 -0.56682680473E+02  0.70474795630E+02  0.47000000000E+01 0. -1.
        -13    1    4    4    0    0 -0.10350953601E+03 -0.44897052773E+02 -0.42626259245E+03  0.44094190901E+03  0.00000000000E+00 0.  1.
         14    1    4    4    0    0 -0.19998114819E+02 -0.16506581538E+02 -0.18767729388E+02  0.32009678173E+02  0.00000000000E+00 0. -1.
         -5    1    5    5    0  502 -0.31160470287E+02  0.39468255487E+02 -0.77227751975E+02  0.92276398796E+02  0.47000000000E+01 0.  1.
         13    1    6    6    0    0  0.50816209625E+01 -0.72746502763E+01 -0.17110361074E+03  0.17133356068E+03  0.00000000000E+00 0. -1.
        -14    1    6    6    0    0  0.11164655626E+03  0.46305093031E+02 -0.34577373189E+03  0.36629030676E+03  0.00000000000E+00 0.  1.
<mgrwt>
<rscale>  2 0.20918672E+03</rscale>
<asrwt>0</asrwt>
<pdfrwt beam="1">  1       21 0.59621975E-02 0.20931670E+03</pdfrwt>
<pdfrwt beam="2">  1       21 0.17454956E+00 0.20931670E+03</pdfrwt>
<totfact> 0.39122928E+04</totfact>
</mgrwt>
</event>
<event>
12    1  0.1029207E-001  0.2729258E+03  0.7546771E-02  0.1099625E+00
         21   -1    0    0  503  502  0.00000000000E+00  0.00000000000E+00  0.59233703414E+02  0.59233703414E+02  0.00000000000E+00 0. -1.
         21   -1    0    0  501  503 -0.00000000000E+00 -0.00000000000E+00 -0.20714527928E+04  0.20714527928E+04  0.00000000000E+00 0. -1.
          6    2    1    2  501    0  0.19620634821E+03  0.77621216846E+02 -0.16739458816E+04  0.16960403780E+04  0.17302070640E+03 0.  0.
         24    2    3    3    0    0  0.72634483244E+02 -0.31458529627E+02 -0.83499916779E+03  0.84104208821E+03  0.62151240458E+02 0.  0.
         -6    2    1    2    0  502 -0.19620634821E+03 -0.77621216846E+02 -0.33827320775E+03  0.43464611819E+03  0.17310834930E+03 0.  0.
        -24    2    5    5    0    0 -0.94963549938E+02 -0.10711239605E+03 -0.23343682708E+03  0.28587585717E+03  0.82104276812E+02 0.  0.
          5    1    3    3  501    0  0.12357186497E+03  0.10907974647E+03 -0.83894671382E+03  0.85499828978E+03  0.47000000000E+01 0. -1.
        -13    1    4    4    0    0  0.34905680385E+02 -0.36669234525E+02 -0.26634128368E+03  0.27111015967E+03  0.00000000000E+00 0.  1.
         14    1    4    4    0    0  0.37728802859E+02  0.52107048981E+01 -0.56865788412E+03  0.56993192855E+03  0.00000000000E+00 0. -1.
         -5    1    5    5    0  502 -0.10124279827E+03  0.29491179207E+02 -0.10483638067E+03  0.14877026102E+03  0.47000000000E+01 0.  1.
         13    1    6    6    0    0 -0.10620756848E+03 -0.74636511128E+02 -0.17209623343E+03  0.21556384195E+03  0.00000000000E+00 0. -1.
        -14    1    6    6    0    0  0.11244018545E+02 -0.32475884925E+02 -0.61340593648E+02  0.70312015216E+02  0.00000000000E+00 0.  1.
<mgrwt>
<rscale>  2 0.27291189E+03</rscale>
<asrwt>0</asrwt>
<pdfrwt beam="1">  1       21 0.91128773E-02 0.27292579E+03</pdfrwt>
<pdfrwt beam="2">  1       21 0.31868505E+00 0.27292579E+03</pdfrwt>
<totfact> 0.23338464E+03</totfact>
</mgrwt>
</event>
<event>
12    1  0.1029207E-001  0.1761140E+03  0.7546771E-02  0.1173489E+00
         21   -1    0    0  503  502  0.00000000000E+00  0.00000000000E+00  0.11688909094E+04  0.11688909094E+04  0.00000000000E+00 0. -1.
         21   -1    0    0  501  503 -0.00000000000E+00 -0.00000000000E+00 -0.27046532616E+02  0.27046532616E+02  0.00000000000E+00 0. -1.
          6    2    1    2  501    0 -0.23623185435E+02  0.16847021824E+02  0.70522559452E+03  0.72513803090E+03  0.16625326361E+03 0.  0.
         24    2    3    3    0    0 -0.53060682528E+02  0.29625550513E+02  0.66919299499E+03  0.67665818706E+03  0.79711531735E+02 0.  0.
         -6    2    1    2    0  502  0.23623185435E+02 -0.16847021824E+02  0.43661878229E+03  0.47079941114E+03  0.17370736152E+03 0.  0.
        -24    2    5    5    0    0  0.54157220418E+02 -0.65290612714E+02  0.25993107776E+03  0.28500451421E+03  0.80421012838E+02 0.  0.
          5    1    3    3  501    0  0.29437497093E+02 -0.12778528689E+02  0.36032599528E+02  0.48479843846E+02  0.47000000000E+01 0. -1.
        -11    1    4    4    0    0 -0.41195920055E+02  0.51573267660E+02  0.32927195064E+03  0.33582275570E+03  0.00000000000E+00 0.  1.
         12    1    4    4    0    0 -0.11864762473E+02 -0.21947717146E+02  0.33992104435E+03  0.34083543136E+03  0.00000000000E+00 0. -1.
         -5    1    5    5    0  502 -0.30534034983E+02  0.48443590889E+02  0.17668770453E+03  0.18579489692E+03  0.47000000000E+01 0.  1.
         11    1    6    6    0    0  0.65685693606E+02 -0.21049724719E+02  0.18228300949E+03  0.19489688762E+03  0.00000000000E+00 0. -1.
        -12    1    6    6    0    0 -0.11528473187E+02 -0.44240887995E+02  0.77648068265E+02  0.90107626591E+02  0.00000000000E+00 0.  1.
<mgrwt>
<rscale>  2 0.17424755E+03</rscale>
<asrwt>0</asrwt>
<pdfrwt beam="1">  1       21 0.17982933E+00 0.17611395E+03</pdfrwt>
<pdfrwt beam="2">  1       21 0.41610059E-02 0.17611395E+03</pdfrwt>
<totfact> 0.67561764E+04</totfact>
</mgrwt>
</event>
<event>
12    1  0.1029207E-001  0.1972160E+03  0.7546771E-02  0.1152980E+00
         21   -1    0    0  501  502  0.00000000000E+00  0.00000000000E+00  0.51083905324E+02  0.51083905324E+02  0.00000000000E+00 0.  1.
         21   -1    0    0  502  503 -0.00000000000E+00 -0.00000000000E+00 -0.18197458033E+04  0.18197458033E+04  0.00000000000E+00 0. -1.
         -6    2    1    2    0  503  0.91829306707E+02  0.20927084742E+02 -0.16065780977E+04  0.16186374915E+04  0.17327313815E+03 0.  0.
        -24    2    3    3    0    0  0.10071984980E+03  0.34454824769E+02 -0.70669467289E+03  0.71859620924E+03  0.75043508384E+02 0.  0.
          6    2    1    2  501    0 -0.91829306707E+02 -0.20927084742E+02 -0.16208380029E+03  0.25219221715E+03  0.16869852290E+03 0.  0.
         24    2    5    5    0    0 -0.11172019145E+03 -0.34018134576E+02 -0.71926029712E+02  0.15882446856E+03  0.80082603636E+02 0.  0.
          5    1    5    5  501    0  0.19890884739E+02  0.13091049834E+02 -0.90157770578E+02  0.93367748592E+02  0.47000000000E+01 0. -1.
        -11    1    6    6    0    0 -0.48823417196E+02  0.27844830757E+01  0.92150683068E+01  0.49763409214E+02  0.00000000000E+00 0.  1.
         12    1    6    6    0    0 -0.62896774251E+02 -0.36802617652E+02 -0.81141098019E+02  0.10906105934E+03  0.00000000000E+00 0. -1.
         -5    1    3    3    0  503 -0.88905430917E+01 -0.13527740027E+02 -0.89988342483E+03  0.90004128227E+03  0.47000000000E+01 0.  1.
         11    1    4    4    0    0  0.65693206050E+02 -0.67676983298E+01 -0.52143864390E+03  0.52560408904E+03  0.00000000000E+00 0. -1.
        -12    1    4    4    0    0  0.35026643749E+02  0.41222523099E+02 -0.18525602899E+03  0.19299212020E+03  0.00000000000E+00 0.  1.
<mgrwt>
<rscale>  2 0.19620654E+03</rscale>
<asrwt>0</asrwt>
<pdfrwt beam="1">  1       21 0.78590630E-02 0.19721599E+03</pdfrwt>
<pdfrwt beam="2">  1       21 0.27996087E+00 0.19721599E+03</pdfrwt>
<totfact> 0.54834515E+03</totfact>
</mgrwt>
</event>
<event>
12    1  0.1029207E-001  0.2320694E+03  0.7546771E-02  0.1126173E+00
         21   -1    0    0  503  502  0.00000000000E+00  0.00000000000E+00  0.10149330949E+04  0.10149330949E+04  0.00000000000E+00 0. -1.
         21   -1    0    0  501  503 -0.00000000000E+00 -0.00000000000E+00 -0.62082338710E+02  0.62082338710E+02  0.00000000000E+00 0.  1.
          6    2    1    2  501    0 -0.35928402731E+02  0.15098773737E+03  0.26208876761E+03  0.35006673909E+03  0.17253420747E+03 0.  0.
         24    2    3    3    0    0 -0.77606445291E+02  0.15253347071E+03  0.20466739860E+03  0.27894183387E+03  0.81428389373E+02 0.  0.
         -6    2    1    2    0  502  0.35928402731E+02 -0.15098773737E+03  0.69076198860E+03  0.72694869454E+03  0.16496706533E+03 0.  0.
        -24    2    5    5    0    0  0.53345698018E+02 -0.17431268445E+03  0.60431407314E+03  0.63561005311E+03  0.74658992537E+02 0.  0.
          5    1    3    3  501    0  0.41678042560E+02 -0.15457333333E+01  0.57421369016E+02  0.71124905222E+02  0.47000000000E+01 0. -1.
        -13    1    4    4    0    0  0.24240854341E+01  0.77893458294E+02  0.10621709720E+03  0.13173966287E+03  0.00000000000E+00 0.  1.
         14    1    4    4    0    0 -0.80030530725E+02  0.74640012414E+02  0.98450301392E+02  0.14720217099E+03  0.00000000000E+00 0. -1.
         -5    1    5    5    0  502 -0.17417295287E+02  0.23324947074E+02  0.86447915462E+02  0.91338641433E+02  0.47000000000E+01 0.  1.
         11    1    6    6    0    0  0.44757259631E+02 -0.14922148722E+03  0.57650050595E+03  0.59717928456E+03  0.00000000000E+00 0. -1.
        -12    1    6    6    0    0  0.85884383866E+01 -0.25091197227E+02  0.27813567184E+02  0.38430768555E+02  0.00000000000E+00 0.  1.
<mgrwt>
<rscale>  2 0.23066435E+03</rscale>
<asrwt>0</asrwt>
<pdfrwt beam="1">  1       21 0.15614354E+00 0.23206939E+03</pdfrwt>
<pdfrwt beam="2">  1       21 0.95511298E-02 0.23206939E+03</pdfrwt>
<totfact> 0.23067038E+04</totfact>
</mgrwt>
</event>
<event>
11    1  0.1029207E-001  0.2185402E+03  0.7546771E-02  0.1135151E+00
         21   -1    0    0  501  502  0.00000000000E+00  0.00000000000E+00  0.75694970287E+02  0.75694970287E+02  0.00000000000E+00 0.  1.
         21   -1    0    0  502  503 -0.00000000000E+00 -0.00000000000E+00 -0.65075217534E+03  0.65075217534E+03  0.00000000000E+00 0.  1.
         -6    2    1    2    0  503  0.15197100838E+02  0.13264158807E+03 -0.35562412765E+03  0.41740667194E+03  0.17301753339E+03 0.  0.
          6    2    1    2  501    0 -0.15197100838E+02 -0.13264158807E+03 -0.21943307741E+03  0.30904047369E+03  0.17184410422E+03 0.  0.
         24    2    4    4    0    0 -0.45214207604E+02 -0.14224125847E+03 -0.12828955922E+03  0.21248783893E+03  0.80099753479E+02 0.  0.
          5    1    4    4  501    0  0.30017106766E+02  0.95996704033E+01 -0.91143518192E+02  0.96552634759E+02  0.47000000000E+01 0. -1.
        -13    1    5    5    0    0  0.21737326777E+01 -0.59423350935E+02 -0.93738191076E+02  0.11100769440E+03  0.00000000000E+00 0.  1.
         14    1    5    5    0    0 -0.47387940282E+02 -0.82817907536E+02 -0.34551368143E+02  0.10148014453E+03  0.00000000000E+00 0. -1.
         -5    1    3    3    0  503 -0.19787865700E+02  0.13974656362E+03 -0.15090835262E+03  0.20667869402E+03  0.47000000000E+01 0.  1.
         11    1    3    3    0    0  0.11095069922E+01 -0.15099066113E+02 -0.58660394799E+02  0.60582627223E+02  0.00000000000E+00 0. -1.
        -12    1    3    3    0    0  0.33875459546E+02  0.79940905634E+01 -0.14605538023E+03  0.15014535070E+03  0.00000000000E+00 0.  1.
<mgrwt>
<rscale>  2 0.21830785E+03</rscale>
<asrwt>0</asrwt>
<pdfrwt beam="1">  1       21 0.11645380E-01 0.21854018E+03</pdfrwt>
<pdfrwt beam="2">  1       21 0.10011572E+00 0.21854018E+03</pdfrwt>
<totfact> 0.50037887E+04</totfact>
</mgrwt>
</event>
<event>
12    1  0.1029207E-001  0.2392814E+03  0.7546771E-02  0.1120361E+00
         21   -1    0    0  503  502  0.00000000000E+00  0.00000000000E+00  0.25259220866E+03  0.25259220866E+03  0.00000000000E+00 0.  1.
         21   -1    0    0  501  503 -0.00000000000E+00 -0.00000000000E+00 -0.68977375248E+03  0.68977375248E+03  0.00000000000E+00 0. -1.
          6    2    1    2  501    0 -0.73326810058E+02  0.14786772893E+03 -0.60495638972E+03  0.65055963216E+03  0.17324524583E+03 0.  0.
         24    2    3    3    0    0 -0.75583406560E+02  0.36197182022E+02 -0.20971295658E+03  0.23981048156E+03  0.80662603343E+02 0.  0.
         -6    2    1    2    0  502  0.73326810058E+02 -0.14786772893E+03  0.16777484590E+03  0.29180632898E+03  0.17251332814E+03 0.  0.
        -24    2    5    5    0    0  0.26821183027E+02 -0.10909852415E+03  0.28405059507E+02  0.13978050242E+03  0.78165706157E+02 0.  0.
          5    1    3    3  501    0  0.22565965018E+01  0.11167054691E+03 -0.39524343314E+03  0.41074915060E+03  0.47000000000E+01 0. -1.
        -13    1    4    4    0    0 -0.77931180639E+01 -0.43108086238E+01  0.55672473537E+01  0.10502856909E+02  0.00000000000E+00 0.  1.
         14    1    4    4    0    0 -0.67790288496E+02  0.40507990646E+02 -0.21528020393E+03  0.22930762466E+03  0.00000000000E+00 0. -1.
         -5    1    5    5    0  502  0.46505627031E+02 -0.38769204780E+02  0.13936978639E+03  0.15202582656E+03  0.47000000000E+01 0.  1.
         13    1    6    6    0    0 -0.24915768495E+01 -0.12718198810E+02 -0.23213715273E+02  0.26586408425E+02  0.00000000000E+00 0. -1.
        -14    1    6    6    0    0  0.29312759876E+02 -0.96380325342E+02  0.51618774780E+02  0.11319409399E+03  0.00000000000E+00 0.  1.
<mgrwt>
<rscale>  2 0.23914897E+03</rscale>
<asrwt>0</asrwt>
<pdfrwt beam="1">  1       21 0.38860340E-01 0.23928143E+03</pdfrwt>
<pdfrwt beam="2">  1       21 0.10611904E+00 0.23928143E+03</pdfrwt>
<totfact> 0.43912522E+03</totfact>
</mgrwt>
</event>
<event>
12    1  0.1029207E-001  0.1963856E+03  0.7546771E-02  0.1153356E+00
         21   -1    0    0  501  502  0.00000000000E+00  0.00000000000E+00  0.40741865277E+03  0.40741865277E+03  0.00000000000E+00 0.  1.
         21   -1    0    0  502  503 -0.00000000000E+00 -0.00000000000E+00 -0.10852753592E+03  0.10852753592E+03  0.00000000000E+00 0.  1.
         -6    2    1    2    0  503  0.75096093964E+02  0.55621407733E+02  0.54223023098E+02  0.20373377075E+03  0.17272564599E+03 0.  0.
        -24    2    3    3    0    0  0.29517954265E+02  0.75162047439E+01  0.93403688207E+02  0.12660600732E+03  0.79856303199E+02 0.  0.
          6    2    1    2  501    0 -0.75096093964E+02 -0.55621407733E+02  0.24466809375E+03  0.31221241794E+03  0.16994397163E+03 0.  0.
         24    2    5    5    0    0 -0.11626621113E+03 -0.38444495229E+02  0.20709175383E+03  0.25369664065E+03  0.80493353173E+02 0.  0.
          5    1    5    5  501    0  0.41170117170E+02 -0.17176912504E+02  0.37576339913E+02  0.58515777293E+02  0.47000000000E+01 0. -1.
        -13    1    6    6    0    0 -0.88125900824E+02  0.93444127047E+01  0.10401627058E+03  0.13664873578E+03  0.00000000000E+00 0.  1.
         14    1    6    6    0    0 -0.28140310311E+02 -0.47788907934E+02  0.10307548326E+03  0.11704790487E+03  0.00000000000E+00 0. -1.
         -5    1    3    3    0  503  0.45578139699E+02  0.48105202989E+02 -0.39180665109E+02  0.77127763428E+02  0.47000000000E+01 0.  1.
         11    1    4    4    0    0 -0.20825119028E+02  0.24370636877E+02  0.29928128295E+02  0.43855517185E+02  0.00000000000E+00 0. -1.
        -12    1    4    4    0    0  0.50343073293E+02 -0.16854432133E+02  0.63475559912E+02  0.82750490133E+02  0.00000000000E+00 0.  1.
<mgrwt>
<rscale>  2 0.19577225E+03</rscale>
<asrwt>0</asrwt>
<pdfrwt beam="1">  1       21 0.62679792E-01 0.19638562E+03</pdfrwt>
<pdfrwt beam="2">  1       21 0.16696544E-01 0.19638562E+03</pdfrwt>
<totfact> 0.75926581E+04</totfact>
</mgrwt>
</event>
<event>
12    1  0.1029207E-001  0.2367045E+03  0.7546771E-02  0.1122141E+00
         21   -1    0    0  503  502  0.00000000000E+00  0.00000000000E+00  0.67651786302E+02  0.67651786302E+02  0.00000000000E+00 0.  1.
         21   -1    0    0  501  503 -0.00000000000E+00 -0.00000000000E+00 -0.84868340535E+03  0.84868340535E+03  0.00000000000E+00 0.  1.
          6    2    1    2  501    0  0.15923864799E+03 -0.13347735785E+02 -0.31409203772E+03  0.39282625693E+03  0.17356137506E+03 0.  0.
         24    2    3    3    0    0  0.12978329920E+03  0.51554680366E+02 -0.24662625600E+03  0.29457320152E+03  0.80294900748E+02 0.  0.
         -6    2    1    2    0  502 -0.15923864799E+03  0.13347735785E+02 -0.46693958133E+03  0.52350893472E+03  0.17462509286E+03 0.  0.
        -24    2    5    5    0    0 -0.17890147460E+03  0.44748908917E+02 -0.36450668501E+03  0.41448027486E+03  0.70146791531E+02 0.  0.
          5    1    3    3  501    0  0.29455348786E+02 -0.64902416151E+02 -0.67465781722E+02  0.98253055411E+02  0.47000000000E+01 0. -1.
        -13    1    4    4    0    0  0.31319103597E+02  0.41036774097E+02 -0.13922857822E+03  0.14849074070E+03  0.00000000000E+00 0.  1.
         14    1    4    4    0    0  0.98464195607E+02  0.10517906269E+02 -0.10739767777E+03  0.14608246082E+03  0.00000000000E+00 0. -1.
         -5    1    5    5    0  502  0.19662826610E+02 -0.31401173132E+02 -0.10243289632E+03  0.10902865987E+03  0.47000000000E+01 0.  1.
         11    1    6    6    0    0 -0.26830171085E+01  0.17479411175E+02 -0.48666084300E+02  0.51779495526E+02  0.00000000000E+00 0. -1.
        -12    1    6    6    0    0 -0.17621845749E+03  0.27269497742E+02 -0.31584060071E+03  0.36270077933E+03  0.00000000000E+00 0.  1.
<mgrwt>
<rscale>  2 0.23650837E+03</rscale>
<asrwt>0</asrwt>
<pdfrwt beam="1">  1       21 0.10407968E-01 0.23670452E+03</pdfrwt>
<pdfrwt beam="2">  1       21 0.13056667E+00 0.23670452E+03</pdfrwt>
<totfact> 0.31537109E+04</totfact>
</mgrwt>
</event>
<event>
12    1  0.1029207E-001  0.1772697E+03  0.7546771E-02  0.1170644E+00
         21   -1    0    0  503  502  0.00000000000E+00  0.00000000000E+00  0.61918440228E+02  0.61918440228E+02  0.00000000000E+00 0.  1.
         21   -1    0    0  501  503 -0.00000000000E+00 -0.00000000000E+00 -0.53896818530E+03  0.53896818530E+03  0.00000000000E+00 0.  1.
          6    2    1    2  501    0  0.19105454491E+02  0.35663911380E+02 -0.31380380788E+03  0.36041280903E+03  0.17259093285E+03 0.  0.
         24    2    3    3    0    0 -0.26965389085E+02  0.18223712122E+02 -0.29440625584E+03  0.30726172058E+03  0.81703644743E+02 0.  0.
         -6    2    1    2    0  502 -0.19105454491E+02 -0.35663911380E+02 -0.16324593719E+03  0.24047381650E+03  0.17187637257E+03 0.  0.
        -24    2    5    5    0    0 -0.27432018926E+02 -0.55216398105E+02 -0.18411671637E+03  0.21031903518E+03  0.80831708061E+02 0.  0.
          5    1    3    3  501    0  0.46070843577E+02  0.17440199257E+02 -0.19397552044E+02  0.53151088449E+02  0.47000000000E+01 0. -1.
        -13    1    4    4    0    0 -0.22662252832E+02 -0.30673584148E+02 -0.10951139734E+03  0.11596203092E+03  0.00000000000E+00 0.  1.
         14    1    4    4    0    0 -0.43031362537E+01  0.48897296270E+02 -0.18489485850E+03  0.19129968966E+03  0.00000000000E+00 0. -1.
         -5    1    5    5    0  502  0.83265644349E+01  0.19552486725E+02  0.20870779188E+02  0.30154781318E+02  0.47000000000E+01 0.  1.
         11    1    6    6    0    0  0.20509589550E+02 -0.31966430817E+02 -0.33813933528E+02  0.50851529607E+02  0.00000000000E+00 0. -1.
        -12    1    6    6    0    0 -0.47941608476E+02 -0.23249967288E+02 -0.15030278285E+03  0.15946750557E+03  0.00000000000E+00 0.  1.
<mgrwt>
<rscale>  2 0.17709558E+03</rscale>
<asrwt>0</asrwt>
<pdfrwt beam="1">  1       21 0.95259136E-02 0.17726975E+03</pdfrwt>
<pdfrwt beam="2">  1       21 0.82918185E-01 0.17726975E+03</pdfrwt>
<totfact> 0.11275799E+05</totfact>
</mgrwt>
</event>
<event>
12    1  0.1029207E-001  0.2956663E+03  0.7546771E-02  0.1087818E+00
         21   -1    0    0  503  502  0.00000000000E+00  0.00000000000E+00  0.16242012325E+04  0.16242012325E+04  0.00000000000E+00 0.  1.
         21   -1    0    0  501  503 -0.00000000000E+00 -0.00000000000E+00 -0.53292245905E+02  0.53292245905E+02  0.00000000000E+00 0. -1.
          6    2    1    2  501    0  0.23451516379E+03  0.30243738494E+02  0.77192059755E+03  0.82660752220E+03  0.17750081991E+03 0.  0.
         24    2    3    3    0    0  0.13596780274E+03 -0.31276348590E+02  0.58108546797E+03  0.60314289376E+03  0.81581712631E+02 0.  0.
         -6    2    1    2    0  502 -0.23451516379E+03 -0.30243738494E+02  0.79898838907E+03  0.85088595623E+03  0.17237290645E+03 0.  0.
        -24    2    5    5    0    0 -0.46869290770E+02 -0.16705465604E+02  0.38260724727E+03  0.39395094582E+03  0.79581650206E+02 0.  0.
          5    1    3    3  501    0  0.98547361045E+02  0.61520087085E+02  0.19083512958E+03  0.22346462844E+03  0.47000000000E+01 0. -1.
        -11    1    4    4    0    0  0.49837809169E+02 -0.30908185803E+02  0.11418093518E+03  0.12836046561E+03  0.00000000000E+00 0.  1.
         12    1    4    4    0    0  0.86129993575E+02 -0.36816278686E+00  0.46690453279E+03  0.47478242815E+03  0.00000000000E+00 0. -1.
         -5    1    5    5    0  502 -0.18764587302E+03 -0.13538272890E+02  0.41638114180E+03  0.45693501041E+03  0.47000000000E+01 0.  1.
         13    1    6    6    0    0 -0.12198159609E+02  0.27875704142E+02  0.70666531425E+02  0.76938992994E+02  0.00000000000E+00 0. -1.
        -14    1    6    6    0    0 -0.34671131160E+02 -0.44581169746E+02  0.31194071585E+03  0.31701195283E+03  0.00000000000E+00 0.  1.
<mgrwt>
<rscale>  2 0.29490094E+03</rscale>
<asrwt>0</asrwt>
<pdfrwt beam="1">  1       21 0.24987707E+00 0.29566634E+03</pdfrwt>
<pdfrwt beam="2">  1       21 0.81988083E-02 0.29566634E+03</pdfrwt>
<totfact> 0.70481720E+03</totfact>
</mgrwt>
</event>
<event>
12    1  0.1029207E-001  0.1791776E+03  0.7546771E-02  0.1168654E+00
         21   -1    0    0  501  502  0.00000000000E+00  0.00000000000E+00  0.14864670766E+03  0.14864670766E+03  0.00000000000E+00 0.  1.
         21   -1    0    0  502  503 -0.00000000000E+00 -0.00000000000E+00 -0.25110034391E+03  0.25110034391E+03  0.00000000000E+00 0.  1.
         -6    2    1    2    0  503 -0.21058790942E+02 -0.41942306210E+02 -0.12622718484E+03  0.21899921868E+03  0.17269836670E+03 0.  0.
        -24    2    3    3    0    0 -0.78691805077E+02 -0.42095377326E+02 -0.92206116311E+02  0.15190890005E+03  0.81301445571E+02 0.  0.
          6    2    1    2  501    0  0.21058790942E+02  0.41942306210E+02  0.23773548591E+02  0.18074783289E+03  0.17292185448E+03 0.  0.
         24    2    5    5    0    0  0.28464040058E+02 -0.25755082643E+02  0.55124955215E+02  0.10562942723E+03  0.81518644188E+02 0.  0.
          5    1    5    5  501    0 -0.74052491154E+01  0.67697388853E+02 -0.31351406624E+02  0.75118405663E+02  0.47000000000E+01 0. -1.
        -13    1    6    6    0    0  0.32629028139E+02  0.23395840726E+02  0.18585221863E+02  0.44242844758E+02  0.00000000000E+00 0.  1.
         14    1    6    6    0    0 -0.41649880815E+01 -0.49150923368E+02  0.36539733352E+02  0.61386582468E+02  0.00000000000E+00 0. -1.
         -5    1    3    3    0  503  0.57633014135E+02  0.15307111612E+00 -0.34021068529E+02  0.67090318623E+02  0.47000000000E+01 0.  1.
         13    1    4    4    0    0 -0.12052723659E+02  0.15168435124E+02  0.58586022411E+01  0.20240375291E+02  0.00000000000E+00 0. -1.
        -14    1    4    4    0    0 -0.66639081418E+02 -0.57263812450E+02 -0.98064718552E+02  0.13166852476E+03  0.00000000000E+00 0.  1.
<mgrwt>
<rscale>  2 0.17912362E+03</rscale>
<asrwt>0</asrwt>
<pdfrwt beam="1">  1       21 0.22868724E-01 0.17917756E+03</pdfrwt>
<pdfrwt beam="2">  1       21 0.38630822E-01 0.17917756E+03</pdfrwt>
<totfact> 0.11648734E+05</totfact>
</mgrwt>
</event>
<event>
12    1  0.1029207E-001  0.2363881E+03  0.7546771E-02  0.1122627E+00
         21   -1    0    0  501  502  0.00000000000E+00  0.00000000000E+00  0.82675808688E+03  0.82675808688E+03  0.00000000000E+00 0. -1.
         21   -1    0    0  502  503 -0.00000000000E+00 -0.00000000000E+00 -0.70246342575E+02  0.70246342575E+02  0.00000000000E+00 0. -1.
         -6    2    1    2    0  503  0.15289340720E+03 -0.38382087791E+02  0.27873695954E+03  0.36394900642E+03  0.17295955606E+03 0.  0.
        -24    2    3    3    0    0  0.14692612415E+03  0.25267927532E+02  0.21726735198E+03  0.27513720782E+03  0.79180974794E+02 0.  0.
          6    2    1    2  501    0 -0.15289340720E+03  0.38382087791E+02  0.47777478477E+03  0.53305542304E+03  0.17615266232E+03 0.  0.
         24    2    5    5    0    0 -0.57496488987E+02  0.71560217416E+02  0.34920484210E+03  0.36948989963E+03  0.78435025473E+02 0.  0.
          5    1    5    5  501    0 -0.95396918212E+02 -0.33178129625E+02  0.12856994266E+03  0.16356552340E+03  0.47000000000E+01 0. -1.
        -11    1    6    6    0    0 -0.18822027467E+02  0.50764702247E+02  0.79197195793E+02  0.95934975550E+02  0.00000000000E+00 0.  1.
         12    1    6    6    0    0 -0.38674461521E+02  0.20795515168E+02  0.27000764631E+03  0.27355492408E+03  0.00000000000E+00 0. -1.
         -5    1    3    3    0  503  0.59672830536E+01 -0.63650015323E+02  0.61469607556E+02  0.88811798601E+02  0.47000000000E+01 0.  1.
         13    1    4    4    0    0  0.13948494007E+03  0.16536281276E+02  0.14467573150E+03  0.20164464880E+03  0.00000000000E+00 0. -1.
        -14    1    4    4    0    0  0.74411840788E+01  0.87316462568E+01  0.72591620481E+02  0.73492559017E+02  0.00000000000E+00 0.  1.
<mgrwt>
<rscale>  2 0.23579343E+03</rscale>
<asrwt>0</asrwt>
<pdfrwt beam="1">  1       21 0.12719355E+00 0.23638811E+03</pdfrwt>
<pdfrwt beam="2">  1       21 0.10807130E-01 0.23638811E+03</pdfrwt>
<totfact> 0.31520847E+04</totfact>
</mgrwt>
</event>
<event>
12    1  0.1029207E-001  0.1821514E+03  0.7546771E-02  0.1165818E+00
         21   -1    0    0  503  502  0.00000000000E+00  0.00000000000E+00  0.12310758181E+03  0.12310758181E+03  0.00000000000E+00 0.  1.
         21   -1    0    0  501  503 -0.00000000000E+00 -0.00000000000E+00 -0.36691955317E+03  0.36691955317E+03  0.00000000000E+00 0.  1.
          6    2    1    2  501    0 -0.41299942171E+02  0.40771628373E+02 -0.24838644529E+03  0.30781833598E+03  0.17230290439E+03 0.  0.
         24    2    3    3    0    0 -0.60230096601E+02 -0.33555179811E+02 -0.15979798279E+03  0.19054587183E+03  0.77580405627E+02 0.  0.
         -6    2    1    2    0  502  0.41299942171E+02 -0.40771628373E+02  0.45744739220E+01  0.18220879900E+03  0.17265894045E+03 0.  0.
        -24    2    5    5    0    0  0.10922902790E+01 -0.26816927970E+02 -0.60245388693E+02  0.10452293462E+03  0.81087584005E+02 0.  0.
          5    1    3    3  501    0  0.18930154430E+02  0.74326808184E+02 -0.88588462495E+02  0.11727246415E+03  0.47000000000E+01 0. -1.
        -11    1    4    4    0    0 -0.54393768608E+02  0.13410041670E+02 -0.95306981833E+02  0.11055284739E+03  0.00000000000E+00 0.  1.
         12    1    4    4    0    0 -0.58363279935E+01 -0.46965221481E+02 -0.64491000960E+02  0.79993024433E+02  0.00000000000E+00 0. -1.
         -5    1    5    5    0  502  0.40207651892E+02 -0.13954700402E+02  0.64819862615E+02  0.77685864373E+02  0.47000000000E+01 0.  1.
         13    1    6    6    0    0 -0.33444189973E+02  0.75844280978E+01 -0.13107812030E+02  0.36713105681E+02  0.00000000000E+00 0. -1.
        -14    1    6    6    0    0  0.34536480252E+02 -0.34401356068E+02 -0.47137576662E+02  0.67809828942E+02  0.00000000000E+00 0.  1.
<mgrwt>
<rscale>  2 0.18206695E+03</rscale>
<asrwt>0</asrwt>
<pdfrwt beam="1">  1       21 0.18939628E-01 0.18215137E+03</pdfrwt>
<pdfrwt beam="2">  1       21 0.56449162E-01 0.18215137E+03</pdfrwt>
<totfact> 0.75747670E+04</totfact>
</mgrwt>
</event>
<event>
12    1  0.1029207E-001  0.7730253E+03  0.7546771E-02  0.9599908E-01
         21   -1    0    0  501  502  0.00000000000E+00  0.00000000000E+00  0.45532031065E+03  0.45532031065E+03  0.00000000000E+00 0. -1.
         21   -1    0    0  502  503 -0.00000000000E+00 -0.00000000000E+00 -0.18991579965E+04  0.18991579965E+04  0.00000000000E+00 0.  1.
         -6    2    1    2    0  503  0.16953493667E+03 -0.73369251302E+03 -0.13762739881E+04  0.15785060517E+04  0.17465527937E+03 0.  0.
        -24    2    3    3    0    0  0.55237945648E+02 -0.17742618969E+03 -0.42321946197E+03  0.46907780060E+03  0.79924880971E+02 0.  0.
          6    2    1    2  501    0 -0.16953493667E+03  0.73369251302E+03 -0.67563697729E+02  0.77597225540E+03  0.17470343296E+03 0.  0.
         24    2    5    5    0    0 -0.10904062669E+03  0.55963641515E+03 -0.11165657919E+03  0.58644294648E+03  0.79783221074E+02 0.  0.
          5    1    5    5  501    0 -0.60494309982E+02  0.17405609787E+03  0.44092881462E+02  0.18952930892E+03  0.47000000000E+01 0. -1.
        -13    1    6    6    0    0 -0.64667676146E+02  0.18749233252E+03 -0.65311074949E+02  0.20880809276E+03  0.00000000000E+00 0.  1.
         14    1    6    6    0    0 -0.44372950546E+02  0.37214408264E+03 -0.46345504242E+02  0.37763485372E+03  0.00000000000E+00 0. -1.
         -5    1    3    3    0  503  0.11429699103E+03 -0.55626632332E+03 -0.95305452615E+03  0.11094282511E+04  0.47000000000E+01 0.  1.
         13    1    4    4    0    0 -0.17478240523E+02 -0.23031315529E+02 -0.38011760734E+02  0.47757976725E+02  0.00000000000E+00 0. -1.
        -14    1    4    4    0    0  0.72716186171E+02 -0.15439487417E+03 -0.38520770124E+03  0.42131982388E+03  0.00000000000E+00 0.  1.
<mgrwt>
<rscale>  2 0.77302256E+03</rscale>
<asrwt>0</asrwt>
<pdfrwt beam="1">  1       21 0.70049279E-01 0.77302528E+03</pdfrwt>
<pdfrwt beam="2">  1       21 0.29217815E+00 0.77302528E+03</pdfrwt>
<totfact> 0.45709521E+01</totfact>
</mgrwt>
</event>
<event>
12    1  0.1029207E-001  0.1871533E+03  0.7546771E-02  0.1161306E+00
         21   -1    0    0  503  502  0.00000000000E+00  0.00000000000E+00  0.90449520616E+03  0.90449520616E+03  0.00000000000E+00 0.  1.
         21   -1    0    0  501  503 -0.00000000000E+00 -0.00000000000E+00 -0.51073824882E+02  0.51073824882E+02  0.00000000000E+00 0. -1.
          6    2    1    2  501    0 -0.56042273642E+02 -0.35270253342E+02  0.19058028869E+03  0.26710896582E+03  0.17504749635E+03 0.  0.
         24    2    3    3    0    0 -0.65786151104E+02  0.20684351574E+02  0.49415314740E+02  0.11487394741E+03  0.77449921791E+02 0.  0.
         -6    2    1    2    0  502  0.56042273642E+02  0.35270253342E+02  0.66284109259E+03  0.68846006522E+03  0.17387990159E+03 0.  0.
        -24    2    5    5    0    0  0.10258756912E+03  0.52713901446E+01  0.53704385907E+03  0.55093395758E+03  0.67528676524E+02 0.  0.
          5    1    3    3  501    0  0.97438774622E+01 -0.55954604916E+02  0.14116497395E+03  0.15223501841E+03  0.47000000000E+01 0. -1.
        -11    1    4    4    0    0 -0.51838518913E+02  0.66244899456E+01  0.69308684246E+02  0.86803281171E+02  0.00000000000E+00 0.  1.
         12    1    4    4    0    0 -0.13947632191E+02  0.14059861629E+02 -0.19893369506E+02  0.28070666238E+02  0.00000000000E+00 0. -1.
         -5    1    5    5    0  502 -0.46545295476E+02  0.29998863197E+02  0.12579723351E+03  0.13752610764E+03  0.47000000000E+01 0.  1.
         11    1    6    6    0    0  0.51753880721E+02  0.23177786407E+02  0.15383915838E+03  0.16395780129E+03  0.00000000000E+00 0. -1.
        -12    1    6    6    0    0  0.50833688397E+02 -0.17906396263E+02  0.38320470069E+03  0.38697615629E+03  0.00000000000E+00 0.  1.
<mgrwt>
<rscale>  2 0.18687979E+03</rscale>
<asrwt>0</asrwt>
<pdfrwt beam="1">  1       21 0.13915310E+00 0.18715329E+03</pdfrwt>
<pdfrwt beam="2">  1       21 0.78575122E-02 0.18715329E+03</pdfrwt>
<totfact> 0.45141098E+04</totfact>
</mgrwt>
</event>
<event>
12    1  0.1029207E-001  0.4200558E+03  0.7546771E-02  0.1037905E+00
         21   -1    0    0  501  502  0.00000000000E+00  0.00000000000E+00  0.30460741704E+03  0.30460741704E+03  0.00000000000E+00 0.  1.
         21   -1    0    0  502  503 -0.00000000000E+00 -0.00000000000E+00 -0.87800116458E+03  0.87800116458E+03  0.00000000000E+00 0.  1.
         -6    2    1    2    0  503 -0.24566658260E+03 -0.28004715372E+03 -0.64202813620E+03  0.76723334589E+03  0.19408349041E+03 0.  0.
        -24    2    3    3    0    0 -0.17834201720E+03 -0.84389463929E+02 -0.31688032958E+03  0.38180149090E+03  0.80198369450E+02 0.  0.
          6    2    1    2  501    0  0.24566658260E+03  0.28004715372E+03  0.68634388667E+02  0.41537523574E+03  0.17043306323E+03 0.  0.
         24    2    5    5    0    0  0.25499735133E+03  0.27851689523E+03  0.85622120854E+02  0.39537328631E+03  0.79959851370E+02 0.  0.
          5    1    5    5  501    0 -0.93307687350E+01  0.15302584954E+01 -0.16987732187E+02  0.20001949433E+02  0.47000000000E+01 0. -1.
        -13    1    6    6    0    0  0.39060227414E+02  0.80101589527E+02  0.43305998565E+02  0.99082670140E+02  0.00000000000E+00 0.  1.
         14    1    6    6    0    0  0.21593712392E+03  0.19841530570E+03  0.42316122289E+02  0.29629061616E+03  0.00000000000E+00 0. -1.
         -5    1    3    3    0  503 -0.67324565399E+02 -0.19565768979E+03 -0.32514780663E+03  0.38543185498E+03  0.47000000000E+01 0.  1.
         13    1    4    4    0    0 -0.10720954262E+02 -0.20910860094E+02 -0.82605624640E+01  0.24908629476E+02  0.00000000000E+00 0. -1.
        -14    1    4    4    0    0 -0.16762106293E+03 -0.63478603835E+02 -0.30861976711E+03  0.35689286143E+03  0.00000000000E+00 0.  1.
<mgrwt>
<rscale>  2 0.41743381E+03</rscale>
<asrwt>0</asrwt>
<pdfrwt beam="1">  1       21 0.46862680E-01 0.42005581E+03</pdfrwt>
<pdfrwt beam="2">  1       21 0.13507710E+00 0.42005581E+03</pdfrwt>
<totfact> 0.14773607E+03</totfact>
</mgrwt>
</event>
<event>
12    1  0.1029207E-001  0.1998642E+03  0.7546771E-02  0.1150203E+00
         21   -1    0    0  501  502  0.00000000000E+00  0.00000000000E+00  0.31577752093E+03  0.31577752093E+03  0.00000000000E+00 0. -1.
         21   -1    0    0  502  503 -0.00000000000E+00 -0.00000000000E+00 -0.12739469384E+03  0.12739469384E+03  0.00000000000E+00 0. -1.
         -6    2    1    2    0  503 -0.56318152596E+02  0.78485299378E+02  0.66485328078E+02  0.20906818006E+03  0.17308243277E+03 0.  0.
        -24    2    3    3    0    0  0.13922102633E+02  0.54990058573E+02 -0.14836254729E+02  0.98972723184E+02  0.79735525310E+02 0.  0.
          6    2    1    2  501    0  0.56318152596E+02 -0.78485299378E+02  0.12189749902E+03  0.23410403471E+03  0.17496863224E+03 0.  0.
         24    2    5    5    0    0 -0.16297439946E+02  0.11026525013E+02  0.68614464331E+02  0.10703490875E+03  0.79757985011E+02 0.  0.
          5    1    5    5  501    0  0.72615592543E+02 -0.89511824391E+02  0.53283034685E+02  0.12706912596E+03  0.47000000000E+01 0. -1.
        -13    1    6    6    0    0 -0.62247502619E+01 -0.20568056969E+02  0.70615830498E+02  0.73813196654E+02  0.00000000000E+00 0.  1.
         14    1    6    6    0    0 -0.10072689685E+02  0.31594581982E+02 -0.20013661671E+01  0.33221712096E+02  0.00000000000E+00 0. -1.
         -5    1    3    3    0  503 -0.70240255229E+02  0.23495240805E+02  0.81321582807E+02  0.11009545688E+03  0.47000000000E+01 0.  1.
         11    1    4    4    0    0 -0.15268365551E+02  0.39014747907E+02 -0.39478462762E+02  0.57565810712E+02  0.00000000000E+00 0. -1.
        -12    1    4    4    0    0  0.29190468184E+02  0.15975310667E+02  0.24642208033E+02  0.41406912472E+02  0.00000000000E+00 0.  1.
<mgrwt>
<rscale>  2 0.19945063E+03</rscale>
<asrwt>0</asrwt>
<pdfrwt beam="1">  1       21 0.48581157E-01 0.19986420E+03</pdfrwt>
<pdfrwt beam="2">  1       21 0.19599184E-01 0.19986420E+03</pdfrwt>
<totfact> 0.96695763E+04</totfact>
</mgrwt>
</event>
<event>
12    1  0.1029207E-001  0.2649782E+03  0.7546771E-02  0.1104580E+00
         21   -1    0    0  503  502  0.00000000000E+00  0.00000000000E+00  0.64660155332E+03  0.64660155332E+03  0.00000000000E+00 0.  1.
         21   -1    0    0  501  503 -0.00000000000E+00 -0.00000000000E+00 -0.18504510508E+03  0.18504510508E+03  0.00000000000E+00 0. -1.
          6    2    1    2  501    0  0.18740035914E+03  0.61395363108E+02 -0.39073976217E+02  0.26521551226E+03  0.17298614717E+03 0.  0.
         24    2    3    3    0    0  0.43689495062E+02  0.56335344535E+02  0.19916141380E+02  0.10971522218E+03  0.80983543197E+02 0.  0.
         -6    2    1    2    0  502 -0.18740035914E+03 -0.61395363108E+02  0.50063042446E+03  0.56643114614E+03  0.17698908500E+03 0.  0.
        -24    2    5    5    0    0 -0.20878913912E+03 -0.67784281827E+02  0.40109823220E+03  0.46431824055E+03  0.80771425395E+02 0.  0.
          5    1    3    3  501    0  0.14371086407E+03  0.50600185728E+01 -0.58990117597E+02  0.15550029008E+03  0.47000000000E+01 0. -1.
        -13    1    4    4    0    0  0.62034973774E+02  0.36592029307E+02 -0.60680255886E+01  0.72278181456E+02  0.00000000000E+00 0.  1.
         14    1    4    4    0    0 -0.18345478713E+02  0.19743315228E+02  0.25984166969E+02  0.37437040728E+02  0.00000000000E+00 0. -1.
         -5    1    5    5    0  502  0.21388779984E+02  0.63889187188E+01  0.99532192263E+02  0.10211290559E+03  0.47000000000E+01 0.  1.
         13    1    6    6    0    0 -0.57843328397E+01  0.85452792317E+01  0.26267454481E+01  0.10648008978E+02  0.00000000000E+00 0. -1.
        -14    1    6    6    0    0 -0.20300480628E+03 -0.76329561058E+02  0.39847148675E+03  0.45367023157E+03  0.00000000000E+00 0.  1.
<mgrwt>
<rscale>  2 0.26431144E+03</rscale>
<asrwt>0</asrwt>
<pdfrwt beam="1">  1       21 0.99477161E-01 0.26497815E+03</pdfrwt>
<pdfrwt beam="2">  1       21 0.28468478E-01 0.26497815E+03</pdfrwt>
<totfact> 0.93741542E+03</totfact>
</mgrwt>
</event>
<event>
12    1  0.1029207E-001  0.2069344E+03  0.7546771E-02  0.1144416E+00
         21   -1    0    0  503  502  0.00000000000E+00  0.00000000000E+00  0.20187365756E+03  0.20187365756E+03  0.00000000000E+00 0.  1.
         21   -1    0    0  501  503 -0.00000000000E+00 -0.00000000000E+00 -0.10148719333E+04  0.10148719333E+04  0.00000000000E+00 0.  1.
          6    2    1    2  501    0  0.11055056903E+03  0.18266666553E+02 -0.94864789698E+03  0.97095555731E+03  0.17397345318E+03 0.  0.
         24    2    3    3    0    0  0.95874856494E+02  0.14043921257E+02 -0.94641613052E+03  0.95482239588E+03  0.81197880103E+02 0.  0.
         -6    2    1    2    0  502 -0.11055056903E+03 -0.18266666553E+02  0.13564962121E+03  0.24579003357E+03  0.17162989672E+03 0.  0.
        -24    2    5    5    0    0 -0.95505927854E+01 -0.25071474919E+02  0.11812628754E+03  0.14294812654E+03  0.75898316174E+02 0.  0.
          5    1    3    3  501    0  0.14675712534E+02  0.42227452956E+01 -0.22317664570E+01  0.16133161430E+02  0.47000000000E+01 0. -1.
        -11    1    4    4    0    0  0.76186181296E+02 -0.12181906590E+01 -0.36477879438E+03  0.37265183085E+03  0.00000000000E+00 0.  1.
         12    1    4    4    0    0  0.19688675197E+02  0.15262111916E+02 -0.58163733614E+03  0.58217056503E+03  0.00000000000E+00 0. -1.
         -5    1    5    5    0  502 -0.10099997624E+03  0.68048083660E+01  0.17523333675E+02  0.10284190703E+03  0.47000000000E+01 0.  1.
         11    1    6    6    0    0  0.23810833549E+02  0.12928972840E+02  0.24452005907E+02  0.36496776925E+02  0.00000000000E+00 0. -1.
        -12    1    6    6    0    0 -0.33361426335E+02 -0.38000447759E+02  0.93674281629E+02  0.10645134962E+03  0.00000000000E+00 0.  1.
<mgrwt>
<rscale>  2 0.20644109E+03</rscale>
<asrwt>0</asrwt>
<pdfrwt beam="1">  1       21 0.31057486E-01 0.20693444E+03</pdfrwt>
<pdfrwt beam="2">  1       21 0.15613414E+00 0.20693444E+03</pdfrwt>
<totfact> 0.26420912E+03</totfact>
</mgrwt>
</event>
<event>
12    1  0.1029207E-001  0.1937315E+03  0.7546771E-02  0.1155451E+00
         21   -1    0    0  501  502  0.00000000000E+00  0.00000000000E+00  0.17454576444E+03  0.17454576444E+03  0.00000000000E+00 0.  1.
         21   -1    0    0  502  503 -0.00000000000E+00 -0.00000000000E+00 -0.28968775539E+03  0.28968775539E+03  0.00000000000E+00 0.  1.
         -6    2    1    2    0  503  0.77373036472E+02 -0.42465235443E+02 -0.17648711998E+03  0.26102147693E+03  0.17086434650E+03 0.  0.
        -24    2    3    3    0    0  0.64771478065E+02  0.32872310148E+02 -0.43558401134E+02  0.10763738602E+03  0.66426947958E+02 0.  0.
          6    2    1    2  501    0 -0.77373036472E+02  0.42465235443E+02  0.61345129027E+02  0.20321204290E+03  0.17245876763E+03 0.  0.
         24    2    5    5    0    0 -0.83433003015E+02 -0.30472799312E+02  0.47099412985E+02  0.12850119674E+03  0.80028403525E+02 0.  0.
          5    1    5    5  501    0  0.60599665423E+01  0.72938034755E+02  0.14245716041E+02  0.74710846160E+02  0.47000000000E+01 0. -1.
        -13    1    6    6    0    0 -0.40429029851E+01 -0.45560624991E+01  0.44533898676E+02  0.44948536142E+02  0.00000000000E+00 0.  1.
         14    1    6    6    0    0 -0.79390100030E+02 -0.25916736813E+02  0.25655143092E+01  0.83552660600E+02  0.00000000000E+00 0. -1.
         -5    1    3    3    0  503  0.12601558407E+02 -0.75337545591E+02 -0.13292871884E+03  0.15338409090E+03  0.47000000000E+01 0.  1.
         13    1    4    4    0    0  0.72260054219E+02  0.12787256301E+02 -0.45120981406E+02  0.86144833406E+02  0.00000000000E+00 0. -1.
        -14    1    4    4    0    0 -0.74885761538E+01  0.20085053847E+02  0.15625802722E+01  0.21492552616E+02  0.00000000000E+00 0.  1.
<mgrwt>
<rscale>  2 0.19337607E+03</rscale>
<asrwt>0</asrwt>
<pdfrwt beam="1">  1       21 0.26853195E-01 0.19373154E+03</pdfrwt>
<pdfrwt beam="2">  1       21 0.44567347E-01 0.19373154E+03</pdfrwt>
<totfact> 0.63809915E+04</totfact>
</mgrwt>
</event>
<event>
12    1  0.1029207E-001  0.1900539E+03  0.7546771E-02  0.1159751E+00
         21   -1    0    0  501  502  0.00000000000E+00  0.00000000000E+00  0.32521072264E+02  0.32521072264E+02  0.00000000000E+00 0.  1.
         21   -1    0    0  502  503 -0.00000000000E+00 -0.00000000000E+00 -0.21561573970E+04  0.21561573970E+04  0.00000000000E+00 0.  1.
         -6    2    1    2    0  503  0.76910926453E+02 -0.67105169397E+01 -0.18443073221E+04  0.18540738920E+04  0.17366685551E+03 0.  0.
        -24    2    3    3    0    0  0.69818218064E+02  0.85978659522E+01 -0.57546870558E+03  0.58511440562E+03  0.79032459718E+02 0.  0.
          6    2    1    2  501    0 -0.76910926453E+02  0.67105169397E+01 -0.27932900261E+03  0.33460457732E+03  0.16725791406E+03 0.  0.
         24    2    5    5    0    0 -0.11591472674E+03  0.20166718452E+02 -0.21115798400E+03  0.25478137534E+03  0.80516672834E+02 0.  0.
          5    1    5    5  501    0  0.39003800286E+02 -0.13456201512E+02 -0.68171018610E+02  0.79823201979E+02  0.47000000000E+01 0. -1.
        -11    1    6    6    0    0 -0.45973373426E+02 -0.74286300776E+01 -0.22556461890E+02  0.51744850777E+02  0.00000000000E+00 0.  1.
         12    1    6    6    0    0 -0.69941353313E+02  0.27595348530E+02 -0.18860152211E+03  0.20303652456E+03  0.00000000000E+00 0. -1.
         -5    1    3    3    0  503  0.70927083892E+01 -0.15308382892E+02 -0.12688386166E+04  0.12689594863E+04  0.47000000000E+01 0.  1.
         11    1    4    4    0    0  0.62219200620E+02 -0.14331911867E+02 -0.52806267295E+03  0.53190865681E+03  0.00000000000E+00 0. -1.
        -12    1    4    4    0    0  0.75990174438E+01  0.22929777819E+02 -0.47406032629E+02  0.53205748811E+02  0.00000000000E+00 0.  1.
<mgrwt>
<rscale>  2 0.18857733E+03</rscale>
<asrwt>0</asrwt>
<pdfrwt beam="1">  1       21 0.50032409E-02 0.19005394E+03</pdfrwt>
<pdfrwt beam="2">  1       21 0.33171659E+00 0.19005394E+03</pdfrwt>
<totfact> 0.60322693E+03</totfact>
</mgrwt>
</event>
<event>
12    1  0.1029207E-001  0.1808918E+03  0.7546771E-02  0.1169934E+00
         21   -1    0    0  501  502  0.00000000000E+00  0.00000000000E+00  0.21787914119E+03  0.21787914119E+03  0.00000000000E+00 0. -1.
         21   -1    0    0  502  503 -0.00000000000E+00 -0.00000000000E+00 -0.22668473560E+03  0.22668473560E+03  0.00000000000E+00 0. -1.
         -6    2    1    2    0  503  0.17539248786E+02 -0.45980543764E+02 -0.14159303984E+03  0.22971815274E+03  0.17406896655E+03 0.  0.
        -24    2    3    3    0    0  0.77136523791E+02 -0.46271296969E+02 -0.97992612532E+02  0.15572486260E+03  0.80972862700E+02 0.  0.
          6    2    1    2  501    0 -0.17539248786E+02  0.45980543764E+02  0.13278744543E+03  0.21484572405E+03  0.16156838746E+03 0.  0.
         24    2    5    5    0    0  0.40740013571E+02  0.22251451989E+01  0.10463283029E+03  0.13657836381E+03  0.77723357564E+02 0.  0.
          5    1    5    5  501    0 -0.58279262357E+02  0.43755398566E+02  0.28154615145E+02  0.78267360237E+02  0.47000000000E+01 0. -1.
        -13    1    6    6    0    0  0.15865462321E+01 -0.30306209919E+02  0.15850245985E+02  0.34237607778E+02  0.00000000000E+00 0.  1.
         14    1    6    6    0    0  0.39153467339E+02  0.32531355118E+02  0.88782584302E+02  0.10234075603E+03  0.00000000000E+00 0. -1.
         -5    1    3    3    0  503 -0.59597275005E+02  0.29075320406E+00 -0.43600427304E+02  0.73993290145E+02  0.47000000000E+01 0.  1.
         11    1    4    4    0    0  0.17957931482E+02  0.37607526655E+01  0.11447790686E+02  0.21625967616E+02  0.00000000000E+00 0. -1.
        -12    1    4    4    0    0  0.59178592309E+02 -0.50032049634E+02 -0.10944040322E+03  0.13409889498E+03  0.00000000000E+00 0.  1.
<mgrwt>
<rscale>  2 0.17781549E+03</rscale>
<asrwt>0</asrwt>
<pdfrwt beam="1">  1       21 0.33519868E-01 0.18089179E+03</pdfrwt>
<pdfrwt beam="2">  1       21 0.34874575E-01 0.18089179E+03</pdfrwt>
<totfact> 0.68281629E+04</totfact>
</mgrwt>
</event>
<event>
12    1  0.1029207E-001  0.1941238E+03  0.7546771E-02  0.1155182E+00
         21   -1    0    0  503  502  0.00000000000E+00  0.00000000000E+00  0.29995379193E+03  0.29995379193E+03  0.00000000000E+00 0. -1.
         21   -1    0    0  501  503 -0.00000000000E+00 -0.00000000000E+00 -0.15093024128E+03  0.15093024128E+03  0.00000000000E+00 0. -1.
          6    2    1    2  501    0  0.67177056431E+02  0.54514841500E+02 -0.19554983935E+02  0.19510628056E+03  0.17377985632E+03 0.  0.
         24    2    3    3    0    0  0.77298295728E+01  0.23503229589E+01  0.41399427693E+02  0.95143086967E+02  0.85282003383E+02 0.  0.
         -6    2    1    2    0  502 -0.67177056431E+02 -0.54514841500E+02  0.16857853458E+03  0.25577775265E+03  0.17181068528E+03 0.  0.
        -24    2    5    5    0    0  0.23375353104E+02 -0.57515768009E+02  0.75286413942E+02  0.12564607240E+03  0.79148093358E+02 0.  0.
          5    1    3    3  501    0  0.59447226858E+02  0.52164518541E+02 -0.60954411627E+02  0.99963193589E+02  0.47000000000E+01 0. -1.
        -13    1    4    4    0    0 -0.36259956345E+02 -0.10139702629E+02  0.79360631089E+01  0.38478293897E+02  0.00000000000E+00 0.  1.
         14    1    4    4    0    0  0.43989785918E+02  0.12490025588E+02  0.33463364584E+02  0.56664793069E+02  0.00000000000E+00 0. -1.
         -5    1    5    5    0  502 -0.90552409535E+02  0.30009265085E+01  0.93292120643E+02  0.13013168026E+03  0.47000000000E+01 0.  1.
         13    1    6    6    0    0 -0.98720342828E+01 -0.11735240103E+02  0.66673901561E+02  0.68414779620E+02  0.00000000000E+00 0. -1.
        -14    1    6    6    0    0  0.33247387387E+02 -0.45780527906E+02  0.86125123811E+01  0.57231292777E+02  0.00000000000E+00 0.  1.
<mgrwt>
<rscale>  2 0.19368213E+03</rscale>
<asrwt>0</asrwt>
<pdfrwt beam="1">  1       21 0.46146737E-01 0.19412384E+03</pdfrwt>
<pdfrwt beam="2">  1       21 0.23220037E-01 0.19412384E+03</pdfrwt>
<totfact> 0.78388211E+04</totfact>
</mgrwt>
</event>
<event>
12    1  0.1029207E-001  0.1912200E+03  0.7546771E-02  0.1157472E+00
         21   -1    0    0  503  502  0.00000000000E+00  0.00000000000E+00  0.44770118875E+03  0.44770118875E+03  0.00000000000E+00 0.  1.
         21   -1    0    0  501  503 -0.00000000000E+00 -0.00000000000E+00 -0.84075973490E+02  0.84075973490E+02  0.00000000000E+00 0. -1.
          6    2    1    2  501    0 -0.77773957211E+02 -0.24089772251E+02  0.22839701824E+03  0.29757268044E+03  0.17249694679E+03 0.  0.
         24    2    3    3    0    0 -0.41067460741E+02  0.11953289752E+02  0.22808088175E+03  0.24591361401E+03  0.81383041646E+02 0.  0.
         -6    2    1    2    0  502  0.77773957211E+02  0.24089772251E+02  0.13522819702E+03  0.23420448180E+03  0.17302013894E+03 0.  0.
        -24    2    5    5    0    0 -0.68014050029E+00  0.46634188373E+02  0.11829578433E+03  0.15070542345E+03  0.80888948260E+02 0.  0.
          5    1    3    3  501    0 -0.36706496471E+02 -0.36043062003E+02  0.31613649069E+00  0.51659066426E+02  0.47000000000E+01 0. -1.
        -13    1    4    4    0    0 -0.63868841368E+02 -0.41588796245E+01  0.16079400697E+03  0.17306425932E+03  0.00000000000E+00 0.  1.
         14    1    4    4    0    0  0.22801380628E+02  0.16112169377E+02  0.67286874781E+02  0.72849354687E+02  0.00000000000E+00 0. -1.
         -5    1    5    5    0  502  0.78454097712E+02 -0.22544416121E+02  0.16932412683E+02  0.83499058350E+02  0.47000000000E+01 0.  1.
         13    1    6    6    0    0 -0.13754283334E+02  0.13803992303E+02 -0.68581380650E+01  0.20658280937E+02  0.00000000000E+00 0. -1.
        -14    1    6    6    0    0  0.13074142834E+02  0.32830196070E+02  0.12515392240E+03  0.13004714252E+03  0.00000000000E+00 0.  1.
<mgrwt>
<rscale>  2 0.19110154E+03</rscale>
<asrwt>0</asrwt>
<pdfrwt beam="1">  1       21 0.68877105E-01 0.19121996E+03</pdfrwt>
<pdfrwt beam="2">  1       21 0.12934765E-01 0.19121996E+03</pdfrwt>
<totfact> 0.98545629E+04</totfact>
</mgrwt>
</event>
<event>
12    1  0.1029207E-001  0.1822542E+03  0.7546771E-02  0.1166272E+00
         21   -1    0    0  501  502  0.00000000000E+00  0.00000000000E+00  0.37920963167E+03  0.37920963167E+03  0.00000000000E+00 0.  1.
         21   -1    0    0  502  503 -0.00000000000E+00 -0.00000000000E+00 -0.98857258581E+02  0.98857258581E+02  0.00000000000E+00 0.  1.
         -6    2    1    2    0  503 -0.45781302279E+02  0.35440318037E+02  0.54200122214E+02  0.18761648359E+03  0.17003043224E+03 0.  0.
        -24    2    3    3    0    0  0.42460036914E+00  0.46061867071E+02  0.86433817115E+02  0.13009341143E+03  0.85624850797E+02 0.  0.
          6    2    1    2  501    0  0.45781302279E+02 -0.35440318037E+02  0.22615225088E+03  0.29045040666E+03  0.17281392992E+03 0.  0.
         24    2    5    5    0    0  0.51116203647E+02  0.41008521202E+02  0.14643692863E+03  0.17977290762E+03  0.81116947432E+02 0.  0.
          5    1    5    5  501    0 -0.53349013679E+01 -0.76448839239E+02  0.79715322248E+02  0.11067749904E+03  0.47000000000E+01 0. -1.
        -11    1    6    6    0    0  0.32519841958E+02 -0.21097103347E+02  0.45061972084E+02  0.59440804324E+02  0.00000000000E+00 0.  1.
         12    1    6    6    0    0  0.18596361689E+02  0.62105624549E+02  0.10137495655E+03  0.12033210329E+03  0.00000000000E+00 0. -1.
         -5    1    3    3    0  503 -0.46205902648E+02 -0.10621549033E+02 -0.32233694901E+02  0.57523072157E+02  0.47000000000E+01 0.  1.
         13    1    4    4    0    0 -0.22784052673E+02 -0.47811994942E+01  0.66987020099E+02  0.70917090934E+02  0.00000000000E+00 0. -1.
        -14    1    4    4    0    0  0.23208653042E+02  0.50843066565E+02  0.19446797016E+02  0.59176320500E+02  0.00000000000E+00 0.  1.
<mgrwt>
<rscale>  2 0.18159132E+03</rscale>
<asrwt>0</asrwt>
<pdfrwt beam="1">  1       21 0.58339942E-01 0.18225421E+03</pdfrwt>
<pdfrwt beam="2">  1       21 0.15208809E-01 0.18225421E+03</pdfrwt>
<totfact> 0.10567052E+05</totfact>
</mgrwt>
</event>
<event>
12    1  0.1029207E-001  0.2143325E+03  0.7546771E-02  0.1138304E+00
         21   -1    0    0  503  502  0.00000000000E+00  0.00000000000E+00  0.68350133556E+03  0.68350133556E+03  0.00000000000E+00 0. -1.
         21   -1    0    0  501  503 -0.00000000000E+00 -0.00000000000E+00 -0.83513266606E+02  0.83513266606E+02  0.00000000000E+00 0. -1.
          6    2    1    2  501    0 -0.66614396299E+02  0.10786359187E+03  0.12986931761E+03  0.25060820055E+03  0.17281897546E+03 0.  0.
         24    2    3    3    0    0  0.17712689803E+02  0.56016940425E+02  0.38121731781E+02  0.11555694279E+03  0.91915741837E+02 0.  0.
         -6    2    1    2    0  502  0.66614396299E+02 -0.10786359187E+03  0.47011875134E+03  0.51640640162E+03  0.17202296075E+03 0.  0.
        -24    2    5    5    0    0  0.13293483578E+02 -0.81072837494E+02  0.42914779473E+03  0.44386969685E+03  0.78121420716E+02 0.  0.
          5    1    3    3  501    0 -0.84327086102E+02  0.51846651447E+02  0.91747585831E+02  0.13505125776E+03  0.47000000000E+01 0. -1.
        -13    1    4    4    0    0  0.41687788564E+02 -0.49153298819E+01  0.52931154147E+01  0.42308973682E+02  0.00000000000E+00 0.  1.
         14    1    4    4    0    0 -0.23975098761E+02  0.60932270307E+02  0.32828616367E+02  0.73247969104E+02  0.00000000000E+00 0. -1.
         -5    1    5    5    0  502  0.53320912721E+02 -0.26790754378E+02  0.40970956615E+02  0.72536704774E+02  0.47000000000E+01 0.  1.
         13    1    6    6    0    0  0.24772290356E+02 -0.37064796673E+02  0.78426944849E+02  0.90212256375E+02  0.00000000000E+00 0. -1.
        -14    1    6    6    0    0 -0.11478806778E+02 -0.44008040821E+02  0.35072084988E+03  0.35365744047E+03  0.00000000000E+00 0.  1.
<mgrwt>
<rscale>  2 0.21417201E+03</rscale>
<asrwt>0</asrwt>
<pdfrwt beam="1">  1       21 0.10515405E+00 0.21433252E+03</pdfrwt>
<pdfrwt beam="2">  1       21 0.12848195E-01 0.21433252E+03</pdfrwt>
<totfact> 0.37356613E+04</totfact>
</mgrwt>
</event>
<event>
12    1  0.1029207E-001  0.3150203E+03  0.7546771E-02  0.1078124E+00
         21   -1    0    0  501  502  0.00000000000E+00  0.00000000000E+00  0.60147311417E+03  0.60147311417E+03  0.00000000000E+00 0. -1.
         21   -1    0    0  502  503 -0.00000000000E+00 -0.00000000000E+00 -0.17621527016E+03  0.17621527016E+03  0.00000000000E+00 0.  1.
         -6    2    1    2    0  503 -0.10761352039E+03  0.23911627011E+03  0.31424529843E+03  0.44495828639E+03  0.17458667945E+03 0.  0.
        -24    2    3    3    0    0  0.96046008253E+01  0.13805782776E+03  0.16281584185E+03  0.22838066282E+03  0.80600971646E+02 0.  0.
          6    2    1    2  501    0  0.10761352039E+03 -0.23911627011E+03  0.11101254558E+03  0.33273009795E+03  0.17212865072E+03 0.  0.
         24    2    5    5    0    0  0.18588530319E+02 -0.10300493616E+03  0.35777376425E+01  0.13775299149E+03  0.89484837394E+02 0.  0.
          5    1    5    5  501    0  0.89024990067E+02 -0.13611133395E+03  0.10743480794E+03  0.19497710646E+03  0.47000000000E+01 0. -1.
        -13    1    6    6    0    0 -0.22068979558E+02 -0.36362981176E+00 -0.13744774905E+02  0.26001748452E+02  0.00000000000E+00 0.  1.
         14    1    6    6    0    0  0.40657509876E+02 -0.10264130635E+03  0.17322512547E+02  0.11175124303E+03  0.00000000000E+00 0. -1.
         -5    1    3    3    0  503 -0.11721812121E+03  0.10105844235E+03  0.15142945658E+03  0.21657762357E+03  0.47000000000E+01 0.  1.
         11    1    4    4    0    0 -0.90641303504E+01  0.10454845151E+03  0.65317436932E+02  0.12360786682E+03  0.00000000000E+00 0. -1.
        -12    1    4    4    0    0  0.18668731176E+02  0.33509376249E+02  0.97498404920E+02  0.10477279600E+03  0.00000000000E+00 0.  1.
<mgrwt>
<rscale>  2 0.31468082E+03</rscale>
<asrwt>0</asrwt>
<pdfrwt beam="1">  1       21 0.92534324E-01 0.31502027E+03</pdfrwt>
<pdfrwt beam="2">  1       21 0.27110042E-01 0.31502027E+03</pdfrwt>
<totfact> 0.11956928E+04</totfact>
</mgrwt>
</event>
<event>
12    1  0.1029207E-001  0.1755644E+03  0.7546771E-02  0.1172359E+00
         21   -1    0    0  503  502  0.00000000000E+00  0.00000000000E+00  0.69960088277E+02  0.69960088277E+02  0.00000000000E+00 0.  1.
         21   -1    0    0  501  503 -0.00000000000E+00 -0.00000000000E+00 -0.45124610907E+03  0.45124610907E+03  0.00000000000E+00 0.  1.
          6    2    1    2  501    0 -0.95079901279E+01 -0.26027881269E+02 -0.14751281813E+03  0.22930962613E+03  0.17336383892E+03 0.  0.
         24    2    3    3    0    0 -0.70578065155E+02  0.10110138867E+02 -0.10130574620E+03  0.14449987399E+03  0.74390061031E+02 0.  0.
         -6    2    1    2    0  502  0.95079901279E+01  0.26027881269E+02 -0.23377320267E+03  0.29189657121E+03  0.17258576280E+03 0.  0.
        -24    2    5    5    0    0  0.58963854978E+02 -0.45000283224E+01 -0.19971344211E+03  0.22436885008E+03  0.83420234225E+02 0.  0.
          5    1    3    3  501    0  0.61070075027E+02 -0.36138020135E+02 -0.46207071924E+02  0.84809752145E+02  0.47000000000E+01 0. -1.
        -11    1    4    4    0    0 -0.13130047115E+02 -0.25847606033E+02 -0.55753211617E+02  0.62840412797E+02  0.00000000000E+00 0.  1.
         12    1    4    4    0    0 -0.57448018040E+02  0.35957744900E+02 -0.45552534586E+02  0.81659461192E+02  0.00000000000E+00 0. -1.
         -5    1    5    5    0  502 -0.49455864850E+02  0.30527909591E+02 -0.34059760553E+02  0.67527721130E+02  0.47000000000E+01 0.  1.
         11    1    6    6    0    0  0.68804486471E+01  0.18923535511E+02 -0.14111792941E+03  0.14254722295E+03  0.00000000000E+00 0. -1.
        -12    1    6    6    0    0  0.52083406331E+02 -0.23423563834E+02 -0.58595512703E+02  0.81821627132E+02  0.00000000000E+00 0.  1.
<mgrwt>
<rscale>  2 0.17537206E+03</rscale>
<asrwt>0</asrwt>
<pdfrwt beam="1">  1       21 0.10763090E-01 0.17556444E+03</pdfrwt>
<pdfrwt beam="2">  1       21 0.69422480E-01 0.17556444E+03</pdfrwt>
<totfact> 0.13523610E+05</totfact>
</mgrwt>
</event>
<event>
12    1  0.1029207E-001  0.1847819E+03  0.7546771E-02  0.1163304E+00
         21   -1    0    0  501  502  0.00000000000E+00  0.00000000000E+00  0.42855429263E+02  0.42855429263E+02  0.00000000000E+00 0.  1.
         21   -1    0    0  502  503 -0.00000000000E+00 -0.00000000000E+00 -0.87827367778E+03  0.87827367778E+03  0.00000000000E+00 0.  1.
         -6    2    1    2    0  503 -0.52373651394E+02 -0.40463268052E+02 -0.27680475017E+03  0.33281410289E+03  0.17252269980E+03 0.  0.
        -24    2    3    3    0    0 -0.38034146398E+01  0.31121641032E+02 -0.10698286278E+03  0.14217037616E+03  0.88227322438E+02 0.  0.
          6    2    1    2  501    0  0.52373651394E+02  0.40463268052E+02 -0.55861349835E+03  0.58831500416E+03  0.17229401659E+03 0.  0.
         24    2    5    5    0    0  0.52818162870E+02  0.83894203407E+02 -0.49363190396E+03  0.51001339915E+03  0.81321676177E+02 0.  0.
          5    1    5    5  501    0 -0.44451147643E+00 -0.43430935355E+02 -0.64981594396E+02  0.78301605006E+02  0.47000000000E+01 0. -1.
        -13    1    6    6    0    0  0.27650266652E+02 -0.69112553360E+01 -0.18912122844E+03  0.19125674300E+03  0.00000000000E+00 0.  1.
         14    1    6    6    0    0  0.25167896219E+02  0.90805458743E+02 -0.30451067551E+03  0.31875665615E+03  0.00000000000E+00 0. -1.
         -5    1    3    3    0  503 -0.48570236754E+02 -0.71584909084E+02 -0.16982188738E+03  0.19064372673E+03  0.47000000000E+01 0.  1.
         11    1    4    4    0    0 -0.20817498734E+02  0.13077326033E+02 -0.11381977534E+03  0.11644451884E+03  0.00000000000E+00 0. -1.
        -12    1    4    4    0    0  0.17014084094E+02  0.18044314999E+02  0.68369125585E+01  0.25725857316E+02  0.00000000000E+00 0.  1.
<mgrwt>
<rscale>  2 0.18472852E+03</rscale>
<asrwt>0</asrwt>
<pdfrwt beam="1">  1       21 0.65931439E-02 0.18478192E+03</pdfrwt>
<pdfrwt beam="2">  1       21 0.13511901E+00 0.18478192E+03</pdfrwt>
<totfact> 0.65998277E+04</totfact>
</mgrwt>
</event>
<event>
12    1  0.1029207E-001  0.2584669E+03  0.7546771E-02  0.1110164E+00
         21   -1    0    0  503  502  0.00000000000E+00  0.00000000000E+00  0.29464737767E+03  0.29464737767E+03  0.00000000000E+00 0.  1.
         21   -1    0    0  501  503 -0.00000000000E+00 -0.00000000000E+00 -0.32593184148E+03  0.32593184148E+03  0.00000000000E+00 0. -1.
          6    2    1    2  501    0  0.15318653611E+03 -0.11578657832E+03  0.16499993967E+03  0.30664332676E+03  0.17301012454E+03 0.  0.
         24    2    3    3    0    0  0.32385645286E+02 -0.73351923267E+02  0.24904359029E+02  0.11679492175E+03  0.81188003914E+02 0.  0.
         -6    2    1    2    0  502 -0.15318653611E+03  0.11578657832E+03 -0.19628440348E+03  0.31393589239E+03  0.15216941518E+03 0.  0.
        -24    2    5    5    0    0 -0.33895090460E+02  0.18999665997E+02 -0.92709974378E+02  0.12860400694E+03  0.80212136148E+02 0.  0.
          5    1    3    3  501    0  0.12080089082E+03 -0.42434655052E+02  0.14009558064E+03  0.18984840502E+03  0.47000000000E+01 0. -1.
        -13    1    4    4    0    0  0.18069781904E+02 -0.72900061009E+02  0.48347935536E+02  0.89322218869E+02  0.00000000000E+00 0.  1.
         14    1    4    4    0    0  0.14315863383E+02 -0.45186225843E+00 -0.23443576508E+02  0.27472702877E+02  0.00000000000E+00 0. -1.
         -5    1    5    5    0  502 -0.11929144565E+03  0.96786912322E+02 -0.10357442910E+03  0.18533188545E+03  0.47000000000E+01 0.  1.
         11    1    6    6    0    0 -0.42370162893E+01  0.38939584561E+02 -0.82674176464E+02  0.91483676177E+02  0.00000000000E+00 0. -1.
        -12    1    6    6    0    0 -0.29658074171E+02 -0.19939918564E+02 -0.10035797914E+02  0.37120330759E+02  0.00000000000E+00 0.  1.
<mgrwt>
<rscale>  2 0.25503402E+03</rscale>
<asrwt>0</asrwt>
<pdfrwt beam="1">  1       21 0.45330366E-01 0.25846692E+03</pdfrwt>
<pdfrwt beam="2">  1       21 0.50143360E-01 0.25846692E+03</pdfrwt>
<totfact> 0.17049704E+04</totfact>
</mgrwt>
</event>
<event>
12    1  0.1029207E-001  0.1872663E+03  0.7546771E-02  0.1161583E+00
         21   -1    0    0  501  502  0.00000000000E+00  0.00000000000E+00  0.13267466012E+03  0.13267466012E+03  0.00000000000E+00 0. -1.
         21   -1    0    0  502  503 -0.00000000000E+00 -0.00000000000E+00 -0.28627222316E+03  0.28627222316E+03  0.00000000000E+00 0. -1.
         -6    2    1    2    0  503  0.64697056549E+02  0.18365737217E+02 -0.14018633812E+03  0.23392496893E+03  0.17477320235E+03 0.  0.
        -24    2    3    3    0    0 -0.98571034026E+01  0.39023182454E+02 -0.22015668650E+02  0.92604588467E+02  0.80442208340E+02 0.  0.
          6    2    1    2  501    0 -0.64697056549E+02 -0.18365737217E+02 -0.13411224927E+02  0.18502191436E+03  0.17184364524E+03 0.  0.
         24    2    5    5    0    0 -0.81605555156E+02 -0.66113403458E+02 -0.61782252937E+01  0.13363959015E+03  0.82407043629E+02 0.  0.
          5    1    5    5  501    0  0.16908498607E+02  0.47747666241E+02 -0.72329996333E+01  0.51382324201E+02  0.47000000000E+01 0. -1.
        -13    1    6    6    0    0 -0.78556652502E+01  0.46245476765E+01 -0.27739740050E+02  0.29199162587E+02  0.00000000000E+00 0.  1.
         14    1    6    6    0    0 -0.73749889906E+02 -0.70737951135E+02  0.21561514756E+02  0.10444042757E+03  0.00000000000E+00 0. -1.
         -5    1    3    3    0  503  0.74554159952E+02 -0.20657445237E+02 -0.11817066947E+03  0.14132038046E+03  0.47000000000E+01 0.  1.
         11    1    4    4    0    0 -0.15111312161E+02  0.51774130309E+02 -0.41975567905E+02  0.68343694848E+02  0.00000000000E+00 0. -1.
        -12    1    4    4    0    0  0.52542087587E+01 -0.12750947855E+02  0.19959899255E+02  0.24260893619E+02  0.00000000000E+00 0.  1.
<mgrwt>
<rscale>  2 0.18657979E+03</rscale>
<asrwt>0</asrwt>
<pdfrwt beam="1">  1       21 0.20411487E-01 0.18726634E+03</pdfrwt>
<pdfrwt beam="2">  1       21 0.44041880E-01 0.18726634E+03</pdfrwt>
<totfact> 0.11026273E+05</totfact>
</mgrwt>
</event>
<event>
12    1  0.1029207E-001  0.2042446E+03  0.7546771E-02  0.1146358E+00
         21   -1    0    0  503  502  0.00000000000E+00  0.00000000000E+00  0.23810041636E+03  0.23810041636E+03  0.00000000000E+00 0.  1.
         21   -1    0    0  501  503 -0.00000000000E+00 -0.00000000000E+00 -0.20222299544E+03  0.20222299544E+03  0.00000000000E+00 0.  1.
          6    2    1    2  501    0 -0.50090650049E+02  0.96620998127E+02  0.99322866071E+02  0.22645148864E+03  0.17196090975E+03 0.  0.
         24    2    3    3    0    0  0.30153733375E+02  0.44247600466E+02  0.17688572462E+02  0.10048172343E+03  0.83166058968E+02 0.  0.
         -6    2    1    2    0  502  0.50090650049E+02 -0.96620998127E+02 -0.63445445155E+02  0.21387192316E+03  0.17283282242E+03 0.  0.
        -24    2    5    5    0    0  0.65849487475E+02  0.10633068540E+01 -0.22619691052E+02  0.10672997715E+03  0.80884806840E+02 0.  0.
          5    1    3    3  501    0 -0.80244383424E+02  0.52373397661E+02  0.81634293608E+02  0.12596976521E+03  0.47000000000E+01 0. -1.
        -11    1    4    4    0    0  0.14332579688E+02 -0.12822701250E+02  0.33992720185E+02  0.39055723440E+02  0.00000000000E+00 0.  1.
         12    1    4    4    0    0  0.15821153687E+02  0.57070301715E+02 -0.16304147723E+02  0.61425999990E+02  0.00000000000E+00 0. -1.
         -5    1    5    5    0  502 -0.15758837426E+02 -0.97684304981E+02 -0.40825754103E+02  0.10714194601E+03  0.47000000000E+01 0.  1.
         13    1    6    6    0    0  0.45646152615E+02  0.24018435386E+02  0.19100792668E+02  0.55002697820E+02  0.00000000000E+00 0. -1.
        -14    1    6    6    0    0  0.20203334860E+02 -0.22955128532E+02 -0.41720483719E+02  0.51727279333E+02  0.00000000000E+00 0.  1.
<mgrwt>
<rscale>  2 0.20406007E+03</rscale>
<asrwt>0</asrwt>
<pdfrwt beam="1">  1       21 0.36630833E-01 0.20424464E+03</pdfrwt>
<pdfrwt beam="2">  1       21 0.31111230E-01 0.20424464E+03</pdfrwt>
<totfact> 0.70972226E+04</totfact>
</mgrwt>
</event>
<event>
12    1  0.1029207E-001  0.2288646E+03  0.7546771E-02  0.1127842E+00
         21   -1    0    0  501  502  0.00000000000E+00  0.00000000000E+00  0.20316476378E+03  0.20316476378E+03  0.00000000000E+00 0.  1.
         21   -1    0    0  502  503 -0.00000000000E+00 -0.00000000000E+00 -0.27653612106E+03  0.27653612106E+03  0.00000000000E+00 0. -1.
         -6    2    1    2    0  503  0.15123731513E+03 -0.88107096552E+01 -0.10334243003E+03  0.25111486902E+03  0.17154785195E+03 0.  0.
        -24    2    3    3    0    0  0.45661612756E+02 -0.53449955724E+02 -0.80256421733E+02  0.13409373845E+03  0.81229039237E+02 0.  0.
          6    2    1    2  501    0 -0.15123731513E+03  0.88107096552E+01  0.29971072747E+02  0.22858601582E+03  0.16853173984E+03 0.  0.
         24    2    5    5    0    0 -0.11896950243E+02  0.22125129690E+02  0.33868589294E+02  0.88477872929E+02  0.77782992154E+02 0.  0.
          5    1    5    5  501    0 -0.13934036489E+03 -0.13314420035E+02 -0.38975165465E+01  0.14010814289E+03  0.47000000000E+01 0. -1.
        -13    1    6    6    0    0 -0.17410281101E+01  0.37366452031E+02  0.51101747686E+02  0.63329862884E+02  0.00000000000E+00 0.  1.
         14    1    6    6    0    0 -0.10155922133E+02 -0.15241322341E+02 -0.17233158393E+02  0.25148010046E+02  0.00000000000E+00 0. -1.
         -5    1    3    3    0  503  0.10557570238E+03  0.44639246069E+02 -0.23086008293E+02  0.11702113058E+03  0.47000000000E+01 0.  1.
         11    1    4    4    0    0  0.20926051211E+02  0.17505519793E+02 -0.41178738238E+02  0.49396673222E+02  0.00000000000E+00 0. -1.
        -12    1    4    4    0    0  0.24735561545E+02 -0.70955475517E+02 -0.39077683494E+02  0.84697065227E+02  0.00000000000E+00 0.  1.
<mgrwt>
<rscale>  2 0.22829955E+03</rscale>
<asrwt>0</asrwt>
<pdfrwt beam="1">  1       21 0.31256118E-01 0.22886463E+03</pdfrwt>
<pdfrwt beam="2">  1       21 0.42544019E-01 0.22886463E+03</pdfrwt>
<totfact> 0.51411456E+04</totfact>
</mgrwt>
</event>
<event>
12    1  0.1029207E-001  0.1843135E+03  0.7546771E-02  0.1163983E+00
         21   -1    0    0  501  502  0.00000000000E+00  0.00000000000E+00  0.44004988536E+03  0.44004988536E+03  0.00000000000E+00 0.  1.
         21   -1    0    0  502  503 -0.00000000000E+00 -0.00000000000E+00 -0.25989545517E+03  0.25989545517E+03  0.00000000000E+00 0. -1.
         -6    2    1    2    0  503 -0.45760927942E+02 -0.41550878437E+02 -0.20367411180E+03  0.27469002143E+03  0.17364022008E+03 0.  0.
        -24    2    3    3    0    0 -0.12227481801E+02  0.14528803952E+02 -0.19395380292E+03  0.20846315987E+03  0.74014957292E+02 0.  0.
          6    2    1    2  501    0  0.45760927942E+02  0.41550878437E+02  0.38382854199E+03  0.42525531911E+03  0.17232875197E+03 0.  0.
         24    2    5    5    0    0  0.95623065644E+02  0.25860035041E+02  0.30064912808E+03  0.32690217863E+03  0.81624898670E+02 0.  0.
          5    1    5    5  501    0 -0.49862137702E+02  0.15690843395E+02  0.83179413915E+02  0.98353140478E+02  0.47000000000E+01 0. -1.
        -11    1    6    6    0    0  0.32352399486E+02  0.44477312589E+02  0.83726594419E+02  0.10017510519E+03  0.00000000000E+00 0.  1.
         12    1    6    6    0    0  0.63270666158E+02 -0.18617277547E+02  0.21692253366E+03  0.22672707344E+03  0.00000000000E+00 0. -1.
         -5    1    3    3    0  503 -0.33533446141E+02 -0.56079682389E+02 -0.97203088855E+01  0.66226861557E+02  0.47000000000E+01 0.  1.
         11    1    4    4    0    0 -0.31394651321E+02  0.33524060452E+02 -0.15012013375E+03  0.15698898471E+03  0.00000000000E+00 0. -1.
        -12    1    4    4    0    0  0.19167169519E+02 -0.18995256499E+02 -0.43833669162E+02  0.51474175167E+02  0.00000000000E+00 0.  1.
<mgrwt>
<rscale>  2 0.18400397E+03</rscale>
<asrwt>0</asrwt>
<pdfrwt beam="1">  1       21 0.67699982E-01 0.18431349E+03</pdfrwt>
<pdfrwt beam="2">  1       21 0.39983916E-01 0.18431349E+03</pdfrwt>
<totfact> 0.12088123E+04</totfact>
</mgrwt>
</event>
<event>
12    1  0.1029207E-001  0.2180539E+03  0.7546771E-02  0.1135943E+00
         21   -1    0    0  503  502  0.00000000000E+00  0.00000000000E+00  0.10339331595E+04  0.10339331595E+04  0.00000000000E+00 0. -1.
         21   -1    0    0  501  503 -0.00000000000E+00 -0.00000000000E+00 -0.81510314499E+02  0.81510314499E+02  0.00000000000E+00 0.  1.
          6    2    1    2  501    0 -0.94682736742E+02  0.93508792195E+02  0.10653666442E+03  0.24268817653E+03  0.17273903816E+03 0.  0.
         24    2    3    3    0    0 -0.99487317044E+02  0.98767050368E+02  0.28061369256E+02  0.16375025647E+03  0.79837644999E+02 0.  0.
         -6    2    1    2    0  502  0.94682736742E+02 -0.93508792195E+02  0.84588618053E+03  0.87275529743E+03  0.16872955852E+03 0.  0.
        -24    2    5    5    0    0  0.12626879871E+03 -0.10152910582E+03  0.73538818230E+03  0.75745611116E+03  0.81804723611E+02 0.  0.
          5    1    3    3  501    0  0.48045803023E+01 -0.52582581733E+01  0.78475295169E+02  0.78937920056E+02  0.47000000000E+01 0. -1.
        -11    1    4    4    0    0 -0.58029028676E+02  0.61185176157E+02 -0.23626495144E+02  0.87573998557E+02  0.00000000000E+00 0.  1.
         12    1    4    4    0    0 -0.41458288368E+02  0.37581874211E+02  0.51687864400E+02  0.76176257914E+02  0.00000000000E+00 0. -1.
         -5    1    5    5    0  502 -0.31586061970E+02  0.80203136271E+01  0.11049799824E+03  0.11529918627E+03  0.47000000000E+01 0.  1.
         13    1    6    6    0    0  0.42823406129E+02 -0.69677448881E+01  0.33173836341E+03  0.33456349971E+03  0.00000000000E+00 0. -1.
        -14    1    6    6    0    0  0.83445392582E+02 -0.94561360934E+02  0.40364981889E+03  0.42289261144E+03  0.00000000000E+00 0.  1.
<mgrwt>
<rscale>  2 0.21725895E+03</rscale>
<asrwt>0</asrwt>
<pdfrwt beam="1">  1       21 0.15906663E+00 0.21805387E+03</pdfrwt>
<pdfrwt beam="2">  1       21 0.12540049E-01 0.21805387E+03</pdfrwt>
<totfact> 0.13618306E+04</totfact>
</mgrwt>
</event>
<event>
12    1  0.1029207E-001  0.2104019E+03  0.7546771E-02  0.1141926E+00
         21   -1    0    0  503  502  0.00000000000E+00  0.00000000000E+00  0.60899543798E+02  0.60899543798E+02  0.00000000000E+00 0. -1.
         21   -1    0    0  501  503 -0.00000000000E+00 -0.00000000000E+00 -0.71532892863E+03  0.71532892863E+03  0.00000000000E+00 0. -1.
          6    2    1    2  501    0 -0.74927245260E+02  0.92832579107E+02 -0.33477205066E+03  0.39540018153E+03  0.17331185136E+03 0.  0.
         24    2    3    3    0    0  0.10010670768E+02  0.94914103716E+02 -0.17533150398E+03  0.21467342576E+03  0.78959754476E+02 0.  0.
         -6    2    1    2    0  502  0.74927245260E+02 -0.92832579107E+02 -0.31965733417E+03  0.38082829090E+03  0.16916676989E+03 0.  0.
        -24    2    5    5    0    0  0.57421377552E+02 -0.44520241638E+02 -0.30776753414E+03  0.32787553176E+03  0.86615487891E+02 0.  0.
          5    1    3    3  501    0 -0.84937916028E+02 -0.20815246094E+01 -0.15944054667E+03  0.18072675576E+03  0.47000000000E+01 0. -1.
        -13    1    4    4    0    0 -0.19471293340E+01 -0.14080804806E+02 -0.19489819083E+02  0.24122881762E+02  0.00000000000E+00 0.  1.
         14    1    4    4    0    0  0.11957800102E+02  0.10899490852E+03 -0.15584168490E+03  0.19055054400E+03  0.00000000000E+00 0. -1.
         -5    1    5    5    0  502  0.17505867708E+02 -0.48312337468E+02 -0.11889800035E+02  0.52952759142E+02  0.47000000000E+01 0.  1.
         11    1    6    6    0    0  0.78867921350E+02 -0.28176501404E+02 -0.25827503431E+03  0.27151437825E+03  0.00000000000E+00 0. -1.
        -12    1    6    6    0    0 -0.21446543798E+02 -0.16343740235E+02 -0.49492499834E+02  0.56361153515E+02  0.00000000000E+00 0.  1.
<mgrwt>
<rscale>  2 0.20954648E+03</rscale>
<asrwt>0</asrwt>
<pdfrwt beam="1">  1       21 0.93691604E-02 0.21040194E+03</pdfrwt>
<pdfrwt beam="2">  1       21 0.11005061E+00 0.21040194E+03</pdfrwt>
<totfact> 0.58858538E+04</totfact>
</mgrwt>
</event>
<event>
12    1  0.1029207E-001  0.2474533E+03  0.7546771E-02  0.1115019E+00
         21   -1    0    0  501  502  0.00000000000E+00  0.00000000000E+00  0.90283557493E+03  0.90283557493E+03  0.00000000000E+00 0.  1.
         21   -1    0    0  502  503 -0.00000000000E+00 -0.00000000000E+00 -0.81421414875E+02  0.81421414875E+02  0.00000000000E+00 0. -1.
         -6    2    1    2    0  503 -0.13378491031E+03  0.11397382025E+03  0.61341132073E+03  0.66144281785E+03  0.17419735635E+03 0.  0.
        -24    2    3    3    0    0 -0.99839202886E+02  0.91322882913E+02  0.59670508604E+03  0.61709685646E+03  0.80273502251E+02 0.  0.
          6    2    1    2  501    0  0.13378491031E+03 -0.11397382025E+03  0.20800283933E+03  0.32281417196E+03  0.17336485953E+03 0.  0.
         24    2    5    5    0    0  0.62171162145E+02 -0.13697775152E+03  0.15717223300E+03  0.23191009989E+03  0.80318278045E+02 0.  0.
          5    1    5    5  501    0  0.71613748161E+02  0.23003931271E+02  0.50830606331E+02  0.90904072074E+02  0.47000000000E+01 0. -1.
        -13    1    6    6    0    0  0.63185328970E+02 -0.79327888148E+02  0.13777347938E+03  0.17107551331E+03  0.00000000000E+00 0.  1.
         14    1    6    6    0    0 -0.10141668247E+01 -0.57649863373E+02  0.19398753620E+02  0.60834586572E+02  0.00000000000E+00 0. -1.
         -5    1    3    3    0  503 -0.33945707420E+02  0.22650937337E+02  0.16706234684E+02  0.44345961393E+02  0.47000000000E+01 0.  1.
         11    1    4    4    0    0 -0.73246345574E+02  0.91164081448E+02  0.35126372199E+03  0.37021901528E+03  0.00000000000E+00 0. -1.
        -12    1    4    4    0    0 -0.26592857312E+02  0.15880146501E+00  0.24544136405E+03  0.24687784118E+03  0.00000000000E+00 0.  1.
<mgrwt>
<rscale>  2 0.24730687E+03</rscale>
<asrwt>0</asrwt>
<pdfrwt beam="1">  1       21 0.13889777E+00 0.24745333E+03</pdfrwt>
<pdfrwt beam="2">  1       21 0.12526372E-01 0.24745333E+03</pdfrwt>
<totfact> 0.19196540E+04</totfact>
</mgrwt>
</event>
<event>
12    1  0.1029207E-001  0.2060983E+03  0.7546771E-02  0.1144807E+00
         21   -1    0    0  501  502  0.00000000000E+00  0.00000000000E+00  0.85624336491E+03  0.85624336491E+03  0.00000000000E+00 0. -1.
         21   -1    0    0  502  503 -0.00000000000E+00 -0.00000000000E+00 -0.62422352363E+02  0.62422352363E+02  0.00000000000E+00 0. -1.
         -6    2    1    2    0  503 -0.10748074154E+03 -0.24195420472E+02  0.18727824022E+03  0.27806393120E+03  0.17351911249E+03 0.  0.
        -24    2    3    3    0    0 -0.10057756533E+03  0.42062635542E+02  0.14565118808E+03  0.19937031457E+03  0.81542269924E+02 0.  0.
          6    2    1    2  501    0  0.10748074154E+03  0.24195420472E+02  0.60654277232E+03  0.64060178607E+03  0.17418089875E+03 0.  0.
         24    2    5    5    0    0 -0.43443233375E+00  0.74576465737E+01  0.14641311983E+03  0.16766709192E+03  0.81361212082E+02 0.  0.
          5    1    5    5  501    0  0.10791517387E+03  0.16737773899E+02  0.46012965249E+03  0.47293469415E+03  0.47000000000E+01 0. -1.
        -11    1    6    6    0    0 -0.17698212028E+02  0.33418043086E+02  0.12298926270E+03  0.12867148500E+03  0.00000000000E+00 0.  1.
         12    1    6    6    0    0  0.17263779694E+02 -0.25960396512E+02  0.23423857130E+02  0.38995606922E+02  0.00000000000E+00 0. -1.
         -5    1    3    3    0  503 -0.69031762059E+01 -0.66258056014E+02  0.41627052142E+02  0.78693616632E+02  0.47000000000E+01 0.  1.
         13    1    4    4    0    0 -0.60698759887E+02 -0.50372032957E+01  0.29130558262E+02  0.67515200462E+02  0.00000000000E+00 0. -1.
        -14    1    4    4    0    0 -0.39878805448E+02  0.47099838838E+02  0.11652062982E+03  0.13185511411E+03  0.00000000000E+00 0.  1.
<mgrwt>
<rscale>  2 0.20595842E+03</rscale>
<asrwt>0</asrwt>
<pdfrwt beam="1">  1       21 0.13172974E+00 0.20609831E+03</pdfrwt>
<pdfrwt beam="2">  1       21 0.96034394E-02 0.20609831E+03</pdfrwt>
<totfact> 0.36150572E+04</totfact>
</mgrwt>
</event>
<event>
12    1  0.1029207E-001  0.2074080E+03  0.7546771E-02  0.1143685E+00
         21   -1    0    0  501  502  0.00000000000E+00  0.00000000000E+00  0.53742352036E+02  0.53742352036E+02  0.00000000000E+00 0.  1.
         21   -1    0    0  502  503 -0.00000000000E+00 -0.00000000000E+00 -0.80576693089E+03  0.80576693089E+03  0.00000000000E+00 0.  1.
         -6    2    1    2    0  503  0.61487080861E+02  0.97933872803E+02 -0.41412954249E+03  0.46316448271E+03  0.17218117065E+03 0.  0.
        -24    2    3    3    0    0  0.82249879164E+02  0.47006553616E+01 -0.22754295486E+03  0.25349767248E+03  0.75485991179E+02 0.  0.
          6    2    1    2  501    0 -0.61487080861E+02 -0.97933872803E+02 -0.33789503637E+03  0.39634480022E+03  0.17188496299E+03 0.  0.
         24    2    5    5    0    0 -0.65422914721E+02  0.31572303800E+01 -0.19354585175E+03  0.22001080171E+03  0.81575917184E+02 0.  0.
          5    1    5    5  501    0  0.39358338595E+01 -0.10109110318E+03 -0.14434918462E+03  0.17633399851E+03  0.47000000000E+01 0. -1.
        -11    1    6    6    0    0 -0.66075444165E+02 -0.13675511323E+02 -0.19150201476E+03  0.20304188137E+03  0.00000000000E+00 0.  1.
         12    1    6    6    0    0  0.65252944405E+00  0.16832741703E+02 -0.20438369890E+01  0.16968920341E+02  0.00000000000E+00 0. -1.
         -5    1    3    3    0  503 -0.20762798303E+02  0.93233217441E+02 -0.18658658763E+03  0.20966681023E+03  0.47000000000E+01 0.  1.
         13    1    4    4    0    0  0.30578879501E+02  0.26879262296E+02 -0.16248226150E+03  0.16750536682E+03  0.00000000000E+00 0. -1.
        -14    1    4    4    0    0  0.51670999664E+02 -0.22178606934E+02 -0.65060693360E+02  0.85992305657E+02  0.00000000000E+00 0.  1.
<mgrwt>
<rscale>  2 0.20734647E+03</rscale>
<asrwt>0</asrwt>
<pdfrwt beam="1">  1       21 0.82680538E-02 0.20740796E+03</pdfrwt>
<pdfrwt beam="2">  1       21 0.12396415E+00 0.20740796E+03</pdfrwt>
<totfact> 0.54762041E+04</totfact>
</mgrwt>
</event>
<event>
12    1  0.1029207E-001  0.2022325E+03  0.7546771E-02  0.1148247E+00
         21   -1    0    0  503  502  0.00000000000E+00  0.00000000000E+00  0.67693253022E+02  0.67693253022E+02  0.00000000000E+00 0. -1.
         21   -1    0    0  501  503 -0.00000000000E+00 -0.00000000000E+00 -0.60005829174E+03  0.60005829174E+03  0.00000000000E+00 0. -1.
          6    2    1    2  501    0 -0.20372942908E+02  0.10294745817E+03 -0.28278513065E+03  0.34765703088E+03  0.17287204823E+03 0.  0.
         24    2    3    3    0    0 -0.15432988071E+01 -0.11910740571E+02 -0.11341881219E+03  0.14209925033E+03  0.84759202890E+02 0.  0.
         -6    2    1    2    0  502  0.20372942908E+02 -0.10294745817E+03 -0.24957990806E+03  0.32009451387E+03  0.17075459396E+03 0.  0.
        -24    2    5    5    0    0  0.22351904821E+01 -0.90974110673E+02 -0.26514612627E+03  0.29295162783E+03  0.85069989316E+02 0.  0.
          5    1    3    3  501    0 -0.18829644101E+02  0.11485819874E+03 -0.16936631846E+03  0.20555778055E+03  0.47000000000E+01 0. -1.
        -13    1    4    4    0    0  0.34430799827E+02 -0.28404356157E+02 -0.72762902079E+02  0.85362329773E+02  0.00000000000E+00 0.  1.
         14    1    4    4    0    0 -0.35974098634E+02  0.16493615586E+02 -0.40655910108E+02  0.56736920558E+02  0.00000000000E+00 0. -1.
         -5    1    5    5    0  502  0.18137752425E+02 -0.11973347500E+02  0.15566218210E+02  0.27142886043E+02  0.47000000000E+01 0.  1.
         11    1    6    6    0    0 -0.40806945524E+02 -0.36134046258E+02 -0.12735738243E+03  0.13853078705E+03  0.00000000000E+00 0. -1.
        -12    1    6    6    0    0  0.43042136006E+02 -0.54840064415E+02 -0.13778874384E+03  0.15442084078E+03  0.00000000000E+00 0.  1.
<mgrwt>
<rscale>  2 0.20177921E+03</rscale>
<asrwt>0</asrwt>
<pdfrwt beam="1">  1       21 0.10414347E-01 0.20223249E+03</pdfrwt>
<pdfrwt beam="2">  1       21 0.92316661E-01 0.20223249E+03</pdfrwt>
<totfact> 0.74467598E+04</totfact>
</mgrwt>
</event>
<event>
12    1  0.1029207E-001  0.1810282E+03  0.7546771E-02  0.1168534E+00
         21   -1    0    0  501  502  0.00000000000E+00  0.00000000000E+00  0.95436738962E+02  0.95436738962E+02  0.00000000000E+00 0. -1.
         21   -1    0    0  502  503 -0.00000000000E+00 -0.00000000000E+00 -0.38431365820E+03  0.38431365820E+03  0.00000000000E+00 0. -1.
         -6    2    1    2    0  503 -0.13532659840E+02 -0.17458405822E+02 -0.23689188055E+03  0.29814252332E+03  0.17967546389E+03 0.  0.
        -24    2    3    3    0    0 -0.88942928385E+01  0.48489225767E+02 -0.20278214962E+03  0.22360281374E+03  0.80295109731E+02 0.  0.
          6    2    1    2  501    0  0.13532659840E+02  0.17458405822E+02 -0.51985038682E+02  0.18160787384E+03  0.17260083075E+03 0.  0.
         24    2    5    5    0    0  0.16233828933E+02  0.76263754898E+02 -0.54391159331E+02  0.12250419535E+03  0.77260482470E+02 0.  0.
          5    1    5    5  501    0 -0.27011690931E+01 -0.58805349076E+02  0.24061206489E+01  0.59103678490E+02  0.47000000000E+01 0. -1.
        -11    1    6    6    0    0 -0.11499380088E+02  0.45502047047E+02 -0.64598302119E+02  0.79847433675E+02  0.00000000000E+00 0.  1.
         12    1    6    6    0    0  0.27733209022E+02  0.30761707851E+02  0.10207142787E+02  0.42656761673E+02  0.00000000000E+00 0. -1.
         -5    1    3    3    0  503 -0.46383670016E+01 -0.65947631589E+02 -0.34109730936E+02  0.74539709586E+02  0.47000000000E+01 0.  1.
         13    1    4    4    0    0 -0.28404778743E+02  0.26035713998E+02 -0.18495045159E+03  0.18892156945E+03  0.00000000000E+00 0. -1.
        -14    1    4    4    0    0  0.19510485905E+02  0.22453511769E+02 -0.17831698030E+02  0.34681244292E+02  0.00000000000E+00 0.  1.
<mgrwt>
<rscale>  2 0.17924716E+03</rscale>
<asrwt>0</asrwt>
<pdfrwt beam="1">  1       21 0.14682575E-01 0.18102818E+03</pdfrwt>
<pdfrwt beam="2">  1       21 0.59125179E-01 0.18102818E+03</pdfrwt>
<totfact> 0.10953380E+05</totfact>
</mgrwt>
</event>
<event>
12    1  0.1029207E-001  0.1759324E+03  0.7546771E-02  0.1171845E+00
         21   -1    0    0  503  502  0.00000000000E+00  0.00000000000E+00  0.35741173880E+03  0.35741173880E+03  0.00000000000E+00 0. -1.
         21   -1    0    0  501  503 -0.00000000000E+00 -0.00000000000E+00 -0.87689297449E+02  0.87689297449E+02  0.00000000000E+00 0. -1.
          6    2    1    2  501    0 -0.20246622473E+02 -0.23903830199E+02  0.10911366567E+03  0.20702172932E+03  0.17312101419E+03 0.  0.
         24    2    3    3    0    0  0.40306027783E+01  0.23092653926E+02 -0.32328895846E+01  0.82756321166E+02  0.79300950144E+02 0.  0.
         -6    2    1    2    0  502  0.20246622473E+02  0.23903830199E+02  0.16060877569E+03  0.23807930694E+03  0.17293137004E+03 0.  0.
        -24    2    5    5    0    0  0.68317057096E+02  0.56492351185E+02  0.12152987380E+03  0.16792213369E+03  0.74630601800E+02 0.  0.
          5    1    3    3  501    0 -0.24277225251E+02 -0.46996484125E+02  0.11234655525E+03  0.12426540815E+03  0.47000000000E+01 0. -1.
        -11    1    4    4    0    0  0.26537406391E+02  0.28349784593E+02  0.25065100641E+02  0.46219081498E+02  0.00000000000E+00 0.  1.
         12    1    4    4    0    0 -0.22506803613E+02 -0.52571306671E+01 -0.28297990225E+02  0.36537239667E+02  0.00000000000E+00 0. -1.
         -5    1    5    5    0  502 -0.48070434623E+02 -0.32588520986E+02  0.39078901886E+02  0.70157173244E+02  0.47000000000E+01 0.  1.
         13    1    6    6    0    0  0.40219527889E+02  0.12889096947E+02  0.10548409743E+03  0.11362497109E+03  0.00000000000E+00 0. -1.
        -14    1    6    6    0    0  0.28097529207E+02  0.43603254238E+02  0.16045776370E+02  0.54297162605E+02  0.00000000000E+00 0.  1.
<mgrwt>
<rscale>  2 0.17588571E+03</rscale>
<asrwt>0</asrwt>
<pdfrwt beam="1">  1       21 0.54986421E-01 0.17593239E+03</pdfrwt>
<pdfrwt beam="2">  1       21 0.13490661E-01 0.17593239E+03</pdfrwt>
<totfact> 0.14920530E+05</totfact>
</mgrwt>
</event>
<event>
12    1  0.1029207E-001  0.2781811E+03  0.7546771E-02  0.1096755E+00
         21   -1    0    0  503  502  0.00000000000E+00  0.00000000000E+00  0.13467758639E+04  0.13467758639E+04  0.00000000000E+00 0. -1.
         21   -1    0    0  501  503 -0.00000000000E+00 -0.00000000000E+00 -0.22989169720E+03  0.22989169720E+03  0.00000000000E+00 0. -1.
          6    2    1    2  501    0 -0.16042696644E+03 -0.14737034284E+03 -0.12438009867E+03  0.30472136362E+03  0.17300251729E+03 0.  0.
         24    2    3    3    0    0 -0.11902654365E+02 -0.37491604762E+02 -0.24161238144E+02  0.94486451284E+02  0.82441679016E+02 0.  0.
         -6    2    1    2    0  502  0.16042696644E+03  0.14737034284E+03  0.12412642654E+04  0.12719461975E+04  0.17220721029E+03 0.  0.
        -24    2    5    5    0    0  0.17581775721E+03  0.16425282095E+03  0.11551563235E+04  0.11827354237E+04  0.81154653415E+02 0.  0.
          5    1    3    3  501    0 -0.14852431208E+03 -0.10987873808E+03 -0.10021886053E+03  0.21023491234E+03  0.47000000000E+01 0. -1.
        -11    1    4    4    0    0 -0.19998261099E+02 -0.43468812021E+01 -0.48456701134E+02  0.52601118885E+02  0.00000000000E+00 0.  1.
         12    1    4    4    0    0  0.80956067338E+01 -0.33144723560E+02  0.24295462990E+02  0.41885332399E+02  0.00000000000E+00 0. -1.
         -5    1    5    5    0  502 -0.15390790774E+02 -0.16882478105E+02  0.86107941896E+02  0.89210773818E+02  0.47000000000E+01 0.  1.
         13    1    6    6    0    0  0.82354314686E+01  0.44488366572E+02  0.28243784033E+03  0.28603875741E+03  0.00000000000E+00 0. -1.
        -14    1    6    6    0    0  0.16758232575E+03  0.11976445437E+03  0.87271848319E+03  0.89669666629E+03  0.00000000000E+00 0.  1.
<mgrwt>
<rscale>  2 0.27805750E+03</rscale>
<asrwt>0</asrwt>
<pdfrwt beam="1">  1       21 0.20719628E+00 0.27818106E+03</pdfrwt>
<pdfrwt beam="2">  1       21 0.35367954E-01 0.27818106E+03</pdfrwt>
<totfact> 0.85727122E+02</totfact>
</mgrwt>
</event>
<event>
12    1  0.1029207E-001  0.1832603E+03  0.7546771E-02  0.1164707E+00
         21   -1    0    0  501  502  0.00000000000E+00  0.00000000000E+00  0.37833634415E+03  0.37833634415E+03  0.00000000000E+00 0. -1.
         21   -1    0    0  502  503 -0.00000000000E+00 -0.00000000000E+00 -0.23134041307E+03  0.23134041307E+03  0.00000000000E+00 0.  1.
         -6    2    1    2    0  503  0.60712661511E+02 -0.11156221036E+02 -0.16585859547E+03  0.24709945164E+03  0.17244876565E+03 0.  0.
        -24    2    3    3    0    0  0.54146801690E+02 -0.89749931636E+01 -0.17533738557E+02  0.98538954038E+02  0.79937893640E+02 0.  0.
          6    2    1    2  501    0 -0.60712661511E+02  0.11156221036E+02  0.31285452655E+03  0.36257730558E+03  0.17255103363E+03 0.  0.
         24    2    5    5    0    0 -0.33388833233E+02  0.31432672793E+02  0.31476722520E+03  0.32817564133E+03  0.80734245485E+02 0.  0.
          5    1    5    5  501    0 -0.27323828278E+02 -0.20276451757E+02 -0.19126986523E+01  0.34401664259E+02  0.47000000000E+01 0. -1.
        -11    1    6    6    0    0  0.22578432731E+02  0.13589714817E+02  0.16858330973E+03  0.17063059014E+03  0.00000000000E+00 0.  1.
         12    1    6    6    0    0 -0.55967265964E+02  0.17842957976E+02  0.14618391547E+03  0.15754505118E+03  0.00000000000E+00 0. -1.
         -5    1    3    3    0  503  0.65658598212E+01 -0.21812278724E+01 -0.14832485691E+03  0.14856049760E+03  0.47000000000E+01 0.  1.
         13    1    4    4    0    0  0.74007548813E+02  0.46054019498E+00 -0.19287562572E+02  0.76480974422E+02  0.00000000000E+00 0. -1.
        -14    1    4    4    0    0 -0.19860747123E+02 -0.94355333586E+01  0.17538240145E+01  0.22057979616E+02  0.00000000000E+00 0.  1.
<mgrwt>
<rscale>  2 0.18323625E+03</rscale>
<asrwt>0</asrwt>
<pdfrwt beam="1">  1       21 0.58205591E-01 0.18326033E+03</pdfrwt>
<pdfrwt beam="2">  1       21 0.35590833E-01 0.18326033E+03</pdfrwt>
<totfact> 0.21165697E+04</totfact>
</mgrwt>
</event>
<event>
12    1  0.1029207E-001  0.1885559E+03  0.7546771E-02  0.1159964E+00
         21   -1    0    0  503  502  0.00000000000E+00  0.00000000000E+00  0.13279661456E+03  0.13279661456E+03  0.00000000000E+00 0.  1.
         21   -1    0    0  501  503 -0.00000000000E+00 -0.00000000000E+00 -0.49226935472E+03  0.49226935472E+03  0.00000000000E+00 0.  1.
          6    2    1    2  501    0 -0.43071489005E+02  0.54237430459E+02 -0.39159647647E+03  0.43462755429E+03  0.17537519363E+03 0.  0.
         24    2    3    3    0    0 -0.94033581876E+02  0.20607585834E+02 -0.23584727762E+03  0.26727163327E+03  0.80890051770E+02 0.  0.
         -6    2    1    2    0  502  0.43071489005E+02 -0.54237430459E+02  0.32123736304E+02  0.19043841499E+03  0.17446490604E+03 0.  0.
        -24    2    5    5    0    0  0.66032582272E+02 -0.79244323269E+02 -0.17408744607E+02  0.13020459428E+03  0.77525526698E+02 0.  0.
          5    1    3    3  501    0  0.50962092871E+02  0.33629844625E+02 -0.15574919885E+03  0.16735592103E+03  0.47000000000E+01 0. -1.
        -11    1    4    4    0    0 -0.53669293470E+02  0.51253887092E+02 -0.12463308630E+03  0.14505433535E+03  0.00000000000E+00 0.  1.
         12    1    4    4    0    0 -0.40364288406E+02 -0.30646301259E+02 -0.11121419132E+03  0.12221729791E+03  0.00000000000E+00 0. -1.
         -5    1    5    5    0  502 -0.22961093267E+02  0.25006892811E+02  0.49532480911E+02  0.60233820709E+02  0.47000000000E+01 0.  1.
         13    1    6    6    0    0  0.37757906214E+02 -0.89072466470E+02 -0.25329922740E+01  0.96777992408E+02  0.00000000000E+00 0. -1.
        -14    1    6    6    0    0  0.28274676058E+02  0.98281432001E+01 -0.14875752333E+02  0.33426601868E+02  0.00000000000E+00 0.  1.
<mgrwt>
<rscale>  2 0.18834391E+03</rscale>
<asrwt>0</asrwt>
<pdfrwt beam="1">  1       21 0.20430248E-01 0.18855586E+03</pdfrwt>
<pdfrwt beam="2">  1       21 0.75733747E-01 0.18855586E+03</pdfrwt>
<totfact> 0.34584259E+04</totfact>
</mgrwt>
</event>
<event>
12    1  0.1029207E-001  0.2265363E+03  0.7546771E-02  0.1129483E+00
         21   -1    0    0  501  502  0.00000000000E+00  0.00000000000E+00  0.30283269798E+03  0.30283269798E+03  0.00000000000E+00 0. -1.
         21   -1    0    0  502  503 -0.00000000000E+00 -0.00000000000E+00 -0.29727235351E+03  0.29727235351E+03  0.00000000000E+00 0. -1.
         -6    2    1    2    0  503  0.14188980174E+03  0.34311057775E+02 -0.19518011227E+03  0.29742466430E+03  0.17045876389E+03 0.  0.
        -24    2    3    3    0    0  0.23247002678E+02  0.59839279624E+02 -0.10349663304E+03  0.14525451532E+03  0.79159071807E+02 0.  0.
          6    2    1    2  501    0 -0.14188980174E+03 -0.34311057775E+02  0.20074045674E+03  0.30268038719E+03  0.17323025514E+03 0.  0.
         24    2    5    5    0    0 -0.14882203580E+02 -0.43689906386E+02  0.12136358301E+03  0.15254154853E+03  0.80059458180E+02 0.  0.
          5    1    5    5  501    0 -0.12700759816E+03  0.93788486108E+01  0.79376873731E+02  0.15013883866E+03  0.47000000000E+01 0. -1.
        -11    1    6    6    0    0 -0.36593105997E+02 -0.51864755078E+02  0.10929817242E+03  0.12639263713E+03  0.00000000000E+00 0.  1.
         12    1    6    6    0    0  0.21710902417E+02  0.81748486923E+01  0.12065410589E+02  0.26148911404E+02  0.00000000000E+00 0. -1.
         -5    1    3    3    0  503  0.11864279906E+03 -0.25528221848E+02 -0.91683479226E+02  0.15217014899E+03  0.47000000000E+01 0.  1.
         11    1    4    4    0    0 -0.22449266916E+02  0.30122849116E+02 -0.74680682339E+02  0.83597607253E+02  0.00000000000E+00 0. -1.
        -12    1    4    4    0    0  0.45696269594E+02  0.29716430508E+02 -0.28815950702E+02  0.61656908062E+02  0.00000000000E+00 0.  1.
<mgrwt>
<rscale>  2 0.22600637E+03</rscale>
<asrwt>0</asrwt>
<pdfrwt beam="1">  1       21 0.46589646E-01 0.22653628E+03</pdfrwt>
<pdfrwt beam="2">  1       21 0.45734208E-01 0.22653628E+03</pdfrwt>
<totfact> 0.19831491E+04</totfact>
</mgrwt>
</event>
<event>
12    1  0.1029207E-001  0.1752653E+03  0.7546771E-02  0.1173682E+00
         21   -1    0    0  503  502  0.00000000000E+00  0.00000000000E+00  0.82539427153E+02  0.82539427153E+02  0.00000000000E+00 0. -1.
         21   -1    0    0  501  503 -0.00000000000E+00 -0.00000000000E+00 -0.48116592593E+03  0.48116592593E+03  0.00000000000E+00 0. -1.
          6    2    1    2  501    0 -0.11586611000E+02 -0.14478256202E+02 -0.33745207665E+03  0.37807064571E+03  0.16946869816E+03 0.  0.
         24    2    3    3    0    0 -0.61848756457E+02  0.28361326876E+02 -0.20715546604E+03  0.23191726778E+03  0.79010116106E+02 0.  0.
         -6    2    1    2    0  502  0.11586611000E+02  0.14478256202E+02 -0.61174422129E+02  0.18563470737E+03  0.17428156874E+03 0.  0.
        -24    2    5    5    0    0  0.47415818525E+02  0.64222461392E+02 -0.35408125404E+02  0.11896979825E+03  0.80791665145E+02 0.  0.
          5    1    3    3  501    0  0.50262145457E+02 -0.42839583077E+02 -0.13029661061E+03  0.14615337793E+03  0.47000000000E+01 0. -1.
        -11    1    4    4    0    0 -0.36262130715E+02  0.54804747104E+02 -0.15219755259E+03  0.16577876053E+03  0.00000000000E+00 0.  1.
         12    1    4    4    0    0 -0.25586625742E+02 -0.26443420229E+02 -0.54957913449E+02  0.66138507247E+02  0.00000000000E+00 0. -1.
         -5    1    5    5    0  502 -0.35829207526E+02 -0.49744205190E+02 -0.25766296725E+02  0.66664909126E+02  0.47000000000E+01 0.  1.
         13    1    6    6    0    0  0.47751417018E+02  0.80330168178E+01 -0.39698947099E+02  0.62615761492E+02  0.00000000000E+00 0. -1.
        -14    1    6    6    0    0 -0.33559849238E+00  0.56189444574E+02  0.42908216952E+01  0.56354036756E+02  0.00000000000E+00 0.  1.
<mgrwt>
<rscale>  2 0.17405661E+03</rscale>
<asrwt>0</asrwt>
<pdfrwt beam="1">  1       21 0.12698373E-01 0.17526533E+03</pdfrwt>
<pdfrwt beam="2">  1       21 0.74025527E-01 0.17526533E+03</pdfrwt>
<totfact> 0.87420253E+04</totfact>
</mgrwt>
</event>
<event>
12    1  0.1029207E-001  0.1817110E+03  0.7546771E-02  0.1166610E+00
         21   -1    0    0  501  502  0.00000000000E+00  0.00000000000E+00  0.35407879366E+02  0.35407879366E+02  0.00000000000E+00 0. -1.
         21   -1    0    0  502  503 -0.00000000000E+00 -0.00000000000E+00 -0.93258736832E+03  0.93258736832E+03  0.00000000000E+00 0.  1.
         -6    2    1    2    0  503 -0.22806519549E+02 -0.42850707471E+02 -0.39692664583E+03  0.43576241054E+03  0.17315252178E+03 0.  0.
        -24    2    3    3    0    0 -0.11957541169E+02 -0.76769028054E+02 -0.15510919853E+03  0.19129171572E+03  0.80605152287E+02 0.  0.
          6    2    1    2  501    0  0.22806519549E+02  0.42850707471E+02 -0.50025284312E+03  0.53223283715E+03  0.17510729690E+03 0.  0.
         24    2    5    5    0    0  0.99466868752E+01  0.50959138628E+02 -0.50602654742E+03  0.51530511984E+03  0.82345184682E+02 0.  0.
          5    1    5    5  501    0  0.12859832674E+02 -0.81084311564E+01  0.57737043034E+01  0.16927717318E+02  0.47000000000E+01 0. -1.
        -13    1    6    6    0    0 -0.19195866862E+02  0.62952632405E+02 -0.34691686945E+03  0.35310455894E+03  0.00000000000E+00 0.  1.
         14    1    6    6    0    0  0.29142553737E+02 -0.11993493777E+02 -0.15910967797E+03  0.16220056090E+03  0.00000000000E+00 0. -1.
         -5    1    3    3    0  503 -0.10848978379E+02  0.33918320583E+02 -0.24181744730E+03  0.24447069482E+03  0.47000000000E+01 0.  1.
         13    1    4    4    0    0  0.29742818790E+02 -0.54083571007E+02 -0.10811754966E+03  0.12449527086E+03  0.00000000000E+00 0. -1.
        -14    1    4    4    0    0 -0.41700359959E+02 -0.22685457047E+02 -0.46991648869E+02  0.66796444857E+02  0.00000000000E+00 0.  1.
<mgrwt>
<rscale>  2 0.18123841E+03</rscale>
<asrwt>0</asrwt>
<pdfrwt beam="1">  1       21 0.54473668E-02 0.18171100E+03</pdfrwt>
<pdfrwt beam="2">  1       21 0.14347496E+00 0.18171100E+03</pdfrwt>
<totfact> 0.78508695E+04</totfact>
</mgrwt>
</event>
<event>
12    1  0.1029207E-001  0.2254362E+03  0.7546771E-02  0.1130296E+00
         21   -1    0    0  503  502  0.00000000000E+00  0.00000000000E+00  0.15147149549E+03  0.15147149549E+03  0.00000000000E+00 0. -1.
         21   -1    0    0  501  503 -0.00000000000E+00 -0.00000000000E+00 -0.33970702864E+03  0.33970702864E+03  0.00000000000E+00 0. -1.
          6    2    1    2  501    0 -0.13656902795E+03 -0.38397681037E+02 -0.13101489880E+03  0.26074197532E+03  0.17520271882E+03 0.  0.
         24    2    3    3    0    0 -0.91372788552E+02  0.15577659488E+02 -0.13407186890E+02  0.12359351072E+03  0.80647090891E+02 0.  0.
         -6    2    1    2    0  502  0.13656902795E+03  0.38397681037E+02 -0.57220634355E+02  0.23043654881E+03  0.17234071117E+03 0.  0.
        -24    2    5    5    0    0  0.10179228951E+03  0.88385770718E+02 -0.64339898211E+02  0.16894667514E+03  0.78928080359E+02 0.  0.
          5    1    3    3  501    0 -0.45196239397E+02 -0.53975340525E+02 -0.11760771191E+03  0.13714846460E+03  0.47000000000E+01 0. -1.
        -13    1    4    4    0    0  0.95271404989E+01  0.17603083227E+02  0.58481987334E+01  0.20852730603E+02  0.00000000000E+00 0.  1.
         14    1    4    4    0    0 -0.10089992905E+03 -0.20254237394E+01 -0.19255385624E+02  0.10274078012E+03  0.00000000000E+00 0. -1.
         -5    1    5    5    0  502  0.34776738442E+02 -0.49988089681E+02  0.71192638558E+01  0.61489873674E+02  0.47000000000E+01 0.  1.
         11    1    6    6    0    0  0.68376853328E+02  0.15181357832E+02 -0.75338966899E+01  0.70445917526E+02  0.00000000000E+00 0. -1.
        -12    1    6    6    0    0  0.33415436179E+02  0.73204412886E+02 -0.56806001521E+02  0.98500757610E+02  0.00000000000E+00 0.  1.
<mgrwt>
<rscale>  2 0.22487988E+03</rscale>
<asrwt>0</asrwt>
<pdfrwt beam="1">  1       21 0.23303307E-01 0.22543619E+03</pdfrwt>
<pdfrwt beam="2">  1       21 0.52262619E-01 0.22543619E+03</pdfrwt>
<totfact> 0.59256293E+04</totfact>
</mgrwt>
</event>
<event>
12    1  0.1029207E-001  0.1872328E+03  0.7546771E-02  0.1161231E+00
         21   -1    0    0  503  502  0.00000000000E+00  0.00000000000E+00  0.23462079775E+02  0.23462079775E+02  0.00000000000E+00 0.  1.
         21   -1    0    0  501  503 -0.00000000000E+00 -0.00000000000E+00 -0.19932296606E+04  0.19932296606E+04  0.00000000000E+00 0.  1.
          6    2    1    2  501    0 -0.50888773245E+02  0.45144295144E+02 -0.14916561576E+04  0.15032264025E+04  0.17327391644E+03 0.  0.
         24    2    3    3    0    0 -0.64605851337E+01 -0.32485752228E+02 -0.97883792118E+03  0.98264507194E+03  0.79816027219E+02 0.  0.
         -6    2    1    2    0  502  0.50888773245E+02 -0.45144295144E+02 -0.47811142329E+03  0.51346533791E+03  0.17443751182E+03 0.  0.
        -24    2    5    5    0    0 -0.61253392143E+01  0.38732598737E+01 -0.10331768955E+03  0.13117518296E+03  0.80497588344E+02 0.  0.
          5    1    3    3  501    0 -0.44428188112E+02  0.77630047373E+02 -0.51281823637E+03  0.52058133054E+03  0.47000000000E+01 0. -1.
        -13    1    4    4    0    0 -0.35747144124E+02 -0.40823843784E+02 -0.52833492990E+03  0.53111415222E+03  0.00000000000E+00 0.  1.
         14    1    4    4    0    0  0.29286558990E+02  0.83380915559E+01 -0.45050299128E+03  0.45153091972E+03  0.00000000000E+00 0. -1.
         -5    1    5    5    0  502  0.57014112460E+02 -0.49017555018E+02 -0.37479373374E+03  0.38229015495E+03  0.47000000000E+01 0.  1.
         11    1    6    6    0    0  0.24771712364E+01 -0.38411963001E+00 -0.11557766335E+03  0.11560484501E+03  0.00000000000E+00 0. -1.
        -12    1    6    6    0    0 -0.86025104507E+01  0.42573795037E+01  0.12259973801E+02  0.15570337950E+02  0.00000000000E+00 0.  1.
<mgrwt>
<rscale>  2 0.18696131E+03</rscale>
<asrwt>0</asrwt>
<pdfrwt beam="1">  1       21 0.36095505E-02 0.18723280E+03</pdfrwt>
<pdfrwt beam="2">  1       21 0.30665074E+00 0.18723280E+03</pdfrwt>
<totfact> 0.14626687E+04</totfact>
</mgrwt>
</event>
<event>
12    1  0.1029207E-001  0.1879628E+03  0.7546771E-02  0.1160907E+00
         21   -1    0    0  501  502  0.00000000000E+00  0.00000000000E+00  0.60263522921E+03  0.60263522921E+03  0.00000000000E+00 0. -1.
         21   -1    0    0  502  503 -0.00000000000E+00 -0.00000000000E+00 -0.15627098854E+03  0.15627098854E+03  0.00000000000E+00 0. -1.
         -6    2    1    2    0  503 -0.72605277598E+02  0.12278703690E+02 -0.78563246801E+02  0.20134109194E+03  0.17012865325E+03 0.  0.
        -24    2    3    3    0    0 -0.13576846502E+02  0.56269650487E+02 -0.80034503194E+02  0.12755888763E+03  0.80716440608E+02 0.  0.
          6    2    1    2  501    0  0.72605277598E+02 -0.12278703690E+02  0.52492748747E+03  0.55756512581E+03  0.17293845588E+03 0.  0.
         24    2    5    5    0    0 -0.24216090833E+02 -0.16084426270E+02  0.31129346812E+03  0.32293681309E+03  0.80866767759E+02 0.  0.
          5    1    5    5  501    0  0.96821368431E+02  0.38057225797E+01  0.21363401934E+03  0.23462831272E+03  0.47000000000E+01 0. -1.
        -13    1    6    6    0    0  0.29683104160E+02  0.91788858786E-04  0.10867842012E+03  0.11265915708E+03  0.00000000000E+00 0.  1.
         14    1    6    6    0    0 -0.53899194993E+02 -0.16084518058E+02  0.20261504800E+03  0.21027765601E+03  0.00000000000E+00 0. -1.
         -5    1    3    3    0  503 -0.59028431096E+02 -0.43990946797E+02  0.14712563930E+01  0.73782204312E+02  0.47000000000E+01 0.  1.
         13    1    4    4    0    0 -0.27537482778E+02 -0.10898191591E+02 -0.33220414172E+02  0.44504825081E+02  0.00000000000E+00 0. -1.
        -14    1    4    4    0    0  0.13960636276E+02  0.67167842078E+02 -0.46814089022E+02  0.83054062547E+02  0.00000000000E+00 0.  1.
<mgrwt>
<rscale>  2 0.18731393E+03</rscale>
<asrwt>0</asrwt>
<pdfrwt beam="1">  1       21 0.92713111E-01 0.18796277E+03</pdfrwt>
<pdfrwt beam="2">  1       21 0.24041691E-01 0.18796277E+03</pdfrwt>
<totfact> 0.16048929E+04</totfact>
</mgrwt>
</event>
<event>
12    1  0.1029207E-001  0.2131922E+03  0.7546771E-02  0.1139519E+00
         21   -1    0    0  501  502  0.00000000000E+00  0.00000000000E+00  0.11552405040E+03  0.11552405040E+03  0.00000000000E+00 0. -1.
         21   -1    0    0  502  503 -0.00000000000E+00 -0.00000000000E+00 -0.49986186620E+03  0.49986186620E+03  0.00000000000E+00 0. -1.
         -6    2    1    2    0  503  0.10860683814E+03 -0.55720042926E+02 -0.33780609477E+03  0.39945448824E+03  0.17478776284E+03 0.  0.
        -24    2    3    3    0    0  0.30909223031E+02  0.31161393114E+02 -0.10418838477E+03  0.13833262446E+03  0.79713756521E+02 0.  0.
          6    2    1    2  501    0 -0.10860683814E+03  0.55720042926E+02 -0.46531721030E+02  0.21593142836E+03  0.17193316207E+03 0.  0.
         24    2    5    5    0    0 -0.63114715776E+02  0.37440522715E+02 -0.96819145108E+02  0.14554258638E+03  0.80146350515E+02 0.  0.
          5    1    5    5  501    0 -0.45492122360E+02  0.18279520211E+02  0.50287424078E+02  0.70388841988E+02  0.47000000000E+01 0. -1.
        -13    1    6    6    0    0 -0.10658241683E+02  0.44180436463E+02 -0.14512748039E+02  0.47708793083E+02  0.00000000000E+00 0.  1.
         14    1    6    6    0    0 -0.52456474093E+02 -0.67399137478E+01 -0.82306397068E+02  0.97833793292E+02  0.00000000000E+00 0. -1.
         -5    1    3    3    0  503  0.77697615105E+02 -0.86881436040E+02 -0.23361771000E+03  0.26112186378E+03  0.47000000000E+01 0.  1.
         11    1    4    4    0    0  0.50208071658E+02  0.83874374512E+01 -0.31773492246E+02  0.60006286138E+02  0.00000000000E+00 0. -1.
        -12    1    4    4    0    0 -0.19298848627E+02  0.22773955663E+02 -0.72414892528E+02  0.78326338321E+02  0.00000000000E+00 0.  1.
<mgrwt>
<rscale>  2 0.21260632E+03</rscale>
<asrwt>0</asrwt>
<pdfrwt beam="1">  1       21 0.17772931E-01 0.21319224E+03</pdfrwt>
<pdfrwt beam="2">  1       21 0.76901826E-01 0.21319224E+03</pdfrwt>
<totfact> 0.42758372E+04</totfact>
</mgrwt>
</event>
<event>
12    1  0.1029207E-001  0.3068484E+03  0.7546771E-02  0.1081982E+00
         21   -1    0    0  503  502  0.00000000000E+00  0.00000000000E+00  0.30436967085E+03  0.30436967085E+03  0.00000000000E+00 0.  1.
         21   -1    0    0  501  503 -0.00000000000E+00 -0.00000000000E+00 -0.31053667683E+03  0.31053667683E+03  0.00000000000E+00 0. -1.
          6    2    1    2  501    0  0.23222853125E+03  0.98864772034E+02 -0.28653113645E+02  0.30818331943E+03  0.17450393572E+03 0.  0.
         24    2    3    3    0    0  0.12029572664E+03  0.12089152171E+03  0.70241603595E+01  0.18856271783E+03  0.80129506775E+02 0.  0.
         -6    2    1    2    0  502 -0.23222853125E+03 -0.98864772034E+02  0.22486107663E+02  0.30672302825E+03  0.17282666792E+03 0.  0.
        -24    2    5    5    0    0 -0.17682165486E+03 -0.97224983521E+02 -0.42509117557E+02  0.22117140547E+03  0.79944796436E+02 0.  0.
          5    1    3    3  501    0  0.11193280461E+03 -0.22026749675E+02 -0.35677274004E+02  0.11962060161E+03  0.47000000000E+01 0. -1.
        -13    1    4    4    0    0  0.10030093100E+03  0.45410591398E+02 -0.63551821045E+00  0.11010359873E+03  0.00000000000E+00 0.  1.
         14    1    4    4    0    0  0.19994795644E+02  0.75480930311E+02  0.76596785700E+01  0.78459119096E+02  0.00000000000E+00 0. -1.
         -5    1    5    5    0  502 -0.55406876389E+02 -0.16397885131E+01  0.64995225220E+02  0.85551622772E+02  0.47000000000E+01 0.  1.
         11    1    6    6    0    0 -0.12546091297E+03 -0.46752064627E+02  0.65321614233E+01  0.13404799649E+03  0.00000000000E+00 0. -1.
        -12    1    6    6    0    0 -0.51360741884E+02 -0.50472918895E+02 -0.49041278980E+02  0.87123408982E+02  0.00000000000E+00 0.  1.
<mgrwt>
<rscale>  2 0.30661046E+03</rscale>
<asrwt>0</asrwt>
<pdfrwt beam="1">  1       21 0.46826103E-01 0.30684843E+03</pdfrwt>
<pdfrwt beam="2">  1       21 0.47774873E-01 0.30684843E+03</pdfrwt>
<totfact> 0.17270697E+04</totfact>
</mgrwt>
</event>
<event>
12    1  0.1029207E-001  0.1891509E+03  0.7546771E-02  0.1159530E+00
         21   -1    0    0  501  502  0.00000000000E+00  0.00000000000E+00  0.60688930279E+03  0.60688930279E+03  0.00000000000E+00 0. -1.
         21   -1    0    0  502  503 -0.00000000000E+00 -0.00000000000E+00 -0.29299974449E+03  0.29299974449E+03  0.00000000000E+00 0. -1.
         -6    2    1    2    0  503 -0.55578339233E+02 -0.48321765463E+02 -0.24565698868E+03  0.30923652077E+03  0.17278867116E+03 0.  0.
        -24    2    3    3    0    0  0.14003832747E+02 -0.25443131884E+02 -0.21113196983E+03  0.22812439185E+03  0.81366880125E+02 0.  0.
          6    2    1    2  501    0  0.55578339233E+02  0.48321765463E+02  0.55954654698E+03  0.59065252650E+03  0.17422434965E+03 0.  0.
         24    2    5    5    0    0 -0.59465603205E+01  0.28971551707E+02  0.16421403924E+03  0.19006592448E+03  0.91016990599E+02 0.  0.
          5    1    5    5  501    0  0.61524899553E+02  0.19350213757E+02  0.39533250774E+03  0.40058660202E+03  0.47000000000E+01 0. -1.
        -11    1    6    6    0    0  0.89175469076E+01 -0.30162673439E+02  0.34201620088E+02  0.46465689799E+02  0.00000000000E+00 0.  1.
         12    1    6    6    0    0 -0.14864107228E+02  0.59134225146E+02  0.13001241915E+03  0.14360023468E+03  0.00000000000E+00 0. -1.
         -5    1    3    3    0  503 -0.69582171980E+02 -0.22878633579E+02 -0.34525018857E+02  0.81112128927E+02  0.47000000000E+01 0.  1.
         11    1    4    4    0    0 -0.52364219266E+01 -0.52708750578E+02 -0.13348626102E+03  0.14361133097E+03  0.00000000000E+00 0. -1.
        -12    1    4    4    0    0  0.19240254674E+02  0.27265618694E+02 -0.77645708808E+02  0.84513060878E+02  0.00000000000E+00 0.  1.
<mgrwt>
<rscale>  2 0.18881966E+03</rscale>
<asrwt>0</asrwt>
<pdfrwt beam="1">  1       21 0.93367585E-01 0.18915092E+03</pdfrwt>
<pdfrwt beam="2">  1       21 0.45076884E-01 0.18915092E+03</pdfrwt>
<totfact> 0.45679906E+03</totfact>
</mgrwt>
</event>
<event>
12    1  0.1029207E-001  0.3003451E+03  0.7546771E-02  0.1086017E+00
         21   -1    0    0  503  502  0.00000000000E+00  0.00000000000E+00  0.12780956668E+04  0.12780956668E+04  0.00000000000E+00 0. -1.
         21   -1    0    0  501  503 -0.00000000000E+00 -0.00000000000E+00 -0.25126544654E+03  0.25126544654E+03  0.00000000000E+00 0.  1.
          6    2    1    2  501    0  0.83097170902E+02 -0.22156753541E+03 -0.13993445588E+03  0.32455946361E+03  0.17251052408E+03 0.  0.
         24    2    3    3    0    0 -0.17107618373E+02 -0.11102173646E+03 -0.40981025758E+02  0.14546383331E+03  0.82835896544E+02 0.  0.
         -6    2    1    2    0  502 -0.83097170902E+02  0.22156753541E+03  0.11667646761E+04  0.12048016497E+04  0.18495916621E+03 0.  0.
        -24    2    5    5    0    0  0.21244690180E+02  0.11970601480E+03  0.43852029166E+03  0.46208705659E+03  0.80271631522E+02 0.  0.
          5    1    3    3  501    0  0.10020478928E+03 -0.11054579895E+03 -0.98953430123E+02  0.17909563030E+03  0.47000000000E+01 0. -1.
        -13    1    4    4    0    0  0.30698908477E+02 -0.57303815549E+02 -0.54010360246E+01  0.65232824930E+02  0.00000000000E+00 0.  1.
         14    1    4    4    0    0 -0.47806526850E+02 -0.53717920913E+02 -0.35579989733E+02  0.80231008383E+02  0.00000000000E+00 0. -1.
         -5    1    5    5    0  502 -0.10434186108E+03  0.10186152061E+03  0.72824438447E+03  0.74271459314E+03  0.47000000000E+01 0.  1.
         11    1    6    6    0    0  0.15959171557E+01  0.62120930998E+02  0.34475235295E+03  0.35030806711E+03  0.00000000000E+00 0. -1.
        -12    1    6    6    0    0  0.19648773024E+02  0.57585083804E+02  0.93767938711E+02  0.11177898948E+03  0.00000000000E+00 0.  1.
<mgrwt>
<rscale>  2 0.29845185E+03</rscale>
<asrwt>0</asrwt>
<pdfrwt beam="1">  1       21 0.19663010E+00 0.30034514E+03</pdfrwt>
<pdfrwt beam="2">  1       21 0.38656223E-01 0.30034514E+03</pdfrwt>
<totfact> 0.82552942E+02</totfact>
</mgrwt>
</event>
<event>
12    1  0.1029207E-001  0.2135969E+03  0.7546771E-02  0.1139318E+00
         21   -1    0    0  501  502  0.00000000000E+00  0.00000000000E+00  0.36018658977E+02  0.36018658977E+02  0.00000000000E+00 0. -1.
         21   -1    0    0  502  503 -0.00000000000E+00 -0.00000000000E+00 -0.19852466002E+04  0.19852466002E+04  0.00000000000E+00 0. -1.
         -6    2    1    2    0  503  0.91437031224E+02 -0.85627164767E+02 -0.15941001768E+04  0.16083466684E+04  0.17300546300E+03 0.  0.
        -24    2    3    3    0    0 -0.27711468312E+01  0.54989053398E+00 -0.79672152721E+03  0.80079700033E+03  0.80639085908E+02 0.  0.
          6    2    1    2  501    0 -0.91437031224E+02  0.85627164767E+02 -0.35512776447E+03  0.41291859077E+03  0.16939094273E+03 0.  0.
         24    2    5    5    0    0 -0.11712577298E+03  0.53607353718E+02 -0.21230281957E+03  0.26423693542E+03  0.90313209295E+02 0.  0.
          5    1    5    5  501    0  0.25688741753E+02  0.32019811050E+02 -0.14282494490E+03  0.14868165535E+03  0.47000000000E+01 0. -1.
        -11    1    6    6    0    0 -0.61660764519E+02  0.91648647140E+00 -0.16024682707E+03  0.17170304427E+03  0.00000000000E+00 0.  1.
         12    1    6    6    0    0 -0.55465008459E+02  0.52690867246E+02 -0.52055992505E+02  0.92533891144E+02  0.00000000000E+00 0. -1.
         -5    1    3    3    0  503  0.94208178056E+02 -0.86177055301E+02 -0.79737864955E+03  0.80754966809E+03  0.47000000000E+01 0.  1.
         13    1    4    4    0    0  0.35455562608E+02  0.11817169110E+02 -0.27065805899E+03  0.27322614681E+03  0.00000000000E+00 0. -1.
        -14    1    4    4    0    0 -0.38226709439E+02 -0.11267278576E+02 -0.52606346822E+03  0.52757085351E+03  0.00000000000E+00 0.  1.
<mgrwt>
<rscale>  2 0.21286389E+03</rscale>
<asrwt>0</asrwt>
<pdfrwt beam="1">  1       21 0.55413319E-02 0.21359689E+03</pdfrwt>
<pdfrwt beam="2">  1       21 0.30542257E+00 0.21359689E+03</pdfrwt>
<totfact> 0.70141748E+03</totfact>
</mgrwt>
</event>
<event>
12    1  0.1029207E-001  0.2576519E+03  0.7546771E-02  0.1108649E+00
         21   -1    0    0  503  502  0.00000000000E+00  0.00000000000E+00  0.12256491895E+03  0.12256491895E+03  0.00000000000E+00 0.  1.
         21   -1    0    0  501  503 -0.00000000000E+00 -0.00000000000E+00 -0.55126541222E+03  0.55126541222E+03  0.00000000000E+00 0.  1.
          6    2    1    2  501    0 -0.15820268889E+03  0.10439063055E+03 -0.26183002647E+03  0.36734105477E+03  0.17452505047E+03 0.  0.
         24    2    3    3    0    0 -0.13533256348E+03  0.40981325255E+02 -0.24943810813E+03  0.29864293053E+03  0.83509630657E+02 0.  0.
         -6    2    1    2    0  502  0.15820268889E+03 -0.10439063055E+03 -0.16687046679E+03  0.30648927640E+03  0.17367909874E+03 0.  0.
        -24    2    5    5    0    0  0.18980734318E+02 -0.73104929179E+02 -0.10751597414E+03  0.15187170449E+03  0.76162530047E+02 0.  0.
          5    1    3    3  501    0 -0.22870125409E+02  0.63409305292E+02 -0.12391918343E+02  0.68698124239E+02  0.47000000000E+01 0. -1.
        -13    1    4    4    0    0 -0.48005757651E+02  0.56980360987E+02 -0.98109437193E+02  0.12319405819E+03  0.00000000000E+00 0.  1.
         14    1    4    4    0    0 -0.87326805830E+02 -0.15999035732E+02 -0.15132867094E+03  0.17544887235E+03  0.00000000000E+00 0. -1.
         -5    1    5    5    0  502  0.13922195457E+03 -0.31285701368E+02 -0.59354492657E+02  0.15461757191E+03  0.47000000000E+01 0.  1.
         13    1    6    6    0    0 -0.17884189490E+01 -0.64144971261E+00 -0.65586440374E+02  0.65613954774E+02  0.00000000000E+00 0. -1.
        -14    1    6    6    0    0  0.20769153267E+02 -0.72463479466E+02 -0.41929533763E+02  0.86257749712E+02  0.00000000000E+00 0.  1.
<mgrwt>
<rscale>  2 0.25750869E+03</rscale>
<asrwt>0</asrwt>
<pdfrwt beam="1">  1       21 0.18856141E-01 0.25765187E+03</pdfrwt>
<pdfrwt beam="2">  1       21 0.84810064E-01 0.25765187E+03</pdfrwt>
<totfact> 0.30026401E+04</totfact>
</mgrwt>
</event>
<event>
12    1  0.1029207E-001  0.2855929E+03  0.7546771E-02  0.1092857E+00
         21   -1    0    0  503  502  0.00000000000E+00  0.00000000000E+00  0.34317416641E+03  0.34317416641E+03  0.00000000000E+00 0. -1.
         21   -1    0    0  501  503 -0.00000000000E+00 -0.00000000000E+00 -0.23691640342E+03  0.23691640342E+03  0.00000000000E+00 0.  1.
          6    2    1    2  501    0  0.55538752028E+02 -0.21882913109E+03  0.41206225732E+02  0.28718273569E+03  0.17264190989E+03 0.  0.
         24    2    3    3    0    0 -0.25420576987E+02 -0.11398338643E+03 -0.17019524698E+02  0.14240921898E+03  0.79701338217E+02 0.  0.
         -6    2    1    2    0  502 -0.55538752028E+02  0.21882913109E+03  0.65051537254E+02  0.29290783414E+03  0.17490727603E+03 0.  0.
        -24    2    5    5    0    0  0.25257284301E+02  0.10666070968E+03 -0.10362080863E+02  0.13536717892E+03  0.78755717311E+02 0.  0.
          5    1    3    3  501    0  0.80959329016E+02 -0.10484574466E+03  0.58225750429E+02  0.14477351671E+03  0.47000000000E+01 0. -1.
        -13    1    4    4    0    0 -0.41187804977E+02 -0.11355578021E+03 -0.22724144881E+01  0.12081603521E+03  0.00000000000E+00 0.  1.
         14    1    4    4    0    0  0.15767227989E+02 -0.42760621897E+00 -0.14747110209E+02  0.21593183764E+02  0.00000000000E+00 0. -1.
         -5    1    5    5    0  502 -0.80796036330E+02  0.11216842141E+03  0.75413618117E+02  0.15754065522E+03  0.47000000000E+01 0.  1.
         11    1    6    6    0    0 -0.18869742055E+02  0.31212815272E+02  0.21497125002E+02  0.42337139556E+02  0.00000000000E+00 0. -1.
        -12    1    6    6    0    0  0.44127026357E+02  0.75447894403E+02 -0.31859205865E+02  0.93030039360E+02  0.00000000000E+00 0.  1.
<mgrwt>
<rscale>  2 0.28524682E+03</rscale>
<asrwt>0</asrwt>
<pdfrwt beam="1">  1       21 0.52796026E-01 0.28559289E+03</pdfrwt>
<pdfrwt beam="2">  1       21 0.36448677E-01 0.28559289E+03</pdfrwt>
<totfact> 0.23583152E+04</totfact>
</mgrwt>
</event>
<event>
12    1  0.1029207E-001  0.2049564E+03  0.7546771E-02  0.1145634E+00
         21   -1    0    0  501  502  0.00000000000E+00  0.00000000000E+00  0.20369806656E+02  0.20369806656E+02  0.00000000000E+00 0. -1.
         21   -1    0    0  502  503 -0.00000000000E+00 -0.00000000000E+00 -0.22916469392E+04  0.22916469392E+04  0.00000000000E+00 0. -1.
         -6    2    1    2    0  503 -0.10671276515E+03  0.26903064248E+02 -0.15019451612E+04  0.15158649033E+04  0.17290387081E+03 0.  0.
        -24    2    3    3    0    0 -0.95547058445E+02 -0.15672169757E+02 -0.13855191337E+04  0.13913079546E+04  0.81851680763E+02 0.  0.
          6    2    1    2  501    0  0.10671276515E+03 -0.26903064248E+02 -0.76933197134E+03  0.79615184260E+03  0.17284294964E+03 0.  0.
         24    2    5    5    0    0  0.47329186522E+02  0.46376908758E+02 -0.29847436390E+03  0.31591717045E+03  0.79535169047E+02 0.  0.
          5    1    5    5  501    0  0.59383578632E+02 -0.73279973006E+02 -0.47085760743E+03  0.48023467215E+03  0.47000000000E+01 0. -1.
        -11    1    6    6    0    0 -0.15236181623E+01 -0.18342394493E+02 -0.97118740264E+02  0.98847430712E+02  0.00000000000E+00 0.  1.
         12    1    6    6    0    0  0.48852804684E+02  0.64719303251E+02 -0.20135562364E+03  0.21706973974E+03  0.00000000000E+00 0. -1.
         -5    1    3    3    0  503 -0.11165706708E+02  0.42575234005E+02 -0.11642602756E+03  0.12455694862E+03  0.47000000000E+01 0.  1.
         11    1    4    4    0    0 -0.10917173935E+03 -0.11983051339E+02 -0.11079387114E+04  0.11133688743E+04  0.00000000000E+00 0. -1.
        -12    1    4    4    0    0  0.13624680904E+02 -0.36891184175E+01 -0.27758042228E+03  0.27793908030E+03  0.00000000000E+00 0.  1.
<mgrwt>
<rscale>  2 0.20494358E+03</rscale>
<asrwt>0</asrwt>
<pdfrwt beam="1">  1       21 0.31338176E-02 0.20495643E+03</pdfrwt>
<pdfrwt beam="2">  1       21 0.35256093E+00 0.20495643E+03</pdfrwt>
<totfact> 0.97991330E+03</totfact>
</mgrwt>
</event>
<event>
12    1  0.1029207E-001  0.1753741E+03  0.7546771E-02  0.1172452E+00
         21   -1    0    0  503  502  0.00000000000E+00  0.00000000000E+00  0.29428533115E+03  0.29428533115E+03  0.00000000000E+00 0. -1.
         21   -1    0    0  501  503 -0.00000000000E+00 -0.00000000000E+00 -0.11094061918E+03  0.11094061918E+03  0.00000000000E+00 0.  1.
          6    2    1    2  501    0  0.28745760005E+02  0.45923143079E+01  0.41954305998E+02  0.17995429920E+03  0.17255717296E+03 0.  0.
         24    2    3    3    0    0  0.43950579084E+02  0.59275909177E+02  0.55196764909E+01  0.11234472667E+03  0.84531556065E+02 0.  0.
         -6    2    1    2    0  502 -0.28745760005E+02 -0.45923143079E+01  0.14139040597E+03  0.22527165113E+03  0.17294120918E+03 0.  0.
        -24    2    5    5    0    0 -0.16356385360E+02 -0.58018470919E+02  0.13796752466E+03  0.17012043237E+03  0.79197533661E+02 0.  0.
          5    1    3    3  501    0 -0.15204819078E+02 -0.54683594869E+02  0.36434629507E+02  0.67609572535E+02  0.47000000000E+01 0. -1.
        -11    1    4    4    0    0 -0.24986030326E+02  0.20105904748E+02  0.78687067797E+01  0.33022199557E+02  0.00000000000E+00 0.  1.
         12    1    4    4    0    0  0.68936609410E+02  0.39170004429E+02 -0.23490302888E+01  0.79322527111E+02  0.00000000000E+00 0. -1.
         -5    1    5    5    0  502 -0.12389374645E+02  0.53426156611E+02  0.34228813064E+01  0.55151218761E+02  0.47000000000E+01 0.  1.
         11    1    6    6    0    0 -0.41078130021E+02 -0.67833192103E+01  0.46595321173E+02  0.62486399646E+02  0.00000000000E+00 0. -1.
        -12    1    6    6    0    0  0.24721744660E+02 -0.51235151709E+02  0.91372203488E+02  0.10763403272E+03  0.00000000000E+00 0.  1.
<mgrwt>
<rscale>  2 0.17527933E+03</rscale>
<asrwt>0</asrwt>
<pdfrwt beam="1">  1       21 0.45274666E-01 0.17537409E+03</pdfrwt>
<pdfrwt beam="2">  1       21 0.17067788E-01 0.17537409E+03</pdfrwt>
<totfact> 0.14575979E+05</totfact>
</mgrwt>
</event>
<event>
12    1  0.1029207E-001  0.2247127E+03  0.7546771E-02  0.1130447E+00
         21   -1    0    0  501  502  0.00000000000E+00  0.00000000000E+00  0.13042300625E+04  0.13042300625E+04  0.00000000000E+00 0.  1.
         21   -1    0    0  502  503 -0.00000000000E+00 -0.00000000000E+00 -0.61783603906E+02  0.61783603906E+02  0.00000000000E+00 0. -1.
         -6    2    1    2    0  503 -0.88199865887E+02  0.11225632388E+03  0.20349541479E+03  0.30303902632E+03  0.17332503869E+03 0.  0.
        -24    2    3    3    0    0 -0.12578201779E+03  0.11183326506E+03  0.16394146893E+03  0.24827405801E+03  0.80220991453E+02 0.  0.
          6    2    1    2  501    0  0.88199865887E+02 -0.11225632388E+03  0.10389510438E+04  0.10629746401E+04  0.17353707229E+03 0.  0.
         24    2    5    5    0    0  0.68240132866E+02 -0.12655629815E+02  0.73986128919E+03  0.74707044494E+03  0.76828651915E+02 0.  0.
          5    1    5    5  501    0  0.19959733021E+02 -0.99600694069E+02  0.29908975463E+03  0.31590419517E+03  0.47000000000E+01 0. -1.
        -11    1    6    6    0    0 -0.64451682809E+00  0.19791536870E+02  0.30114651961E+03  0.30179686315E+03  0.00000000000E+00 0.  1.
         12    1    6    6    0    0  0.68884649694E+02 -0.32447166684E+02  0.43871476959E+03  0.44527358179E+03  0.00000000000E+00 0. -1.
         -5    1    3    3    0  503  0.37582151907E+02  0.42305882028E+00  0.39553945862E+02  0.54764968310E+02  0.47000000000E+01 0.  1.
         11    1    4    4    0    0 -0.74229778182E+02  0.30897220947E+02  0.35366670545E+02  0.87837916737E+02  0.00000000000E+00 0. -1.
        -12    1    4    4    0    0 -0.51552239612E+02  0.80936044116E+02  0.12857479839E+03  0.16043614127E+03  0.00000000000E+00 0.  1.
<mgrwt>
<rscale>  2 0.22467180E+03</rscale>
<asrwt>0</asrwt>
<pdfrwt beam="1">  1       21 0.20065076E+00 0.22471274E+03</pdfrwt>
<pdfrwt beam="2">  1       21 0.95051708E-02 0.22471274E+03</pdfrwt>
<totfact> 0.11507055E+04</totfact>
</mgrwt>
</event>
<event>
12    1  0.1029207E-001  0.2245865E+03  0.7546771E-02  0.1130662E+00
         21   -1    0    0  501  502  0.00000000000E+00  0.00000000000E+00  0.37408861676E+03  0.37408861676E+03  0.00000000000E+00 0.  1.
         21   -1    0    0  502  503 -0.00000000000E+00 -0.00000000000E+00 -0.14353210435E+03  0.14353210435E+03  0.00000000000E+00 0. -1.
         -6    2    1    2    0  503  0.12464745917E+03 -0.66084541251E+02  0.49535214910E+02  0.22916305945E+03  0.17366005480E+03 0.  0.
        -24    2    3    3    0    0  0.73764021022E+02 -0.98295203742E+02 -0.71565579963E+01  0.14632165573E+03  0.79093190206E+02 0.  0.
          6    2    1    2  501    0 -0.12464745917E+03  0.66084541251E+02  0.18102129750E+03  0.28845766166E+03  0.17474254421E+03 0.  0.
         24    2    5    5    0    0 -0.68974416062E+02  0.54937321225E+02  0.19584821997E+03  0.22958767039E+03  0.81107298029E+02 0.  0.
          5    1    5    5  501    0 -0.55673043104E+02  0.11147220026E+02 -0.14826922475E+02  0.58869991277E+02  0.47000000000E+01 0. -1.
        -13    1    6    6    0    0  0.15713713218E+02  0.25872131628E+02  0.49864399340E+02  0.58333063520E+02  0.00000000000E+00 0.  1.
         14    1    6    6    0    0 -0.84688129280E+02  0.29065189596E+02  0.14598382063E+03  0.17125460687E+03  0.00000000000E+00 0. -1.
         -5    1    3    3    0  503  0.50883438145E+02  0.32210662491E+02  0.56691772906E+02  0.82841403723E+02  0.47000000000E+01 0.  1.
         11    1    4    4    0    0 -0.56555785106E+01 -0.48282110610E+02  0.13012920765E+02  0.50323790399E+02  0.00000000000E+00 0. -1.
        -12    1    4    4    0    0  0.79419599532E+02 -0.50013093132E+02 -0.20169478761E+02  0.95997865330E+02  0.00000000000E+00 0.  1.
<mgrwt>
<rscale>  2 0.22437594E+03</rscale>
<asrwt>0</asrwt>
<pdfrwt beam="1">  1       21 0.57552095E-01 0.22458654E+03</pdfrwt>
<pdfrwt beam="2">  1       21 0.22081862E-01 0.22458654E+03</pdfrwt>
<totfact> 0.53501274E+04</totfact>
</mgrwt>
</event>
<event>
12    1  0.1029207E-001  0.2921162E+03  0.7546771E-02  0.1089346E+00
         21   -1    0    0  501  502  0.00000000000E+00  0.00000000000E+00  0.35548291989E+03  0.35548291989E+03  0.00000000000E+00 0. -1.
         21   -1    0    0  502  503 -0.00000000000E+00 -0.00000000000E+00 -0.24000180181E+03  0.24000180181E+03  0.00000000000E+00 0.  1.
         -6    2    1    2    0  503  0.23242524137E+03  0.34671286319E+02  0.43340022139E+02  0.29531380452E+03  0.17351741902E+03 0.  0.
        -24    2    3    3    0    0  0.11652295393E+03 -0.44646724029E+02 -0.99593989520E+01  0.14502207059E+03  0.73220779650E+02 0.  0.
          6    2    1    2  501    0 -0.23242524137E+03 -0.34671286319E+02  0.72141095940E+02  0.30017091718E+03  0.17226331843E+03 0.  0.
         24    2    5    5    0    0 -0.25276839055E+03 -0.40686457674E+02  0.73887895690E+02  0.27837258434E+03  0.80527184772E+02 0.  0.
          5    1    5    5  501    0  0.20343149180E+02  0.60151713549E+01 -0.17467997505E+01  0.21798332835E+02  0.47000000000E+01 0. -1.
        -11    1    6    6    0    0 -0.11705423398E+03 -0.55575728641E+02  0.17891581770E+02  0.13080697231E+03  0.00000000000E+00 0.  1.
         12    1    6    6    0    0 -0.13571415656E+03  0.14889270967E+02  0.55996313920E+02  0.14756561203E+03  0.00000000000E+00 0. -1.
         -5    1    3    3    0  503  0.11590228744E+03  0.79318010348E+02  0.53299421091E+02  0.15029173393E+03  0.47000000000E+01 0.  1.
         11    1    4    4    0    0  0.10618820494E+03 -0.32579411747E+02  0.18330511704E+02  0.11257602141E+03  0.00000000000E+00 0. -1.
        -12    1    4    4    0    0  0.10334748990E+02 -0.12067312282E+02 -0.28289910656E+02  0.32446049179E+02  0.00000000000E+00 0.  1.
<mgrwt>
<rscale>  2 0.29193024E+03</rscale>
<asrwt>0</asrwt>
<pdfrwt beam="1">  1       21 0.54689680E-01 0.29211622E+03</pdfrwt>
<pdfrwt beam="2">  1       21 0.36923354E-01 0.29211622E+03</pdfrwt>
<totfact> 0.21259315E+04</totfact>
</mgrwt>
</event>
<event>
12    1  0.1029207E-001  0.1806248E+03  0.7546771E-02  0.1167417E+00
         21   -1    0    0  501  502  0.00000000000E+00  0.00000000000E+00  0.11011449551E+03  0.11011449551E+03  0.00000000000E+00 0. -1.
         21   -1    0    0  502  503 -0.00000000000E+00 -0.00000000000E+00 -0.29693173085E+03  0.29693173085E+03  0.00000000000E+00 0. -1.
         -6    2    1    2    0  503 -0.47209149753E+02  0.20971387469E+02 -0.11038018198E+03  0.21091375921E+03  0.17214042622E+03 0.  0.
        -24    2    3    3    0    0 -0.30071950814E+02  0.45334437136E+02 -0.13978795349E+03  0.16879311343E+03  0.77400967600E+02 0.  0.
          6    2    1    2  501    0  0.47209149753E+02 -0.20971387469E+02 -0.76437053354E+02  0.19613246715E+03  0.17308038199E+03 0.  0.
         24    2    5    5    0    0 -0.20292123164E+02 -0.45523872076E+02 -0.39769758033E+01  0.93996287541E+02  0.79594550967E+02 0.  0.
          5    1    5    5  501    0  0.67501272917E+02  0.24552484607E+02 -0.72460077550E+02  0.10213617961E+03  0.47000000000E+01 0. -1.
        -13    1    6    6    0    0 -0.11256002762E+02  0.19425768001E+02 -0.15680389664E+02  0.27384898770E+02  0.00000000000E+00 0.  1.
         14    1    6    6    0    0 -0.90361204015E+01 -0.64949640077E+02  0.11703413861E+02  0.66611388771E+02  0.00000000000E+00 0. -1.
         -5    1    3    3    0  503 -0.17137198938E+02 -0.24363049667E+02  0.29407771502E+02  0.42120645784E+02  0.47000000000E+01 0.  1.
         11    1    4    4    0    0 -0.54426940260E+02  0.26566187397E+02 -0.70201478541E+02  0.92716243066E+02  0.00000000000E+00 0. -1.
        -12    1    4    4    0    0  0.24354989446E+02  0.18768249739E+02 -0.69586474945E+02  0.76076870365E+02  0.00000000000E+00 0.  1.
<mgrwt>
<rscale>  2 0.18039926E+03</rscale>
<asrwt>0</asrwt>
<pdfrwt beam="1">  1       21 0.16940692E-01 0.18062481E+03</pdfrwt>
<pdfrwt beam="2">  1       21 0.45681804E-01 0.18062481E+03</pdfrwt>
<totfact> 0.14482674E+05</totfact>
</mgrwt>
</event>
<event>
12    1  0.1029207E-001  0.1969376E+03  0.7546771E-02  0.1152767E+00
         21   -1    0    0  503  502  0.00000000000E+00  0.00000000000E+00  0.80388756832E+02  0.80388756832E+02  0.00000000000E+00 0. -1.
         21   -1    0    0  501  503 -0.00000000000E+00 -0.00000000000E+00 -0.70860534003E+03  0.70860534003E+03  0.00000000000E+00 0.  1.
          6    2    1    2  501    0  0.23560470533E+02  0.93230260952E+02 -0.53823878037E+03  0.57247518424E+03  0.16964632195E+03 0.  0.
         24    2    3    3    0    0  0.95912561948E+01  0.36379308052E+02 -0.48506224491E+03  0.49324764031E+03  0.81193638788E+02 0.  0.
         -6    2    1    2    0  502 -0.23560470533E+02 -0.93230260952E+02 -0.89977802829E+02  0.21651891262E+03  0.17186464788E+03 0.  0.
        -24    2    5    5    0    0  0.34691008908E+02 -0.71205444991E+02 -0.57319245012E+02  0.14604197473E+03  0.10848539551E+03 0.  0.
          5    1    3    3  501    0  0.13969214339E+02  0.56850952900E+02 -0.53176535459E+02  0.79227543937E+02  0.47000000000E+01 0. -1.
        -11    1    4    4    0    0  0.31118553642E+02  0.29476577353E+02 -0.11893244611E+03  0.12642056689E+03  0.00000000000E+00 0.  1.
         12    1    4    4    0    0 -0.21527297447E+02  0.69027306993E+01 -0.36612979880E+03  0.36682707342E+03  0.00000000000E+00 0. -1.
         -5    1    5    5    0  502 -0.58251479441E+02 -0.22024815961E+02 -0.32658557816E+02  0.70476937887E+02  0.47000000000E+01 0.  1.
         13    1    6    6    0    0 -0.13331635797E+02  0.87876886537E+01  0.19487418361E+02  0.25193559877E+02  0.00000000000E+00 0. -1.
        -14    1    6    6    0    0  0.48022644705E+02 -0.79993133645E+02 -0.76806663373E+02  0.12084841486E+03  0.00000000000E+00 0.  1.
<mgrwt>
<rscale>  2 0.19645263E+03</rscale>
<asrwt>0</asrwt>
<pdfrwt beam="1">  1       21 0.12367501E-01 0.19693764E+03</pdfrwt>
<pdfrwt beam="2">  1       21 0.10901620E+00 0.19693764E+03</pdfrwt>
<totfact> 0.37019358E+04</totfact>
</mgrwt>
</event>
<event>
12    1  0.1029207E-001  0.3370801E+03  0.7546771E-02  0.1068082E+00
         21   -1    0    0  501  502  0.00000000000E+00  0.00000000000E+00  0.13213311325E+03  0.13213311325E+03  0.00000000000E+00 0.  1.
         21   -1    0    0  502  503 -0.00000000000E+00 -0.00000000000E+00 -0.85915841595E+03  0.85915841595E+03  0.00000000000E+00 0. -1.
         -6    2    1    2    0  503 -0.21347107998E+03 -0.19456139016E+03 -0.35854496534E+03  0.49211530683E+03  0.17377844089E+03 0.  0.
        -24    2    3    3    0    0 -0.73150162069E+02 -0.59955427048E+02 -0.22287484695E+03  0.25497147636E+03  0.79947838671E+02 0.  0.
          6    2    1    2  501    0  0.21347107998E+03  0.19456139016E+03 -0.36848033736E+03  0.49917622237E+03  0.17313320140E+03 0.  0.
         24    2    5    5    0    0  0.21367039090E+03  0.18691910144E+03 -0.38162124903E+03  0.48326340171E+03  0.85527488544E+02 0.  0.
          5    1    5    5  501    0 -0.19931091921E+00  0.76422887236E+01  0.13140911668E+02  0.15912820656E+02  0.47000000000E+01 0. -1.
        -11    1    6    6    0    0  0.56981750019E+02  0.31020915353E+02 -0.39515448540E+02  0.75965042605E+02  0.00000000000E+00 0.  1.
         12    1    6    6    0    0  0.15668864088E+03  0.15589818608E+03 -0.34210580049E+03  0.40729835911E+03  0.00000000000E+00 0. -1.
         -5    1    3    3    0  503 -0.14032091791E+03 -0.13460596311E+03 -0.13567011839E+03  0.23714383048E+03  0.47000000000E+01 0.  1.
         11    1    4    4    0    0  0.53835948105E+01  0.11424757473E+02 -0.54481760665E+02  0.55926473352E+02  0.00000000000E+00 0. -1.
        -12    1    4    4    0    0 -0.78533756879E+02 -0.71380184520E+02 -0.16839308629E+03  0.19904500300E+03  0.00000000000E+00 0.  1.
<mgrwt>
<rscale>  2 0.33699701E+03</rscale>
<asrwt>0</asrwt>
<pdfrwt beam="1">  1       21 0.20328172E-01 0.33708008E+03</pdfrwt>
<pdfrwt beam="2">  1       21 0.13217821E+00 0.33708008E+03</pdfrwt>
<totfact> 0.85413617E+03</totfact>
</mgrwt>
</event>
<event>
12    1  0.1029207E-001  0.2426539E+03  0.7546771E-02  0.1118120E+00
         21   -1    0    0  503  502  0.00000000000E+00  0.00000000000E+00  0.52807554531E+03  0.52807554531E+03  0.00000000000E+00 0.  1.
         21   -1    0    0  501  503 -0.00000000000E+00 -0.00000000000E+00 -0.11337150918E+03  0.11337150918E+03  0.00000000000E+00 0. -1.
          6    2    1    2  501    0  0.11417461244E+03  0.12524061865E+03  0.16388873537E+03  0.29281470196E+03  0.17366599385E+03 0.  0.
         24    2    3    3    0    0  0.25461441778E+01  0.97229854772E+02  0.71909551971E+02  0.14541124882E+03  0.80705143024E+02 0.  0.
         -6    2    1    2    0  502 -0.11417461244E+03 -0.12524061865E+03  0.25081530076E+03  0.34863235252E+03  0.17295995908E+03 0.  0.
        -24    2    5    5    0    0  0.58870317612E+01 -0.68350994020E+02  0.12390280046E+03  0.16483871680E+03  0.84340874246E+02 0.  0.
          5    1    3    3  501    0  0.11162846826E+03  0.28010763874E+02  0.91979183397E+02  0.14740345314E+03  0.47000000000E+01 0. -1.
        -13    1    4    4    0    0  0.30872615086E+02  0.18618214740E+02  0.44926041585E+02  0.57602999009E+02  0.00000000000E+00 0.  1.
         14    1    4    4    0    0 -0.28326470909E+02  0.78611640033E+02  0.26983510387E+02  0.87808249815E+02  0.00000000000E+00 0. -1.
         -5    1    5    5    0  502 -0.12006164420E+03 -0.56889624626E+02  0.12691250030E+03  0.18379363572E+03  0.47000000000E+01 0.  1.
         13    1    6    6    0    0 -0.19405982939E+02 -0.67995730965E+02  0.49664860541E+02  0.86409547944E+02  0.00000000000E+00 0. -1.
        -14    1    6    6    0    0  0.25293014700E+02 -0.35526305466E+00  0.74237939915E+02  0.78429168855E+02  0.00000000000E+00 0.  1.
<mgrwt>
<rscale>  2 0.24252764E+03</rscale>
<asrwt>0</asrwt>
<pdfrwt beam="1">  1       21 0.81242390E-01 0.24265393E+03</pdfrwt>
<pdfrwt beam="2">  1       21 0.17441771E-01 0.24265393E+03</pdfrwt>
<totfact> 0.38565277E+04</totfact>
</mgrwt>
</event>
<event>
11    1  0.1029207E-001  0.1777460E+03  0.7546771E-02  0.1170561E+00
         21   -1    0    0  503  502  0.00000000000E+00  0.00000000000E+00  0.11024359633E+04  0.11024359633E+04  0.00000000000E+00 0. -1.
         21   -1    0    0  501  503 -0.00000000000E+00 -0.00000000000E+00 -0.19854896199E+03  0.19854896199E+03  0.00000000000E+00 0. -1.
          6    2    1    2  501    0 -0.22361661904E+02 -0.53580163802E+01 -0.15000400276E+03  0.23258296923E+03  0.17625233181E+03 0.  0.
         -6    2    1    2    0  502  0.22361661904E+02  0.53580163802E+01  0.10538910041E+04  0.10684019561E+04  0.17397625990E+03 0.  0.
        -24    2    4    4    0    0  0.20899716256E+02 -0.73718182597E+01  0.10511085341E+04  0.10544729176E+04  0.81196314573E+02 0.  0.
          5    1    3    3  501    0 -0.48059238603E+02 -0.21283455822E+02 -0.16977328746E+03  0.17778564352E+03  0.47000000000E+01 0. -1.
        -13    1    3    3    0    0  0.26102539403E+02 -0.72543370138E+01  0.15537016771E+02  0.31230863884E+02  0.00000000000E+00 0.  1.
         14    1    3    3    0    0 -0.40496270389E+00  0.23179776456E+02  0.42322679283E+01  0.23566461829E+02  0.00000000000E+00 0. -1.
         -5    1    4    4    0  502  0.14619456476E+01  0.12729834640E+02  0.27824699492E+01  0.13929038519E+02  0.47000000000E+01 0.  1.
         11    1    5    5    0    0 -0.27259084000E+02 -0.20651124247E+02  0.41843529217E+03  0.41983046618E+03  0.00000000000E+00 0. -1.
        -12    1    5    5    0    0  0.48158800256E+02  0.13279305987E+02  0.63267324197E+03  0.63464245139E+03  0.00000000000E+00 0.  1.
<mgrwt>
<rscale>  2 0.17717911E+03</rscale>
<asrwt>0</asrwt>
<pdfrwt beam="1">  1       21 0.16960553E+00 0.17774599E+03</pdfrwt>
<pdfrwt beam="2">  1       21 0.30545995E-01 0.17774599E+03</pdfrwt>
<totfact> 0.22425875E+03</totfact>
</mgrwt>
</event>
<event>
12    1  0.1029207E-001  0.1808378E+03  0.7546771E-02  0.1167280E+00
         21   -1    0    0  503  502  0.00000000000E+00  0.00000000000E+00  0.46953344954E+03  0.46953344954E+03  0.00000000000E+00 0.  1.
         21   -1    0    0  501  503 -0.00000000000E+00 -0.00000000000E+00 -0.96811556049E+02  0.96811556049E+02  0.00000000000E+00 0. -1.
          6    2    1    2  501    0 -0.33321094768E+02 -0.35796598558E+02  0.35553603608E+02  0.18429966879E+03  0.17409944676E+03 0.  0.
         24    2    3    3    0    0 -0.63491616048E+02  0.27940856711E+02  0.87980777766E+01  0.10873068229E+03  0.83265108634E+02 0.  0.
         -6    2    1    2    0  502  0.33321094768E+02  0.35796598558E+02  0.33716828988E+03  0.38204533680E+03  0.17287131585E+03 0.  0.
        -24    2    5    5    0    0 -0.10389495815E+02  0.39121726687E+02  0.32292028886E+03  0.33571211180E+03  0.82381174587E+02 0.  0.
          5    1    3    3  501    0  0.30170521280E+02 -0.63737455269E+02  0.26755525832E+02  0.75568986502E+02  0.47000000000E+01 0. -1.
        -13    1    4    4    0    0 -0.70770806449E+02  0.43838005858E+02  0.22818685031E+02  0.86319002483E+02  0.00000000000E+00 0.  1.
         14    1    4    4    0    0  0.72791904011E+01 -0.15897149146E+02 -0.14020607254E+02  0.22411679804E+02  0.00000000000E+00 0. -1.
         -5    1    5    5    0  502  0.43710590583E+02 -0.33251281297E+01  0.14248001023E+02  0.46333225005E+02  0.47000000000E+01 0.  1.
         13    1    6    6    0    0  0.24289687205E+02  0.49850596737E+02  0.19961749128E+03  0.20717676926E+03  0.00000000000E+00 0. -1.
        -14    1    6    6    0    0 -0.34679183020E+02 -0.10728870050E+02  0.12330279759E+03  0.12853534253E+03  0.00000000000E+00 0.  1.
<mgrwt>
<rscale>  2 0.18054156E+03</rscale>
<asrwt>0</asrwt>
<pdfrwt beam="1">  1       21 0.72235914E-01 0.18083780E+03</pdfrwt>
<pdfrwt beam="2">  1       21 0.14894086E-01 0.18083780E+03</pdfrwt>
<totfact> 0.69040558E+04</totfact>
</mgrwt>
</event>
<event>
12    1  0.1029207E-001  0.1769320E+03  0.7546771E-02  0.1171197E+00
         21   -1    0    0  503  502  0.00000000000E+00  0.00000000000E+00  0.13328526495E+03  0.13328526495E+03  0.00000000000E+00 0. -1.
         21   -1    0    0  501  503 -0.00000000000E+00 -0.00000000000E+00 -0.23395729522E+03  0.23395729522E+03  0.00000000000E+00 0. -1.
          6    2    1    2  501    0 -0.17778769502E+02 -0.25503925648E+02 -0.37560568267E+02  0.18087492598E+03  0.17417924013E+03 0.  0.
         24    2    3    3    0    0 -0.13320759443E+02 -0.52146690694E+02 -0.86444198223E+02  0.12482664268E+03  0.72196754318E+02 0.  0.
         -6    2    1    2    0  502  0.17778769502E+02  0.25503925648E+02 -0.63111461997E+02  0.18636763419E+03  0.17257839833E+03 0.  0.
        -24    2    5    5    0    0 -0.44852369115E+02  0.50014126618E+02 -0.19001799160E+02  0.10579988735E+03  0.79494653370E+02 0.  0.
          5    1    3    3  501    0 -0.44580100583E+01  0.26642765046E+02  0.48883629955E+02  0.56048283298E+02  0.47000000000E+01 0. -1.
        -11    1    4    4    0    0 -0.41500814977E+02 -0.43011831779E+02 -0.50489711878E+02  0.78240311363E+02  0.00000000000E+00 0.  1.
         12    1    4    4    0    0  0.28180055534E+02 -0.91348589155E+01 -0.35954486345E+02  0.46586331318E+02  0.00000000000E+00 0. -1.
         -5    1    5    5    0  502  0.62631138616E+02 -0.24510200970E+02 -0.44109662837E+02  0.80567746844E+02  0.47000000000E+01 0.  1.
         11    1    6    6    0    0 -0.55961944151E+02  0.28811792868E+02  0.14532367565E+02  0.64599135509E+02  0.00000000000E+00 0. -1.
        -12    1    6    6    0    0  0.11109575036E+02  0.21202333750E+02 -0.33534166726E+02  0.41200751837E+02  0.00000000000E+00 0.  1.
<mgrwt>
<rscale>  2 0.17653678E+03</rscale>
<asrwt>0</asrwt>
<pdfrwt beam="1">  1       21 0.20505425E-01 0.17693203E+03</pdfrwt>
<pdfrwt beam="2">  1       21 0.35993430E-01 0.17693203E+03</pdfrwt>
<totfact> 0.16478463E+05</totfact>
</mgrwt>
</event>
<event>
11    1  0.1029207E-001  0.2407648E+03  0.7546771E-02  0.1119366E+00
         21   -1    0    0  503  502  0.00000000000E+00  0.00000000000E+00  0.18460857945E+03  0.18460857945E+03  0.00000000000E+00 0. -1.
         21   -1    0    0  501  503 -0.00000000000E+00 -0.00000000000E+00 -0.36205496586E+03  0.36205496586E+03  0.00000000000E+00 0. -1.
          6    2    1    2  501    0 -0.61368687146E+02 -0.15631222952E+03  0.11433359617E+02  0.24103608504E+03  0.17253418130E+03 0.  0.
         24    2    3    3    0    0 -0.52039739449E+02 -0.73122224196E+02 -0.52746944513E+02  0.13544817053E+03  0.86654328177E+02 0.  0.
         -6    2    1    2    0  502  0.61368687146E+02  0.15631222952E+03 -0.18887974603E+03  0.30562746027E+03  0.17185155556E+03 0.  0.
          5    1    3    3  501    0 -0.93289476975E+01 -0.83190005328E+02  0.64180304130E+02  0.10558791451E+03  0.47000000000E+01 0. -1.
        -13    1    4    4    0    0 -0.32921111252E+02 -0.19627793446E+02 -0.66721092934E+02  0.76946436460E+02  0.00000000000E+00 0.  1.
         14    1    4    4    0    0 -0.19118628196E+02 -0.53494430750E+02  0.13974148421E+02  0.58501734072E+02  0.00000000000E+00 0. -1.
         -5    1    5    5    0  502  0.58575742237E+02  0.38367379110E+02  0.10286070964E+02  0.70930012084E+02  0.47000000000E+01 0.  1.
         13    1    5    5    0    0 -0.14804471690E+02  0.34513429539E+02 -0.45860007870E+02  0.59274695464E+02  0.00000000000E+00 0. -1.
        -14    1    5    5    0    0  0.17597416600E+02  0.83431420874E+02 -0.15330580912E+03  0.17542275272E+03  0.00000000000E+00 0.  1.
<mgrwt>
<rscale>  2 0.24064250E+03</rscale>
<asrwt>0</asrwt>
<pdfrwt beam="1">  1       21 0.28401320E-01 0.24076477E+03</pdfrwt>
<pdfrwt beam="2">  1       21 0.55700763E-01 0.24076477E+03</pdfrwt>
<totfact> 0.35146869E+04</totfact>
</mgrwt>
</event>
<event>
12    1  0.1029207E-001  0.1866443E+03  0.7546771E-02  0.1162853E+00
         21   -1    0    0  503  502  0.00000000000E+00  0.00000000000E+00  0.51396460678E+02  0.51396460678E+02  0.00000000000E+00 0. -1.
         21   -1    0    0  501  503 -0.00000000000E+00 -0.00000000000E+00 -0.81837932751E+03  0.81837932751E+03  0.00000000000E+00 0. -1.
          6    2    1    2  501    0 -0.45591100212E+02  0.26756610510E+02 -0.57162563261E+03  0.59958968367E+03  0.17308223561E+03 0.  0.
         24    2    3    3    0    0  0.16277756969E+02 -0.11692449535E+02 -0.15404721179E+03  0.17567941811E+03  0.82042889645E+02 0.  0.
         -6    2    1    2    0  502  0.45591100212E+02 -0.26756610510E+02 -0.19535723422E+03  0.27018610452E+03  0.17900172482E+03 0.  0.
        -24    2    5    5    0    0 -0.38998739678E+02 -0.42024236334E+02 -0.12630146635E+03  0.15982610049E+03  0.79406447232E+02 0.  0.
          5    1    3    3  501    0 -0.61868857181E+02  0.38449060045E+02 -0.41757842082E+03  0.42391026556E+03  0.47000000000E+01 0. -1.
        -11    1    4    4    0    0 -0.70731143801E+01 -0.19997967852E+02 -0.16455636173E+01  0.21275703158E+02  0.00000000000E+00 0.  1.
         12    1    4    4    0    0  0.23350871349E+02  0.83055183176E+01 -0.15240164817E+03  0.15440371495E+03  0.00000000000E+00 0. -1.
         -5    1    5    5    0  502  0.84589839891E+02  0.15267625824E+02 -0.69055767873E+02  0.11036000402E+03  0.47000000000E+01 0.  1.
         11    1    6    6    0    0 -0.46761845718E+02 -0.57579116007E+02 -0.74268701973E+02  0.10496601787E+03  0.00000000000E+00 0. -1.
        -12    1    6    6    0    0  0.77631060399E+01  0.15554879673E+02 -0.52032764373E+02  0.54860082622E+02  0.00000000000E+00 0.  1.
<mgrwt>
<rscale>  2 0.18521050E+03</rscale>
<asrwt>0</asrwt>
<pdfrwt beam="1">  1       21 0.79071478E-02 0.18664427E+03</pdfrwt>
<pdfrwt beam="2">  1       21 0.12590451E+00 0.18664427E+03</pdfrwt>
<totfact> 0.57548050E+04</totfact>
</mgrwt>
</event>
<event>
12    1  0.1029207E-001  0.1872492E+03  0.7546771E-02  0.1161204E+00
         21   -1    0    0  501  502  0.00000000000E+00  0.00000000000E+00  0.57167323095E+03  0.57167323095E+03  0.00000000000E+00 0. -1.
         21   -1    0    0  502  503 -0.00000000000E+00 -0.00000000000E+00 -0.91814411684E+02  0.91814411684E+02  0.00000000000E+00 0. -1.
         -6    2    1    2    0  503  0.65727316308E+02 -0.15621977990E+02  0.47285127329E+02  0.19212548832E+03  0.17352865381E+03 0.  0.
        -24    2    3    3    0    0  0.15809980487E+02 -0.57967114093E+02  0.53385921663E+02  0.12621524133E+03  0.97314380815E+02 0.  0.
          6    2    1    2  501    0 -0.65727316308E+02  0.15621977990E+02  0.43257369194E+03  0.47136215431E+03  0.17463721039E+03 0.  0.
         24    2    5    5    0    0 -0.73328186406E+02 -0.30130965375E+02  0.39447041536E+03  0.41115372684E+03  0.84590664383E+02 0.  0.
          5    1    5    5  501    0  0.76008700981E+01  0.45752943366E+02  0.38103276575E+02  0.60208427472E+02  0.47000000000E+01 0. -1.
        -11    1    6    6    0    0 -0.27045865916E+02 -0.32907938428E+01  0.22442344537E+02  0.35298257968E+02  0.00000000000E+00 0.  1.
         12    1    6    6    0    0 -0.46282320490E+02 -0.26840171532E+02  0.37202807082E+03  0.37585546887E+03  0.00000000000E+00 0. -1.
         -5    1    3    3    0  503  0.49917335821E+02  0.42345136103E+02 -0.61007943342E+01  0.65910246992E+02  0.47000000000E+01 0.  1.
         13    1    4    4    0    0  0.14354974183E+02  0.26067407207E+02  0.19589838955E+02  0.35627753123E+02  0.00000000000E+00 0. -1.
        -14    1    4    4    0    0  0.14550063035E+01 -0.84034521301E+02  0.33796082708E+02  0.90587488209E+02  0.00000000000E+00 0.  1.
<mgrwt>
<rscale>  2 0.18699035E+03</rscale>
<asrwt>0</asrwt>
<pdfrwt beam="1">  1       21 0.87949725E-01 0.18724925E+03</pdfrwt>
<pdfrwt beam="2">  1       21 0.14125294E-01 0.18724925E+03</pdfrwt>
<totfact> 0.48606000E+04</totfact>
</mgrwt>
</event>
<event>
12    1  0.1029207E-001  0.2553124E+03  0.7546771E-02  0.1110149E+00
         21   -1    0    0  501  502  0.00000000000E+00  0.00000000000E+00  0.13745843469E+04  0.13745843469E+04  0.00000000000E+00 0. -1.
         21   -1    0    0  502  503 -0.00000000000E+00 -0.00000000000E+00 -0.69938685612E+02  0.69938685612E+02  0.00000000000E+00 0.  1.
         -6    2    1    2    0  503 -0.11605418752E+03  0.14808105341E+03  0.23990864660E+03  0.34960324762E+03  0.17108389525E+03 0.  0.
        -24    2    3    3    0    0 -0.13748963356E+03  0.76740381193E+02  0.19345919759E+03  0.26169072762E+03  0.79139688838E+02 0.  0.
          6    2    1    2  501    0  0.11605418752E+03 -0.14808105341E+03  0.10647370147E+04  0.10949197849E+04  0.17259157591E+03 0.  0.
         24    2    5    5    0    0  0.14549942147E+03 -0.11100028538E+03  0.95236866324E+03  0.97289215864E+03  0.77601138069E+02 0.  0.
          5    1    5    5  501    0 -0.29445233948E+02 -0.37080768036E+02  0.11236835149E+03  0.12202762629E+03  0.47000000000E+01 0. -1.
        -13    1    6    6    0    0  0.51654629952E+02 -0.48426581556E+02  0.20103989024E+03  0.21314401719E+03  0.00000000000E+00 0.  1.
         14    1    6    6    0    0  0.93844791513E+02 -0.62573703821E+02  0.75132877299E+03  0.75974814145E+03  0.00000000000E+00 0. -1.
         -5    1    3    3    0  503  0.21435446040E+02  0.71340672221E+02  0.46449449011E+02  0.87912520003E+02  0.47000000000E+01 0.  1.
         11    1    4    4    0    0 -0.34041576232E+02  0.59735464727E+02  0.99286212348E+02  0.12076798674E+03  0.00000000000E+00 0. -1.
        -12    1    4    4    0    0 -0.10344805733E+03  0.17004916466E+02  0.94172985240E+02  0.14092274088E+03  0.00000000000E+00 0.  1.
<mgrwt>
<rscale>  2 0.25505783E+03</rscale>
<asrwt>0</asrwt>
<pdfrwt beam="1">  1       21 0.21147449E+00 0.25531241E+03</pdfrwt>
<pdfrwt beam="2">  1       21 0.10759799E-01 0.25531241E+03</pdfrwt>
<totfact> 0.77040055E+03</totfact>
</mgrwt>
</event>
<event>
12    1  0.1029207E-001  0.1862859E+03  0.7546771E-02  0.1161967E+00
         21   -1    0    0  503  502  0.00000000000E+00  0.00000000000E+00  0.45638930079E+03  0.45638930079E+03  0.00000000000E+00 0.  1.
         21   -1    0    0  501  503 -0.00000000000E+00 -0.00000000000E+00 -0.10460772280E+03  0.10460772280E+03  0.00000000000E+00 0.  1.
          6    2    1    2  501    0 -0.67330070036E+02 -0.37333618436E+01  0.28959473418E+02  0.18852343524E+03  0.17365240629E+03 0.  0.
         24    2    3    3    0    0 -0.10294209029E+03 -0.14249930971E+02 -0.12658925208E+02  0.13255026919E+03  0.81296930993E+02 0.  0.
         -6    2    1    2    0  502  0.67330070036E+02  0.37333618436E+01  0.32282210457E+03  0.37247358835E+03  0.17313343551E+03 0.  0.
        -24    2    5    5    0    0 -0.21663739178E+02 -0.27206290388E+02  0.19632477173E+03  0.21467363469E+03  0.79572945169E+02 0.  0.
          5    1    3    3  501    0  0.35612020255E+02  0.10516569127E+02  0.41618398626E+02  0.55973166044E+02  0.47000000000E+01 0. -1.
        -13    1    4    4    0    0 -0.10338834334E+03 -0.37639638563E+01  0.13528803890E+02  0.10433765139E+03  0.00000000000E+00 0.  1.
         14    1    4    4    0    0  0.44625304685E+00 -0.10485967115E+02 -0.26187729097E+02  0.28212617805E+02  0.00000000000E+00 0. -1.
         -5    1    5    5    0  502  0.88993809214E+02  0.30939652232E+02  0.12649733284E+03  0.15779995366E+03  0.47000000000E+01 0.  1.
         11    1    6    6    0    0 -0.12907796675E+02  0.27828424342E+02  0.59681546769E+02  0.67103796026E+02  0.00000000000E+00 0. -1.
        -12    1    6    6    0    0 -0.87559425029E+01 -0.55034714730E+02  0.13664322496E+03  0.14756983866E+03  0.00000000000E+00 0.  1.
<mgrwt>
<rscale>  2 0.18616486E+03</rscale>
<asrwt>0</asrwt>
<pdfrwt beam="1">  1       21 0.70213737E-01 0.18628589E+03</pdfrwt>
<pdfrwt beam="2">  1       21 0.16093496E-01 0.18628589E+03</pdfrwt>
<totfact> 0.63673568E+04</totfact>
</mgrwt>
</event>
<event>
12    1  0.1029207E-001  0.1972577E+03  0.7546771E-02  0.1152083E+00
         21   -1    0    0  503  502  0.00000000000E+00  0.00000000000E+00  0.73756011194E+03  0.73756011194E+03  0.00000000000E+00 0.  1.
         21   -1    0    0  501  503 -0.00000000000E+00 -0.00000000000E+00 -0.60462772942E+02  0.60462772942E+02  0.00000000000E+00 0.  1.
          6    2    1    2  501    0  0.45065469608E+02  0.80697498280E+02  0.19601526350E+03  0.27808733861E+03  0.17426302417E+03 0.  0.
         24    2    3    3    0    0 -0.23217613221E+01  0.95370048501E+02  0.18544574696E+03  0.22714974871E+03  0.90033585659E+02 0.  0.
         -6    2    1    2    0  502 -0.45065469608E+02 -0.80697498280E+02  0.48108207551E+03  0.51993554627E+03  0.17421258889E+03 0.  0.
        -24    2    5    5    0    0  0.19837767467E+02 -0.74918440171E+02  0.34989301125E+03  0.37338013601E+03  0.10479168361E+03 0.  0.
          5    1    3    3  501    0  0.47387230930E+02 -0.14672550220E+02  0.10569516538E+02  0.50937589902E+02  0.47000000000E+01 0. -1.
        -11    1    4    4    0    0 -0.40782188919E+02  0.62793744113E+02  0.14232474854E+03  0.16081845441E+03  0.00000000000E+00 0.  1.
         12    1    4    4    0    0  0.38460427596E+02  0.32576304388E+02  0.43120998422E+02  0.66331294299E+02  0.00000000000E+00 0. -1.
         -5    1    5    5    0  502 -0.64903237075E+02 -0.57790581092E+01  0.13118906426E+03  0.14655541026E+03  0.47000000000E+01 0.  1.
         11    1    6    6    0    0 -0.19280952605E+02 -0.13910155644E+02  0.99083719942E+01  0.25757006794E+02  0.00000000000E+00 0. -1.
        -12    1    6    6    0    0  0.39118720072E+02 -0.61008284527E+02  0.33998463925E+03  0.34762312922E+03  0.00000000000E+00 0.  1.
<mgrwt>
<rscale>  2 0.19724652E+03</rscale>
<asrwt>0</asrwt>
<pdfrwt beam="1">  1       21 0.11347078E+00 0.19725766E+03</pdfrwt>
<pdfrwt beam="2">  1       21 0.93019656E-02 0.19725766E+03</pdfrwt>
<totfact> 0.55702261E+04</totfact>
</mgrwt>
</event>
<event>
12    1  0.1029207E-001  0.1813042E+03  0.7546771E-02  0.1166655E+00
         21   -1    0    0  501  502  0.00000000000E+00  0.00000000000E+00  0.99451779492E+02  0.99451779492E+02  0.00000000000E+00 0.  1.
         21   -1    0    0  502  503 -0.00000000000E+00 -0.00000000000E+00 -0.33266390810E+03  0.33266390810E+03  0.00000000000E+00 0.  1.
         -6    2    1    2    0  503 -0.35529813157E+02  0.42925523900E+02 -0.96065344069E+02  0.20478229768E+03  0.17205310485E+03 0.  0.
        -24    2    3    3    0    0 -0.25445302408E+02  0.76543307788E+02 -0.11750980496E+03  0.16338413766E+03  0.79871652006E+02 0.  0.
          6    2    1    2  501    0  0.35529813157E+02 -0.42925523900E+02 -0.13714678453E+03  0.22733338990E+03  0.17252901620E+03 0.  0.
         24    2    5    5    0    0 -0.44676120284E+02 -0.34424263764E+02 -0.90436018701E+02  0.13401003362E+03  0.81234413728E+02 0.  0.
          5    1    5    5  501    0  0.80205933440E+02 -0.85012601357E+01 -0.46710765832E+02  0.93323356281E+02  0.47000000000E+01 0. -1.
        -11    1    6    6    0    0  0.76020534640E+01 -0.13583190393E+02 -0.73655516372E+02  0.75282331062E+02  0.00000000000E+00 0.  1.
         12    1    6    6    0    0 -0.52278173748E+02 -0.20841073371E+02 -0.16780502329E+02  0.58727702561E+02  0.00000000000E+00 0. -1.
         -5    1    3    3    0  503 -0.10084510749E+02 -0.33617783889E+02  0.21444460892E+02  0.41398160026E+02  0.47000000000E+01 0.  1.
         11    1    4    4    0    0  0.34410412588E+01  0.29470313146E+02 -0.10169517407E+03  0.10593511482E+03  0.00000000000E+00 0. -1.
        -12    1    4    4    0    0 -0.28886343667E+02  0.47072994642E+02 -0.15814630888E+02  0.57449022839E+02  0.00000000000E+00 0.  1.
<mgrwt>
<rscale>  2 0.18119094E+03</rscale>
<asrwt>0</asrwt>
<pdfrwt beam="1">  1       21 0.15300274E-01 0.18130425E+03</pdfrwt>
<pdfrwt beam="2">  1       21 0.51179063E-01 0.18130425E+03</pdfrwt>
<totfact> 0.13784843E+05</totfact>
</mgrwt>
</event>
<event>
12    1  0.1029207E-001  0.2062559E+03  0.7546771E-02  0.1144849E+00
         21   -1    0    0  501  502  0.00000000000E+00  0.00000000000E+00  0.18590015541E+04  0.18590015541E+04  0.00000000000E+00 0.  1.
         21   -1    0    0  502  503 -0.00000000000E+00 -0.00000000000E+00 -0.45497439142E+02  0.45497439142E+02  0.00000000000E+00 0.  1.
         -6    2    1    2    0  503 -0.26458666075E+01  0.11001520731E+03  0.23159973159E+03  0.30920498078E+03  0.17279739007E+03 0.  0.
        -24    2    3    3    0    0  0.23432502110E+02  0.12533848883E+03  0.11544902897E+03  0.18908853732E+03  0.78531380464E+02 0.  0.
          6    2    1    2  501    0  0.26458666075E+01 -0.11001520731E+03  0.15819043834E+04  0.15952940125E+04  0.17444529693E+03 0.  0.
         24    2    5    5    0    0 -0.39277315003E+02 -0.63372180012E+01  0.10204176088E+04  0.10227591518E+04  0.56580195232E+02 0.  0.
          5    1    5    5  501    0  0.41923181610E+02 -0.10367798931E+03  0.56148677460E+03  0.57253486066E+03  0.47000000000E+01 0. -1.
        -11    1    6    6    0    0 -0.12806036676E+02 -0.23456458888E+02  0.75549142975E+03  0.75596395447E+03  0.00000000000E+00 0.  1.
         12    1    6    6    0    0 -0.26471278327E+02  0.17119240886E+02  0.26492617905E+03  0.26679519736E+03  0.00000000000E+00 0. -1.
         -5    1    3    3    0  503 -0.26078368718E+02 -0.15323281515E+02  0.11615070262E+03  0.12011644346E+03  0.47000000000E+01 0.  1.
         13    1    4    4    0    0 -0.24007198413E+02  0.64600234824E+02  0.33619964170E+02  0.76680101106E+02  0.00000000000E+00 0. -1.
        -14    1    4    4    0    0  0.47439700523E+02  0.60738254005E+02  0.81829064799E+02  0.11240843621E+03  0.00000000000E+00 0.  1.
<mgrwt>
<rscale>  2 0.20590708E+03</rscale>
<asrwt>0</asrwt>
<pdfrwt beam="1">  1       21 0.28600018E+00 0.20625593E+03</pdfrwt>
<pdfrwt beam="2">  1       21 0.69996074E-02 0.20625593E+03</pdfrwt>
<totfact> 0.61270612E+03</totfact>
</mgrwt>
</event>
<event>
12    1  0.1029207E-001  0.2018776E+03  0.7546771E-02  0.1148244E+00
         21   -1    0    0  501  502  0.00000000000E+00  0.00000000000E+00  0.44954899114E+02  0.44954899114E+02  0.00000000000E+00 0.  1.
         21   -1    0    0  502  503 -0.00000000000E+00 -0.00000000000E+00 -0.91034958598E+03  0.91034958598E+03  0.00000000000E+00 0.  1.
         -6    2    1    2    0  503  0.76943023559E+02 -0.70898027654E+02 -0.47021439054E+03  0.51171879730E+03  0.17264934184E+03 0.  0.
        -24    2    3    3    0    0  0.28244263017E+02 -0.52517908301E+02 -0.11908158111E+03  0.15671775797E+03  0.82608496039E+02 0.  0.
          6    2    1    2  501    0 -0.76943023559E+02  0.70898027654E+02 -0.39518029633E+03  0.44358568780E+03  0.17220347446E+03 0.  0.
         24    2    5    5    0    0 -0.14911614962E+02  0.88269213290E+02 -0.33542941676E+03  0.35559755591E+03  0.76960495519E+02 0.  0.
          5    1    5    5  501    0 -0.62031408598E+02 -0.17371185637E+02 -0.59750879570E+02  0.87988131884E+02  0.47000000000E+01 0. -1.
        -13    1    6    6    0    0  0.26218698479E+02  0.97735687660E+01 -0.10650041105E+03  0.11011485072E+03  0.00000000000E+00 0.  1.
         14    1    6    6    0    0 -0.41130313441E+02  0.78495644524E+02 -0.22892900571E+03  0.24548270519E+03  0.00000000000E+00 0. -1.
         -5    1    3    3    0  503  0.48698760542E+02 -0.18380119353E+02 -0.35113280942E+03  0.35500103932E+03  0.47000000000E+01 0.  1.
         11    1    4    4    0    0  0.44639601835E+02 -0.25227437238E+02 -0.11329715715E+03  0.12435981449E+03  0.00000000000E+00 0. -1.
        -12    1    4    4    0    0 -0.16395338818E+02 -0.27290471062E+02 -0.57844239616E+01  0.32357943481E+02  0.00000000000E+00 0.  1.
<mgrwt>
<rscale>  2 0.20178221E+03</rscale>
<asrwt>0</asrwt>
<pdfrwt beam="1">  1       21 0.69161384E-02 0.20187757E+03</pdfrwt>
<pdfrwt beam="2">  1       21 0.14005378E+00 0.20187757E+03</pdfrwt>
<totfact> 0.54934077E+04</totfact>
</mgrwt>
</event>
<event>
12    1  0.1029207E-001  0.1820910E+03  0.7546771E-02  0.1166241E+00
         21   -1    0    0  503  502  0.00000000000E+00  0.00000000000E+00  0.11953764524E+03  0.11953764524E+03  0.00000000000E+00 0. -1.
         21   -1    0    0  501  503 -0.00000000000E+00 -0.00000000000E+00 -0.63547817735E+03  0.63547817735E+03  0.00000000000E+00 0. -1.
          6    2    1    2  501    0 -0.52542954016E+02  0.13027057667E+02 -0.54304424166E+03  0.57276015808E+03  0.17385822970E+03 0.  0.
         24    2    3    3    0    0 -0.85778093715E+01  0.12173980597E+02 -0.51274801076E+03  0.51915406430E+03  0.79928939184E+02 0.  0.
         -6    2    1    2    0  502  0.52542954016E+02 -0.13027057667E+02  0.27103709556E+02  0.18225566450E+03  0.17190709678E+03 0.  0.
        -24    2    5    5    0    0  0.20622412683E+02 -0.34196286710E+02 -0.46192386594E+02  0.99421704511E+02  0.78461894057E+02 0.  0.
          5    1    3    3  501    0 -0.43965144645E+02  0.85307706964E+00 -0.30296230901E+02  0.53606093785E+02  0.47000000000E+01 0. -1.
        -11    1    4    4    0    0 -0.15322459734E+02  0.39386633571E+02 -0.16675689008E+03  0.17202890764E+03  0.00000000000E+00 0.  1.
         12    1    4    4    0    0  0.67446503622E+01 -0.27212652973E+02 -0.34599112068E+03  0.34712515665E+03  0.00000000000E+00 0. -1.
         -5    1    5    5    0  502  0.31920541333E+02  0.21169229043E+02  0.73296096151E+02  0.82833959994E+02  0.47000000000E+01 0.  1.
         11    1    6    6    0    0  0.10122513142E+02  0.25495197939E+02 -0.14511197941E+02  0.31032970466E+02  0.00000000000E+00 0. -1.
        -12    1    6    6    0    0  0.10499899541E+02 -0.59691484648E+02 -0.31681188653E+02  0.68388734046E+02  0.00000000000E+00 0.  1.
<mgrwt>
<rscale>  2 0.18162376E+03</rscale>
<asrwt>0</asrwt>
<pdfrwt beam="1">  1       21 0.18390407E-01 0.18209105E+03</pdfrwt>
<pdfrwt beam="2">  1       21 0.97765874E-01 0.18209105E+03</pdfrwt>
<totfact> 0.23513206E+04</totfact>
</mgrwt>
</event>
<event>
12    1  0.1029207E-001  0.2003580E+03  0.7546771E-02  0.1149451E+00
         21   -1    0    0  503  502  0.00000000000E+00  0.00000000000E+00  0.13568546723E+03  0.13568546723E+03  0.00000000000E+00 0. -1.
         21   -1    0    0  501  503 -0.00000000000E+00 -0.00000000000E+00 -0.30134782430E+03  0.30134782430E+03  0.00000000000E+00 0. -1.
          6    2    1    2  501    0 -0.55575500985E+02  0.84386426397E+02 -0.11256996144E+03  0.22976024651E+03  0.17293949632E+03 0.  0.
         24    2    3    3    0    0 -0.68150572956E+02  0.11261981616E+03 -0.12168174242E+03  0.19719690385E+03  0.82173285598E+02 0.  0.
         -6    2    1    2    0  502  0.55575500985E+02 -0.84386426397E+02 -0.53092395624E+02  0.20727304501E+03  0.17301331581E+03 0.  0.
        -24    2    5    5    0    0  0.60623742657E+02 -0.93826052270E+02  0.14146273274E+02  0.13902555513E+03  0.81543986121E+02 0.  0.
          5    1    3    3  501    0  0.12575071971E+02 -0.28233389759E+02  0.91117809746E+01  0.32563342655E+02  0.47000000000E+01 0. -1.
        -13    1    4    4    0    0 -0.17452653867E+02  0.42085481365E+01 -0.59857062397E+02  0.62491398794E+02  0.00000000000E+00 0.  1.
         14    1    4    4    0    0 -0.50697919089E+02  0.10841126802E+03 -0.61824680022E+02  0.13470550506E+03  0.00000000000E+00 0. -1.
         -5    1    5    5    0  502 -0.50482416720E+01  0.94396258737E+01 -0.67238668898E+02  0.68247489887E+02  0.47000000000E+01 0.  1.
         11    1    6    6    0    0  0.38219040937E+01 -0.18280098102E+02  0.37299096749E+02  0.41713206012E+02  0.00000000000E+00 0. -1.
        -12    1    6    6    0    0  0.56801838564E+02 -0.75545954169E+02 -0.23152823475E+02  0.97312349115E+02  0.00000000000E+00 0.  1.
<mgrwt>
<rscale>  2 0.20034202E+03</rscale>
<asrwt>0</asrwt>
<pdfrwt beam="1">  1       21 0.20874687E-01 0.20035796E+03</pdfrwt>
<pdfrwt beam="2">  1       21 0.46361204E-01 0.20035796E+03</pdfrwt>
<totfact> 0.94655259E+04</totfact>
</mgrwt>
</event>
<event>
12    1  0.1029207E-001  0.3471064E+03  0.7546771E-02  0.1063868E+00
         21   -1    0    0  501  502  0.00000000000E+00  0.00000000000E+00  0.58511922160E+03  0.58511922160E+03  0.00000000000E+00 0.  1.
         21   -1    0    0  502  503 -0.00000000000E+00 -0.00000000000E+00 -0.69266742341E+03  0.69266742341E+03  0.00000000000E+00 0. -1.
         -6    2    1    2    0  503 -0.21171712132E+03  0.21223312623E+03 -0.58952345115E+03  0.68383127378E+03  0.17383978894E+03 0.  0.
        -24    2    3    3    0    0 -0.17173189802E+03  0.91363026830E+02 -0.43663912782E+03  0.48482347160E+03  0.81000143190E+02 0.  0.
          6    2    1    2  501    0  0.21171712132E+03 -0.21223312623E+03  0.48197524934E+03  0.59395537123E+03  0.17497372006E+03 0.  0.
         24    2    5    5    0    0  0.57499581312E+02 -0.59707303347E+02  0.25437300682E+03  0.27951611304E+03  0.80947309575E+02 0.  0.
          5    1    5    5  501    0  0.15421754001E+03 -0.15252582288E+03  0.22760224252E+03  0.31443925819E+03  0.47000000000E+01 0. -1.
        -13    1    6    6    0    0  0.62320750050E+02 -0.61548907911E+02  0.14077088459E+03  0.16579682114E+03  0.00000000000E+00 0.  1.
         14    1    6    6    0    0 -0.48211687382E+01  0.18416045643E+01  0.11360212223E+03  0.11371929190E+03  0.00000000000E+00 0. -1.
         -5    1    3    3    0  503 -0.39985223299E+02  0.12087009940E+03 -0.15288432333E+03  0.19900780219E+03  0.47000000000E+01 0.  1.
         13    1    4    4    0    0 -0.36932109778E+02  0.39729513635E+02 -0.20357312568E+03  0.21067613174E+03  0.00000000000E+00 0. -1.
        -14    1    4    4    0    0 -0.13479978825E+03  0.51633513195E+02 -0.23306600214E+03  0.27414733985E+03  0.00000000000E+00 0.  1.
<mgrwt>
<rscale>  2 0.34696374E+03</rscale>
<asrwt>0</asrwt>
<pdfrwt beam="1">  1       21 0.90018342E-01 0.34710638E+03</pdfrwt>
<pdfrwt beam="2">  1       21 0.10656422E+00 0.34710638E+03</pdfrwt>
<totfact> 0.65581052E+02</totfact>
</mgrwt>
</event>
<event>
12    1  0.1029207E-001  0.1801362E+03  0.7546771E-02  0.1167776E+00
         21   -1    0    0  503  502  0.00000000000E+00  0.00000000000E+00  0.12625148859E+03  0.12625148859E+03  0.00000000000E+00 0. -1.
         21   -1    0    0  501  503 -0.00000000000E+00 -0.00000000000E+00 -0.28155886668E+03  0.28155886668E+03  0.00000000000E+00 0. -1.
          6    2    1    2  501    0  0.47106857049E+02  0.68265851831E+01 -0.13852037574E+03  0.22689364171E+03  0.17328350153E+03 0.  0.
         24    2    3    3    0    0  0.68952881518E+02 -0.35901334830E+02 -0.42622806345E+02  0.11955605393E+03  0.80209355423E+02 0.  0.
         -6    2    1    2    0  502 -0.47106857049E+02 -0.68265851831E+01 -0.16787002353E+02  0.18091671356E+03  0.17373369147E+03 0.  0.
        -24    2    5    5    0    0 -0.10930138640E+02 -0.43292321670E+02 -0.63089314314E+02  0.11160222023E+03  0.80505285133E+02 0.  0.
          5    1    3    3  501    0 -0.21846024469E+02  0.42727920014E+02 -0.95897569399E+02  0.10733758778E+03  0.47000000000E+01 0. -1.
        -11    1    4    4    0    0  0.26796103471E+02  0.25138720699E+02 -0.20841924279E+02  0.42241830539E+02  0.00000000000E+00 0.  1.
         12    1    4    4    0    0  0.42156778046E+02 -0.61040055530E+02 -0.21780882066E+02  0.77314223387E+02  0.00000000000E+00 0. -1.
         -5    1    5    5    0  502 -0.36176718408E+02  0.36465736487E+02  0.46302311961E+02  0.69314493327E+02  0.47000000000E+01 0.  1.
         11    1    6    6    0    0 -0.16324573656E+02 -0.20596364966E+02  0.14891411957E+02  0.30206888369E+02  0.00000000000E+00 0. -1.
        -12    1    6    6    0    0  0.53944350155E+01 -0.22695956703E+02 -0.77980726270E+02  0.81395331865E+02  0.00000000000E+00 0.  1.
<mgrwt>
<rscale>  2 0.18002757E+03</rscale>
<asrwt>0</asrwt>
<pdfrwt beam="1">  1       21 0.19423306E-01 0.18013621E+03</pdfrwt>
<pdfrwt beam="2">  1       21 0.43316749E-01 0.18013621E+03</pdfrwt>
<totfact> 0.12544301E+05</totfact>
</mgrwt>
</event>
<event>
12    1  0.1029207E-001  0.2543323E+03  0.7546771E-02  0.1110898E+00
         21   -1    0    0  503  502  0.00000000000E+00  0.00000000000E+00  0.26831546042E+03  0.26831546042E+03  0.00000000000E+00 0. -1.
         21   -1    0    0  501  503 -0.00000000000E+00 -0.00000000000E+00 -0.62291322430E+03  0.62291322430E+03  0.00000000000E+00 0. -1.
          6    2    1    2  501    0 -0.15059250515E+03  0.10816596084E+03  0.17216293600E+03  0.30712374885E+03  0.17408889362E+03 0.  0.
         24    2    3    3    0    0 -0.75314566488E+02  0.62885067371E+02  0.17713559142E+03  0.21901049976E+03  0.83437195751E+02 0.  0.
         -6    2    1    2    0  502  0.15059250515E+03 -0.10816596084E+03 -0.52676069989E+03  0.58410493587E+03  0.17124182746E+03 0.  0.
        -24    2    5    5    0    0  0.16185669873E+03 -0.56586242711E+02 -0.33373030793E+03  0.38392958375E+03  0.81402782859E+02 0.  0.
          5    1    3    3  501    0 -0.75277938664E+02  0.45280893465E+02 -0.49726554189E+01  0.88113249086E+02  0.47000000000E+01 0. -1.
        -13    1    4    4    0    0 -0.54460022274E+02  0.78436929540E+01  0.13736302275E+03  0.14797302986E+03  0.00000000000E+00 0.  1.
         14    1    4    4    0    0 -0.20854544214E+02  0.55041374417E+02  0.39772568666E+02  0.71037469904E+02  0.00000000000E+00 0. -1.
         -5    1    5    5    0  502 -0.11264193578E+02 -0.51579718126E+02 -0.19303039196E+03  0.20017535212E+03  0.47000000000E+01 0.  1.
         11    1    6    6    0    0  0.46697379222E+02 -0.48273858564E+02 -0.75427994010E+02  0.10099699464E+03  0.00000000000E+00 0. -1.
        -12    1    6    6    0    0  0.11515931951E+03 -0.83123841468E+01 -0.25830231392E+03  0.28293258910E+03  0.00000000000E+00 0.  1.
<mgrwt>
<rscale>  2 0.25384584E+03</rscale>
<asrwt>0</asrwt>
<pdfrwt beam="1">  1       21 0.41279302E-01 0.25433230E+03</pdfrwt>
<pdfrwt beam="2">  1       21 0.95832804E-01 0.25433230E+03</pdfrwt>
<totfact> 0.49106676E+03</totfact>
</mgrwt>
</event>
<event>
12    1  0.1029207E-001  0.2209197E+03  0.7546771E-02  0.1133321E+00
         21   -1    0    0  501  502  0.00000000000E+00  0.00000000000E+00  0.39874292860E+03  0.39874292860E+03  0.00000000000E+00 0. -1.
         21   -1    0    0  502  503 -0.00000000000E+00 -0.00000000000E+00 -0.15933223133E+03  0.15933223133E+03  0.00000000000E+00 0. -1.
         -6    2    1    2    0  503  0.72322177712E+02 -0.11588701153E+03 -0.15161042950E+02  0.22143932807E+03  0.17362379435E+03 0.  0.
        -24    2    3    3    0    0  0.70233878507E+02 -0.70116544090E+02  0.53779386968E+02  0.13852871620E+03  0.80304765145E+02 0.  0.
          6    2    1    2  501    0 -0.72322177712E+02  0.11588701153E+03  0.25457174021E+03  0.33663583186E+03  0.17279066973E+03 0.  0.
         24    2    5    5    0    0 -0.87741677583E+02  0.92732972594E+02  0.12310973803E+03  0.20218056601E+03  0.97071970643E+02 0.  0.
          5    1    5    5  501    0  0.15419499871E+02  0.23154038941E+02  0.13146200218E+03  0.13445526584E+03  0.47000000000E+01 0. -1.
        -13    1    6    6    0    0  0.14590926863E+01  0.42114630090E+02  0.25299929654E+00  0.42140657657E+02  0.00000000000E+00 0.  1.
         14    1    6    6    0    0 -0.89200770270E+02  0.50618342504E+02  0.12285673873E+03  0.16003990836E+03  0.00000000000E+00 0. -1.
         -5    1    3    3    0  503  0.20882992057E+01 -0.45770467445E+02 -0.68940429917E+02  0.82910611871E+02  0.47000000000E+01 0.  1.
         13    1    4    4    0    0  0.71841991109E+02 -0.54504591493E+02  0.84658971765E+01  0.90574243554E+02  0.00000000000E+00 0. -1.
        -14    1    4    4    0    0 -0.16081126021E+01 -0.15611952597E+02  0.45313489791E+02  0.47954472649E+02  0.00000000000E+00 0.  1.
<mgrwt>
<rscale>  2 0.22075599E+03</rscale>
<asrwt>0</asrwt>
<pdfrwt beam="1">  1       21 0.61345066E-01 0.22091971E+03</pdfrwt>
<pdfrwt beam="2">  1       21 0.24512651E-01 0.22091971E+03</pdfrwt>
<totfact> 0.38298975E+04</totfact>
</mgrwt>
</event>
<event>
12    1  0.1029207E-001  0.2129253E+03  0.7546771E-02  0.1139771E+00
         21   -1    0    0  503  502  0.00000000000E+00  0.00000000000E+00  0.32362567017E+03  0.32362567017E+03  0.00000000000E+00 0.  1.
         21   -1    0    0  501  503 -0.00000000000E+00 -0.00000000000E+00 -0.17698819629E+03  0.17698819629E+03  0.00000000000E+00 0. -1.
          6    2    1    2  501    0 -0.11855540575E+03 -0.30005819558E+02 -0.43881064317E+02  0.21489638957E+03  0.17117002368E+03 0.  0.
         24    2    3    3    0    0 -0.12021658448E+03  0.23478580393E+02 -0.10408242475E+01  0.14618891747E+03  0.79792514407E+02 0.  0.
         -6    2    1    2    0  502  0.11855540575E+03  0.30005819558E+02  0.19051853819E+03  0.28571747688E+03  0.17430269579E+03 0.  0.
        -24    2    5    5    0    0  0.68802277470E+02 -0.28476982582E+02  0.17629983905E+03  0.20748785765E+03  0.80155385972E+02 0.  0.
          5    1    3    3  501    0  0.16611787298E+01 -0.53484399952E+02 -0.42840240069E+02  0.68707472098E+02  0.47000000000E+01 0. -1.
        -13    1    4    4    0    0 -0.76746114227E+01 -0.18046021604E+02  0.15631053530E+02  0.25077647232E+02  0.00000000000E+00 0.  1.
         14    1    4    4    0    0 -0.11254197306E+03  0.41524601998E+02 -0.16671877778E+02  0.12111127024E+03  0.00000000000E+00 0. -1.
         -5    1    5    5    0  502  0.49753128280E+02  0.58482802141E+02  0.14218699140E+02  0.78229619231E+02  0.47000000000E+01 0.  1.
         11    1    6    6    0    0 -0.18159258256E+02 -0.76758957589E+01  0.37808867653E+02  0.42640221731E+02  0.00000000000E+00 0. -1.
        -12    1    6    6    0    0  0.86961535726E+02 -0.20801086823E+02  0.13849097140E+03  0.16484763592E+03  0.00000000000E+00 0.  1.
<mgrwt>
<rscale>  2 0.21228317E+03</rscale>
<asrwt>0</asrwt>
<pdfrwt beam="1">  1       21 0.49788564E-01 0.21292525E+03</pdfrwt>
<pdfrwt beam="2">  1       21 0.27228953E-01 0.21292525E+03</pdfrwt>
<totfact> 0.48948516E+04</totfact>
</mgrwt>
</event>
<event>
12    1  0.1029207E-001  0.2129248E+03  0.7546771E-02  0.1139467E+00
         21   -1    0    0  503  502  0.00000000000E+00  0.00000000000E+00  0.48265446532E+03  0.48265446532E+03  0.00000000000E+00 0.  1.
         21   -1    0    0  501  503 -0.00000000000E+00 -0.00000000000E+00 -0.37273849838E+03  0.37273849838E+03  0.00000000000E+00 0. -1.
          6    2    1    2  501    0  0.11025401121E+03 -0.54788647588E+02 -0.31526864459E+03  0.37987332019E+03  0.17248674801E+03 0.  0.
         24    2    3    3    0    0  0.45278228399E+02 -0.85152407851E+01 -0.27645142966E+03  0.29103669090E+03  0.78449571029E+02 0.  0.
         -6    2    1    2    0  502 -0.11025401121E+03  0.54788647588E+02  0.42518461152E+03  0.47551964351E+03  0.17372171597E+03 0.  0.
        -24    2    5    5    0    0 -0.33663920703E+02  0.28815726594E+02  0.36066238340E+03  0.37195400003E+03  0.79428066077E+02 0.  0.
          5    1    3    3  501    0  0.64975782811E+02 -0.46273406803E+02 -0.38817214924E+02  0.88836629289E+02  0.47000000000E+01 0. -1.
        -13    1    4    4    0    0 -0.90763972799E+01  0.84438786925E+01 -0.44996159620E+01  0.13188124156E+02  0.00000000000E+00 0.  1.
         14    1    4    4    0    0  0.54354625679E+02 -0.16959119478E+02 -0.27195181370E+03  0.27784856674E+03  0.00000000000E+00 0. -1.
         -5    1    5    5    0  502 -0.76590090507E+02  0.25972920994E+02  0.64522228122E+02  0.10356564349E+03  0.47000000000E+01 0.  1.
         13    1    6    6    0    0 -0.33255823669E+02 -0.70150001404E+01  0.58361807411E+02  0.67537105351E+02  0.00000000000E+00 0. -1.
        -14    1    6    6    0    0 -0.40809703342E+00  0.35830726734E+02  0.30230057599E+03  0.30441689468E+03  0.00000000000E+00 0.  1.
<mgrwt>
<rscale>  2 0.21267277E+03</rscale>
<asrwt>0</asrwt>
<pdfrwt beam="1">  1       21 0.74254533E-01 0.21292482E+03</pdfrwt>
<pdfrwt beam="2">  1       21 0.57344384E-01 0.21292482E+03</pdfrwt>
<totfact> 0.45686349E+03</totfact>
</mgrwt>
</event>
<event>
12    1  0.1029207E-001  0.1908343E+03  0.7546771E-02  0.1158011E+00
         21   -1    0    0  503  502  0.00000000000E+00  0.00000000000E+00  0.23907114105E+03  0.23907114105E+03  0.00000000000E+00 0.  1.
         21   -1    0    0  501  503 -0.00000000000E+00 -0.00000000000E+00 -0.15197007581E+03  0.15197007581E+03  0.00000000000E+00 0. -1.
          6    2    1    2  501    0  0.67645012390E+02 -0.41265512911E+02  0.56692044217E+02  0.19779928754E+03  0.17213912982E+03 0.  0.
         24    2    3    3    0    0  0.59704921952E+02  0.39197015615E+02  0.29764058759E+02  0.11245018131E+03  0.81596938325E+02 0.  0.
         -6    2    1    2    0  502 -0.67645012390E+02  0.41265512911E+02  0.30409021022E+02  0.19324192932E+03  0.17360600344E+03 0.  0.
        -24    2    5    5    0    0 -0.82455521125E+02  0.18177228046E+02 -0.35728302922E+02  0.12148779574E+03  0.79708520884E+02 0.  0.
          5    1    3    3  501    0  0.79400904380E+01 -0.80462528526E+02  0.26927985458E+02  0.85349106228E+02  0.47000000000E+01 0. -1.
        -11    1    4    4    0    0  0.45669417171E+02  0.62656246237E+01  0.52637363700E+02  0.69968891473E+02  0.00000000000E+00 0.  1.
         12    1    4    4    0    0  0.14035504781E+02  0.32931390991E+02 -0.22873304942E+02  0.42481289835E+02  0.00000000000E+00 0. -1.
         -5    1    5    5    0  502  0.14810508735E+02  0.23088284865E+02  0.66137323944E+02  0.71754133578E+02  0.47000000000E+01 0.  1.
         13    1    6    6    0    0 -0.49998517980E+02  0.19356308451E+02 -0.60354283558E+02  0.80728916882E+02  0.00000000000E+00 0. -1.
        -14    1    6    6    0    0 -0.32457003144E+02 -0.11790804055E+01  0.24625980636E+02  0.40758878861E+02  0.00000000000E+00 0.  1.
<mgrwt>
<rscale>  2 0.19050007E+03</rscale>
<asrwt>0</asrwt>
<pdfrwt beam="1">  1       21 0.36780175E-01 0.19083431E+03</pdfrwt>
<pdfrwt beam="2">  1       21 0.23380012E-01 0.19083431E+03</pdfrwt>
<totfact> 0.12274715E+05</totfact>
</mgrwt>
</event>
<event>
12    1  0.1029207E-001  0.2549741E+03  0.7546771E-02  0.1110282E+00
         21   -1    0    0  501  502  0.00000000000E+00  0.00000000000E+00  0.10141983179E+03  0.10141983179E+03  0.00000000000E+00 0.  1.
         21   -1    0    0  502  503 -0.00000000000E+00 -0.00000000000E+00 -0.20190872810E+04  0.20190872810E+04  0.00000000000E+00 0. -1.
         -6    2    1    2    0  503  0.18368043922E+03 -0.39028755429E+02 -0.18348662058E+04  0.18524253750E+04  0.17170914142E+03 0.  0.
        -24    2    3    3    0    0  0.57354392061E+02  0.35852210000E+02 -0.61428146280E+03  0.62302933058E+03  0.79050135857E+02 0.  0.
          6    2    1    2  501    0 -0.18368043922E+03  0.39028755429E+02 -0.82801243324E+02  0.26808173771E+03  0.17248195469E+03 0.  0.
         24    2    5    5    0    0 -0.17951642142E+03  0.44532129498E+02 -0.16154949015E+02  0.20091444868E+03  0.76787871398E+02 0.  0.
          5    1    5    5  501    0 -0.41640178042E+01 -0.55033740691E+01 -0.66646294309E+02  0.67167289029E+02  0.47000000000E+01 0. -1.
        -13    1    6    6    0    0 -0.39495432139E+02  0.15905777543E+02 -0.37095912629E+02  0.56471140000E+02  0.00000000000E+00 0.  1.
         14    1    6    6    0    0 -0.14002098928E+03  0.28626351955E+02  0.20940963614E+02  0.14444330868E+03  0.00000000000E+00 0. -1.
         -5    1    3    3    0  503  0.12632604716E+03 -0.74880965429E+02 -0.12205847430E+04  0.12293960445E+04  0.47000000000E+01 0.  1.
         13    1    4    4    0    0  0.63095209888E+02  0.28975661039E+02 -0.60831927850E+03  0.61226868206E+03  0.00000000000E+00 0. -1.
        -14    1    4    4    0    0 -0.57408178271E+01  0.68765489609E+01 -0.59621843001E+01  0.10760648520E+02  0.00000000000E+00 0.  1.
<mgrwt>
<rscale>  2 0.25484342E+03</rscale>
<asrwt>0</asrwt>
<pdfrwt beam="1">  1       21 0.15603051E-01 0.25497406E+03</pdfrwt>
<pdfrwt beam="2">  1       21 0.31062882E+00 0.25497406E+03</pdfrwt>
<totfact> 0.10047073E+03</totfact>
</mgrwt>
</event>
<event>
12    1  0.1029207E-001  0.1802794E+03  0.7546771E-02  0.1167731E+00
         21   -1    0    0  501  502  0.00000000000E+00  0.00000000000E+00  0.44106992182E+03  0.44106992182E+03  0.00000000000E+00 0.  1.
         21   -1    0    0  502  503 -0.00000000000E+00 -0.00000000000E+00 -0.10563685458E+03  0.10563685458E+03  0.00000000000E+00 0.  1.
         -6    2    1    2    0  503  0.39520465145E+02 -0.26487356147E+02  0.16332964784E+02  0.18020228999E+03  0.17303945324E+03 0.  0.
        -24    2    3    3    0    0  0.50038106751E+02  0.24102747411E+02  0.57482877058E+02  0.11398005321E+03  0.81255257156E+02 0.  0.
          6    2    1    2  501    0 -0.39520465145E+02  0.26487356147E+02  0.31910010246E+03  0.36650448642E+03  0.17388851595E+03 0.  0.
         24    2    5    5    0    0  0.39032998112E+02  0.45752823069E+02  0.19723823808E+03  0.22016854143E+03  0.77164553501E+02 0.  0.
          5    1    5    5  501    0 -0.78553463258E+02 -0.19265466922E+02  0.12186186438E+03  0.14633594499E+03  0.47000000000E+01 0. -1.
        -11    1    6    6    0    0  0.19267105294E+02  0.63879225173E+02  0.10763260376E+03  0.12663551693E+03  0.00000000000E+00 0.  1.
         12    1    6    6    0    0  0.19765892819E+02 -0.18126402104E+02  0.89605634317E+02  0.93533024508E+02  0.00000000000E+00 0. -1.
         -5    1    3    3    0  503 -0.10517641606E+02 -0.50590103558E+02 -0.41149912274E+02  0.66222236772E+02  0.47000000000E+01 0.  1.
         11    1    4    4    0    0  0.54594642724E+02 -0.43524661179E+01  0.61509753100E+01  0.55112189874E+02  0.00000000000E+00 0. -1.
        -12    1    4    4    0    0 -0.45565359721E+01  0.28455213529E+02  0.51331901748E+02  0.58867863339E+02  0.00000000000E+00 0.  1.
<mgrwt>
<rscale>  2 0.18007435E+03</rscale>
<asrwt>0</asrwt>
<pdfrwt beam="1">  1       21 0.67856910E-01 0.18027940E+03</pdfrwt>
<pdfrwt beam="2">  1       21 0.16251824E-01 0.18027940E+03</pdfrwt>
<totfact> 0.67593497E+04</totfact>
</mgrwt>
</event>
<event>
12    1  0.1029207E-001  0.2029037E+03  0.7546771E-02  0.1147869E+00
         21   -1    0    0  501  502  0.00000000000E+00  0.00000000000E+00  0.36747028912E+03  0.36747028912E+03  0.00000000000E+00 0. -1.
         21   -1    0    0  502  503 -0.00000000000E+00 -0.00000000000E+00 -0.13131492250E+03  0.13131492250E+03  0.00000000000E+00 0. -1.
         -6    2    1    2    0  503  0.95338773328E+02  0.37266545775E+02  0.18288772234E+02  0.20106762214E+03  0.17209134885E+03 0.  0.
        -24    2    3    3    0    0  0.92465588953E+02  0.33846369320E+02 -0.46763065924E+02  0.13569343424E+03  0.80811273379E+02 0.  0.
          6    2    1    2  501    0 -0.95338773328E+02 -0.37266545775E+02  0.21786659439E+03  0.29771758948E+03  0.17519027656E+03 0.  0.
         24    2    5    5    0    0 -0.12445741334E+02 -0.61050321680E+02  0.17293172889E+03  0.20036177359E+03  0.79733425896E+02 0.  0.
          5    1    5    5  501    0 -0.82893031994E+02  0.23783775905E+02  0.44934865498E+02  0.97355815886E+02  0.47000000000E+01 0. -1.
        -11    1    6    6    0    0 -0.24600224890E+02  0.22765126330E+01  0.10002268132E+03  0.10302858998E+03  0.00000000000E+00 0.  1.
         12    1    6    6    0    0  0.12154483556E+02 -0.63326834313E+02  0.72909047569E+02  0.97333183612E+02  0.00000000000E+00 0. -1.
         -5    1    3    3    0  503  0.28731843748E+01  0.34201764550E+01  0.65051838157E+02  0.65374187896E+02  0.47000000000E+01 0.  1.
         11    1    4    4    0    0  0.10142075358E+03  0.34290256245E+02 -0.21919671957E+02  0.10928157643E+03  0.00000000000E+00 0. -1.
        -12    1    4    4    0    0 -0.89551646235E+01 -0.44388692423E+00 -0.24843393966E+02  0.26411857807E+02  0.00000000000E+00 0.  1.
<mgrwt>
<rscale>  2 0.20223299E+03</rscale>
<asrwt>0</asrwt>
<pdfrwt beam="1">  1       21 0.56533890E-01 0.20290370E+03</pdfrwt>
<pdfrwt beam="2">  1       21 0.20202296E-01 0.20290370E+03</pdfrwt>
<totfact> 0.66344677E+04</totfact>
</mgrwt>
</event>
<event>
12    1  0.1029207E-001  0.1822025E+03  0.7546771E-02  0.1165921E+00
         21   -1    0    0  501  502  0.00000000000E+00  0.00000000000E+00  0.49186484059E+02  0.49186484059E+02  0.00000000000E+00 0.  1.
         21   -1    0    0  502  503 -0.00000000000E+00 -0.00000000000E+00 -0.78254308591E+03  0.78254308591E+03  0.00000000000E+00 0.  1.
         -6    2    1    2    0  503 -0.50846760377E+02  0.26525929046E+02 -0.52428761391E+03  0.55504528110E+03  0.17294144681E+03 0.  0.
        -24    2    3    3    0    0 -0.51135036762E+02  0.81005077614E+02 -0.40242522916E+03  0.42147660383E+03  0.80745575284E+02 0.  0.
          6    2    1    2  501    0  0.50846760377E+02 -0.26525929046E+02 -0.20906898794E+03  0.27668428887E+03  0.17191665432E+03 0.  0.
         24    2    5    5    0    0  0.86749303473E+02 -0.38531685550E+02 -0.94038317059E+02  0.15549321645E+03  0.79528629070E+02 0.  0.
          5    1    5    5  501    0 -0.35902543095E+02  0.12005756504E+02 -0.11503067088E+03  0.12119107242E+03  0.47000000000E+01 0. -1.
        -11    1    6    6    0    0  0.99277799644E+02 -0.30117405489E+02 -0.94586546013E+02  0.14039143244E+03  0.00000000000E+00 0.  1.
         12    1    6    6    0    0 -0.12528496171E+02 -0.84142800617E+01  0.54822895422E+00  0.15101784009E+02  0.00000000000E+00 0. -1.
         -5    1    3    3    0  503  0.28827638427E+00 -0.54479148567E+02 -0.12186238475E+03  0.13356867727E+03  0.47000000000E+01 0.  1.
         13    1    4    4    0    0  0.12447618042E+02 -0.58554239375E+01 -0.20623701430E+02  0.24790446650E+02  0.00000000000E+00 0. -1.
        -14    1    4    4    0    0 -0.63582654804E+02  0.86860501551E+02 -0.38180152773E+03  0.39668615718E+03  0.00000000000E+00 0.  1.
<mgrwt>
<rscale>  2 0.18195894E+03</rscale>
<asrwt>0</asrwt>
<pdfrwt beam="1">  1       21 0.75671517E-02 0.18220253E+03</pdfrwt>
<pdfrwt beam="2">  1       21 0.12039124E+00 0.18220253E+03</pdfrwt>
<totfact> 0.69589709E+04</totfact>
</mgrwt>
</event>
<event>
12    1  0.1029207E-001  0.1924082E+03  0.7546771E-02  0.1156308E+00
         21   -1    0    0  501  502  0.00000000000E+00  0.00000000000E+00  0.11395722876E+03  0.11395722876E+03  0.00000000000E+00 0.  1.
         21   -1    0    0  502  503 -0.00000000000E+00 -0.00000000000E+00 -0.60186380003E+03  0.60186380003E+03  0.00000000000E+00 0.  1.
         -6    2    1    2    0  503 -0.22806547195E+02 -0.81125881706E+02 -0.48676342225E+03  0.52340947440E+03  0.17296618566E+03 0.  0.
        -24    2    3    3    0    0  0.16159709098E+02 -0.23364265786E+01 -0.35977674737E+03  0.36889781477E+03  0.79872991068E+02 0.  0.
          6    2    1    2  501    0  0.22806547195E+02  0.81125881706E+02 -0.11431490224E+01  0.19241155438E+03  0.17297211392E+03 0.  0.
         24    2    5    5    0    0  0.45745288612E+02  0.65419494878E+02  0.57831239195E+02  0.12704378778E+03  0.80145680148E+02 0.  0.
          5    1    5    5  501    0 -0.22938741417E+02  0.15706386829E+02 -0.58974388217E+02  0.65367766603E+02  0.47000000000E+01 0. -1.
        -11    1    6    6    0    0  0.43403556988E+02  0.42194439632E+02 -0.42868678268E+01  0.60684567485E+02  0.00000000000E+00 0.  1.
         12    1    6    6    0    0  0.23417316240E+01  0.23225055246E+02  0.62118107022E+02  0.66359220295E+02  0.00000000000E+00 0. -1.
         -5    1    3    3    0  503 -0.38966256293E+02 -0.78789455128E+02 -0.12698667487E+03  0.15451165964E+03  0.47000000000E+01 0.  1.
         13    1    4    4    0    0 -0.26032440506E+02  0.15220149770E+02 -0.21432320337E+03  0.21643423116E+03  0.00000000000E+00 0. -1.
        -14    1    4    4    0    0  0.42192149604E+02 -0.17556576349E+02 -0.14545354400E+03  0.15246358360E+03  0.00000000000E+00 0.  1.
<mgrwt>
<rscale>  2 0.19240683E+03</rscale>
<asrwt>0</asrwt>
<pdfrwt beam="1">  1       21 0.17531881E-01 0.19240816E+03</pdfrwt>
<pdfrwt beam="2">  1       21 0.92594431E-01 0.19240816E+03</pdfrwt>
<totfact> 0.28995327E+04</totfact>
</mgrwt>
</event>
<event>
12    1  0.1029207E-001  0.1797905E+03  0.7546771E-02  0.1168215E+00
         21   -1    0    0  503  502  0.00000000000E+00  0.00000000000E+00  0.30708455075E+03  0.30708455075E+03  0.00000000000E+00 0. -1.
         21   -1    0    0  501  503 -0.00000000000E+00 -0.00000000000E+00 -0.14381045716E+03  0.14381045716E+03  0.00000000000E+00 0. -1.
          6    2    1    2  501    0  0.30127440420E+02 -0.30026303273E+02 -0.35700274992E+02  0.18330069524E+03  0.17468655841E+03 0.  0.
         24    2    3    3    0    0 -0.83826050968E+01 -0.37827773260E+02  0.39209270373E+02  0.98581060410E+02  0.81729126328E+02 0.  0.
         -6    2    1    2    0  502 -0.30127440420E+02  0.30026303273E+02  0.19897436858E+03  0.26759431267E+03  0.17380067683E+03 0.  0.
        -24    2    5    5    0    0  0.25843891467E+02  0.62443733786E+02  0.16331724475E+03  0.19358620316E+03  0.78968151833E+02 0.  0.
          5    1    3    3  501    0  0.38510045516E+02  0.78014699873E+01 -0.74909545365E+02  0.84719634834E+02  0.47000000000E+01 0. -1.
        -13    1    4    4    0    0 -0.59602128141E+01  0.25613883235E+02  0.17029030143E+02  0.31330225323E+02  0.00000000000E+00 0.  1.
         14    1    4    4    0    0 -0.24223922827E+01 -0.63441656495E+02  0.22180240230E+02  0.67250835087E+02  0.00000000000E+00 0. -1.
         -5    1    5    5    0  502 -0.55971331886E+02 -0.32417430513E+02  0.35657123828E+02  0.74008109514E+02  0.47000000000E+01 0.  1.
         11    1    6    6    0    0  0.32853501567E+02 -0.13089351749E+01  0.91860164191E+02  0.97567185271E+02  0.00000000000E+00 0. -1.
        -12    1    6    6    0    0 -0.70096101000E+01  0.63752668961E+02  0.71457080560E+02  0.96019017884E+02  0.00000000000E+00 0.  1.
<mgrwt>
<rscale>  2 0.17957499E+03</rscale>
<asrwt>0</asrwt>
<pdfrwt beam="1">  1       21 0.47243777E-01 0.17979053E+03</pdfrwt>
<pdfrwt beam="2">  1       21 0.22124686E-01 0.17979053E+03</pdfrwt>
<totfact> 0.82293299E+04</totfact>
</mgrwt>
</event>
<event>
12    1  0.1029207E-001  0.1928147E+03  0.7546771E-02  0.1156865E+00
         21   -1    0    0  503  502  0.00000000000E+00  0.00000000000E+00  0.13004880969E+04  0.13004880969E+04  0.00000000000E+00 0. -1.
         21   -1    0    0  501  503 -0.00000000000E+00 -0.00000000000E+00 -0.28130677017E+02  0.28130677017E+02  0.00000000000E+00 0. -1.
          6    2    1    2  501    0 -0.21730904384E+02 -0.71760800844E+02  0.58117621032E+03  0.61104720639E+03  0.17317926045E+03 0.  0.
         24    2    3    3    0    0 -0.10078624596E+02 -0.19633444642E+02  0.53013801725E+03  0.53702002192E+03  0.82807824413E+02 0.  0.
         -6    2    1    2    0  502  0.21730904384E+02  0.71760800844E+02  0.69118120954E+03  0.71757156751E+03  0.17763908728E+03 0.  0.
        -24    2    5    5    0    0  0.46459057689E+02 -0.43594961393E+01  0.52424428716E+03  0.53238029549E+03  0.80120266812E+02 0.  0.
          5    1    3    3  501    0 -0.11652279788E+02 -0.52127356202E+02  0.51038193070E+02  0.74027184471E+02  0.47000000000E+01 0. -1.
        -11    1    4    4    0    0  0.18987552920E+02  0.22655633074E+02  0.11566735453E+03  0.11938484736E+03  0.00000000000E+00 0.  1.
         12    1    4    4    0    0 -0.29066177516E+02 -0.42289077716E+02  0.41447066272E+03  0.41763517456E+03  0.00000000000E+00 0. -1.
         -5    1    5    5    0  502 -0.24728153305E+02  0.76120296983E+02  0.16693692238E+03  0.18519127202E+03  0.47000000000E+01 0.  1.
         13    1    6    6    0    0  0.57232416361E+02 -0.93417892973E+01  0.20853156226E+03  0.21644452169E+03  0.00000000000E+00 0. -1.
        -14    1    6    6    0    0 -0.10773358672E+02  0.49822931581E+01  0.31571272490E+03  0.31593577380E+03  0.00000000000E+00 0.  1.
<mgrwt>
<rscale>  2 0.19178116E+03</rscale>
<asrwt>0</asrwt>
<pdfrwt beam="1">  1       21 0.20007504E+00 0.19281465E+03</pdfrwt>
<pdfrwt beam="2">  1       21 0.43277975E-02 0.19281465E+03</pdfrwt>
<totfact> 0.46038631E+04</totfact>
</mgrwt>
</event>
<event>
12    1  0.1029207E-001  0.2281884E+03  0.7546771E-02  0.1128186E+00
         21   -1    0    0  501  502  0.00000000000E+00  0.00000000000E+00  0.68974411888E+03  0.68974411888E+03  0.00000000000E+00 0. -1.
         21   -1    0    0  502  503 -0.00000000000E+00 -0.00000000000E+00 -0.80360344380E+02  0.80360344380E+02  0.00000000000E+00 0.  1.
         -6    2    1    2    0  503 -0.12574430253E+03  0.79664903881E+02  0.20619182154E+03  0.30754680002E+03  0.17295039868E+03 0.  0.
        -24    2    3    3    0    0 -0.91935046236E+02  0.96617519370E+02  0.21766158143E+03  0.26774601643E+03  0.80773556990E+02 0.  0.
          6    2    1    2  501    0  0.12574430253E+03 -0.79664903881E+02  0.40319195295E+03  0.46255766324E+03  0.17099039261E+03 0.  0.
         24    2    5    5    0    0  0.13285300139E+03 -0.11170822717E+03  0.31641952091E+03  0.36966604289E+03  0.80018885640E+02 0.  0.
          5    1    5    5  501    0 -0.71086988627E+01  0.32043323293E+02  0.86772432045E+02  0.92891620345E+02  0.47000000000E+01 0. -1.
        -13    1    6    6    0    0 -0.55513559708E+01 -0.10648112391E+02  0.28808085238E+01  0.12349044836E+02  0.00000000000E+00 0.  1.
         14    1    6    6    0    0  0.13840435736E+03 -0.10106011478E+03  0.31353871238E+03  0.35731699806E+03  0.00000000000E+00 0. -1.
         -5    1    3    3    0  503 -0.33809256289E+02 -0.16952615489E+02 -0.11469759883E+02  0.39800783592E+02  0.47000000000E+01 0.  1.
         13    1    4    4    0    0 -0.59354967751E+02  0.44978979860E+02  0.18291453034E+03  0.19749391442E+03  0.00000000000E+00 0. -1.
        -14    1    4    4    0    0 -0.32580078485E+02  0.51638539510E+02  0.34747051091E+02  0.70252102007E+02  0.00000000000E+00 0.  1.
<mgrwt>
<rscale>  2 0.22781706E+03</rscale>
<asrwt>0</asrwt>
<pdfrwt beam="1">  1       21 0.10611448E+00 0.22818845E+03</pdfrwt>
<pdfrwt beam="2">  1       21 0.12363130E-01 0.22818845E+03</pdfrwt>
<totfact> 0.38896567E+04</totfact>
</mgrwt>
</event>
<event>
12    1  0.1029207E-001  0.1913759E+03  0.7546771E-02  0.1157239E+00
         21   -1    0    0  503  502  0.00000000000E+00  0.00000000000E+00  0.17930688446E+03  0.17930688446E+03  0.00000000000E+00 0.  1.
         21   -1    0    0  501  503 -0.00000000000E+00 -0.00000000000E+00 -0.26916992189E+03  0.26916992189E+03  0.00000000000E+00 0. -1.
          6    2    1    2  501    0 -0.42689850465E+02  0.68460747956E+02 -0.15509564819E+03  0.24628866821E+03  0.17347665738E+03 0.  0.
         24    2    3    3    0    0  0.26937961412E+02  0.40084468120E+01 -0.11408315904E+03  0.14281767915E+03  0.81487427814E+02 0.  0.
         -6    2    1    2    0  502  0.42689850465E+02 -0.68460747956E+02  0.65232610759E+02  0.20218813814E+03  0.17353804296E+03 0.  0.
        -24    2    5    5    0    0 -0.80344938802E+01 -0.60763125281E+02 -0.17735033172E+02  0.10452579922E+03  0.82791308812E+02 0.  0.
          5    1    3    3  501    0 -0.69627811878E+02  0.64452301144E+02 -0.41012489157E+02  0.10347098906E+03  0.47000000000E+01 0. -1.
        -11    1    4    4    0    0 -0.48022626571E+00 -0.34677367610E+02 -0.28136959089E+02  0.44659141376E+02  0.00000000000E+00 0.  1.
         12    1    4    4    0    0  0.27418187678E+02  0.38685814422E+02 -0.85946199948E+02  0.98158537777E+02  0.00000000000E+00 0. -1.
         -5    1    5    5    0  502  0.50724344346E+02 -0.76976226752E+01  0.82967643931E+02  0.97662338921E+02  0.47000000000E+01 0.  1.
         13    1    6    6    0    0  0.16579220491E+02 -0.72088755349E+02 -0.21827917660E+02  0.77124037687E+02  0.00000000000E+00 0. -1.
        -14    1    6    6    0    0 -0.24613714371E+02  0.11325630068E+02  0.40928844876E+01  0.27401761531E+02  0.00000000000E+00 0.  1.
<mgrwt>
<rscale>  2 0.19136202E+03</rscale>
<asrwt>0</asrwt>
<pdfrwt beam="1">  1       21 0.27585674E-01 0.19137594E+03</pdfrwt>
<pdfrwt beam="2">  1       21 0.41410757E-01 0.19137594E+03</pdfrwt>
<totfact> 0.70452826E+04</totfact>
</mgrwt>
</event>
<event>
12    1  0.1029207E-001  0.2313755E+03  0.7546771E-02  0.1125867E+00
         21   -1    0    0  501  502  0.00000000000E+00  0.00000000000E+00  0.94109931228E+02  0.94109931228E+02  0.00000000000E+00 0.  1.
         21   -1    0    0  502  503 -0.00000000000E+00 -0.00000000000E+00 -0.72100041083E+03  0.72100041083E+03  0.00000000000E+00 0.  1.
         -6    2    1    2    0  503 -0.14812157954E+03 -0.39826383221E+02 -0.12516082584E+03  0.26305861814E+03  0.17322950420E+03 0.  0.
        -24    2    3    3    0    0 -0.17738219152E+03 -0.29693847885E+02 -0.95652481677E+02  0.22002741945E+03  0.83165507203E+02 0.  0.
          6    2    1    2  501    0  0.14812157954E+03  0.39826383221E+02 -0.50172965376E+03  0.55205172392E+03  0.17176238614E+03 0.  0.
         24    2    5    5    0    0  0.14278633516E+03  0.27932475260E+02 -0.50969848139E+03  0.53606666549E+03  0.80042284063E+02 0.  0.
          5    1    5    5  501    0  0.53352443763E+01  0.11893907961E+02  0.79688276281E+01  0.15985058427E+02  0.47000000000E+01 0. -1.
        -11    1    6    6    0    0  0.97779073280E+02 -0.20538075998E+02 -0.30639194096E+03  0.32227097484E+03  0.00000000000E+00 0.  1.
         12    1    6    6    0    0  0.45007261883E+02  0.48470551258E+02 -0.20330654043E+03  0.21379569065E+03  0.00000000000E+00 0. -1.
         -5    1    3    3    0  503  0.29260611976E+02 -0.10132535336E+02 -0.29508344160E+02  0.43031198689E+02  0.47000000000E+01 0.  1.
         11    1    4    4    0    0 -0.20366642437E+02 -0.29942676868E+02 -0.38703529113E+02  0.53003086589E+02  0.00000000000E+00 0. -1.
        -12    1    4    4    0    0 -0.15701554908E+03  0.24882898340E+00 -0.56948952564E+02  0.16702433286E+03  0.00000000000E+00 0.  1.
<mgrwt>
<rscale>  2 0.23110088E+03</rscale>
<asrwt>0</asrwt>
<pdfrwt beam="1">  1       21 0.14478451E-01 0.23137546E+03</pdfrwt>
<pdfrwt beam="2">  1       21 0.11092314E+00 0.23137546E+03</pdfrwt>
<totfact> 0.26194003E+04</totfact>
</mgrwt>
</event>
<event>
12    1  0.1029207E-001  0.2225648E+03  0.7546771E-02  0.1134499E+00
         21   -1    0    0  503  502  0.00000000000E+00  0.00000000000E+00  0.27987987850E+03  0.27987987850E+03  0.00000000000E+00 0. -1.
         21   -1    0    0  501  503 -0.00000000000E+00 -0.00000000000E+00 -0.21812365623E+03  0.21812365623E+03  0.00000000000E+00 0.  1.
          6    2    1    2  501    0  0.21109525750E+01  0.11786421671E+03 -0.90811134738E+02  0.22816672517E+03  0.17296520628E+03 0.  0.
         24    2    3    3    0    0 -0.33239240142E+02  0.93207315458E+02 -0.12103013237E+03  0.17531905046E+03  0.79347500103E+02 0.  0.
         -6    2    1    2    0  502 -0.21109525750E+01 -0.11786421671E+03  0.15256735701E+03  0.26983680956E+03  0.18878208514E+03 0.  0.
        -24    2    5    5    0    0 -0.23122403701E+02 -0.10968080968E+03  0.25096140027E+02  0.14030129170E+03  0.80561222953E+02 0.  0.
          5    1    3    3  501    0  0.35350192717E+02  0.24656901249E+02  0.30218997636E+02  0.52847674712E+02  0.47000000000E+01 0. -1.
        -11    1    4    4    0    0 -0.94392269944E+01  0.20545273379E+02 -0.90008919833E+02  0.92805241845E+02  0.00000000000E+00 0.  1.
         12    1    4    4    0    0 -0.23800013147E+02  0.72662042079E+02 -0.31021212540E+02  0.82513808617E+02  0.00000000000E+00 0. -1.
         -5    1    5    5    0  502  0.21011451126E+02 -0.81834070281E+01  0.12747121698E+03  0.12953551786E+03  0.47000000000E+01 0.  1.
         13    1    6    6    0    0  0.17179161252E+02 -0.37424616873E+02  0.38634380531E+02  0.56465395495E+02  0.00000000000E+00 0. -1.
        -14    1    6    6    0    0 -0.40301564953E+02 -0.72256192806E+02 -0.13538240504E+02  0.83835896205E+02  0.00000000000E+00 0.  1.
<mgrwt>
<rscale>  2 0.21917614E+03</rscale>
<asrwt>0</asrwt>
<pdfrwt beam="1">  1       21 0.43058443E-01 0.22256483E+03</pdfrwt>
<pdfrwt beam="2">  1       21 0.33557486E-01 0.22256483E+03</pdfrwt>
<totfact> 0.43719768E+04</totfact>
</mgrwt>
</event>
<event>
11    1  0.1029207E-001  0.1793676E+03  0.7546771E-02  0.1168916E+00
         21   -1    0    0  501  502  0.00000000000E+00  0.00000000000E+00  0.41809609694E+02  0.41809609694E+02  0.00000000000E+00 0.  1.
         21   -1    0    0  502  503 -0.00000000000E+00 -0.00000000000E+00 -0.78373546654E+03  0.78373546654E+03  0.00000000000E+00 0. -1.
         -6    2    1    2    0  503 -0.95096352223E+01 -0.38048908341E+02 -0.43956911927E+03  0.47398808231E+03  0.17293218026E+03 0.  0.
        -24    2    3    3    0    0  0.37530328900E+02 -0.28113957525E+02 -0.76654777440E+02  0.10787283955E+03  0.59679765531E+02 0.  0.
          6    2    1    2  501    0  0.95096352223E+01  0.38048908341E+02 -0.30235673758E+03  0.35155699393E+03  0.17502734253E+03 0.  0.
          5    1    5    5  501    0  0.15181595294E+02 -0.30962247406E+02 -0.23684310931E+02  0.42097246755E+02  0.47000000000E+01 0. -1.
        -13    1    5    5    0    0 -0.32210340188E+02  0.63940293135E+02 -0.73830406947E+02  0.10284355153E+03  0.00000000000E+00 0.  1.
         14    1    5    5    0    0  0.26538380116E+02  0.50708626118E+01 -0.20484201970E+03  0.20661619564E+03  0.00000000000E+00 0. -1.
         -5    1    3    3    0  503 -0.47039964122E+02 -0.99349508161E+01 -0.36291434183E+03  0.36611524276E+03  0.47000000000E+01 0.  1.
         13    1    4    4    0    0  0.39103027378E+02 -0.44265956308E+02 -0.65403166669E+02  0.88125455166E+02  0.00000000000E+00 0. -1.
        -14    1    4    4    0    0 -0.15726984779E+01  0.16151998783E+02 -0.11251610771E+02  0.19747384387E+02  0.00000000000E+00 0.  1.
<mgrwt>
<rscale>  2 0.17885440E+03</rscale>
<asrwt>0</asrwt>
<pdfrwt beam="1">  1       21 0.64322482E-02 0.17936756E+03</pdfrwt>
<pdfrwt beam="2">  1       21 0.12057468E+00 0.17936756E+03</pdfrwt>
<totfact> 0.91869039E+04</totfact>
</mgrwt>
</event>
<event>
12    1  0.1029207E-001  0.2492502E+03  0.7546771E-02  0.1113798E+00
         21   -1    0    0  501  502  0.00000000000E+00  0.00000000000E+00  0.18959980967E+03  0.18959980967E+03  0.00000000000E+00 0.  1.
         21   -1    0    0  502  503 -0.00000000000E+00 -0.00000000000E+00 -0.33687199810E+03  0.33687199810E+03  0.00000000000E+00 0. -1.
         -6    2    1    2    0  503  0.14528066692E+03  0.10527199493E+03 -0.11752592723E+03  0.27556851814E+03  0.17302311846E+03 0.  0.
        -24    2    3    3    0    0  0.69903544449E+02  0.12742103691E+03 -0.10468134554E+03  0.19582289801E+03  0.79156788115E+02 0.  0.
          6    2    1    2  501    0 -0.14528066692E+03 -0.10527199493E+03 -0.29746261198E+02  0.25090328962E+03  0.17285530247E+03 0.  0.
         24    2    5    5    0    0 -0.60940146514E+02 -0.49437747350E+02 -0.79438209928E+02  0.13811070851E+03  0.81279433372E+02 0.  0.
          5    1    5    5  501    0 -0.84340520403E+02 -0.55834247584E+02  0.49691948729E+02  0.11279258111E+03  0.47000000000E+01 0. -1.
        -11    1    6    6    0    0  0.56900701572E+01 -0.61680152279E+01  0.13467353152E+02  0.15867920821E+02  0.00000000000E+00 0.  1.
         12    1    6    6    0    0 -0.66630216671E+02 -0.43269732122E+02 -0.92905563080E+02  0.12224278769E+03  0.00000000000E+00 0. -1.
         -5    1    3    3    0  503  0.75377122468E+02 -0.22149041979E+02 -0.12844581691E+02  0.79745620136E+02  0.47000000000E+01 0.  1.
         13    1    4    4    0    0  0.11476762851E+02  0.10012477113E+03 -0.68788514548E+02  0.12201862814E+03  0.00000000000E+00 0. -1.
        -14    1    4    4    0    0  0.58426781598E+02  0.27296265779E+02 -0.35892830994E+02  0.73804269864E+02  0.00000000000E+00 0.  1.
<mgrwt>
<rscale>  2 0.24922108E+03</rscale>
<asrwt>0</asrwt>
<pdfrwt beam="1">  1       21 0.29169202E-01 0.24925020E+03</pdfrwt>
<pdfrwt beam="2">  1       21 0.51826461E-01 0.24925020E+03</pdfrwt>
<totfact> 0.38733831E+04</totfact>
</mgrwt>
</event>
<event>
12    1  0.1029207E-001  0.1762031E+03  0.7546771E-02  0.1171909E+00
         21   -1    0    0  503  502  0.00000000000E+00  0.00000000000E+00  0.11051892503E+03  0.11051892503E+03  0.00000000000E+00 0. -1.
         21   -1    0    0  501  503 -0.00000000000E+00 -0.00000000000E+00 -0.37653086427E+03  0.37653086427E+03  0.00000000000E+00 0. -1.
          6    2    1    2  501    0 -0.22821789734E+02  0.81160020764E+01 -0.25683330263E+03  0.31060781238E+03  0.17299469413E+03 0.  0.
         24    2    3    3    0    0 -0.43816320386E+01  0.71613165381E+02 -0.16832406629E+03  0.20002795852E+03  0.80811810655E+02 0.  0.
         -6    2    1    2    0  502  0.22821789734E+02 -0.81160020764E+01 -0.91786366120E+01  0.17644197691E+03  0.17453028468E+03 0.  0.
        -24    2    5    5    0    0  0.17812339284E+02 -0.58938581601E+00 -0.74613370541E+02  0.11021857507E+03  0.79141344577E+02 0.  0.
          5    1    3    3  501    0 -0.18440157695E+02 -0.63497163305E+02 -0.88509236335E+02  0.11057985386E+03  0.47000000000E+01 0. -1.
        -13    1    4    4    0    0 -0.43247260429E+01 -0.12900481407E+02 -0.23944374099E+01  0.13815173050E+02  0.00000000000E+00 0.  1.
         14    1    4    4    0    0 -0.56905995767E-01  0.84513646788E+02 -0.16592962888E+03  0.18621278547E+03  0.00000000000E+00 0. -1.
         -5    1    5    5    0  502  0.50094504496E+01 -0.75266162604E+01  0.65434733929E+02  0.66223401834E+02  0.47000000000E+01 0.  1.
         11    1    6    6    0    0 -0.14170318552E+02  0.31961105584E+02 -0.26207501768E+02  0.43693744940E+02  0.00000000000E+00 0. -1.
        -12    1    6    6    0    0  0.31982657836E+02 -0.32550491400E+02 -0.48405868773E+02  0.66524830134E+02  0.00000000000E+00 0.  1.
<mgrwt>
<rscale>  2 0.17582162E+03</rscale>
<asrwt>0</asrwt>
<pdfrwt beam="1">  1       21 0.17002912E-01 0.17620308E+03</pdfrwt>
<pdfrwt beam="2">  1       21 0.57927824E-01 0.17620308E+03</pdfrwt>
<totfact> 0.87706197E+04</totfact>
</mgrwt>
</event>
<event>
12    1  0.1029207E-001  0.2566460E+03  0.7546771E-02  0.1109300E+00
         21   -1    0    0  501  502  0.00000000000E+00  0.00000000000E+00  0.13476769652E+03  0.13476769652E+03  0.00000000000E+00 0.  1.
         21   -1    0    0  502  503 -0.00000000000E+00 -0.00000000000E+00 -0.70347433182E+03  0.70347433182E+03  0.00000000000E+00 0. -1.
         -6    2    1    2    0  503 -0.47703538164E+02 -0.18325209483E+03 -0.51643101307E+03  0.57632616761E+03  0.17202878364E+03 0.  0.
        -24    2    3    3    0    0  0.42500250078E+01 -0.13252282057E+03 -0.45677717256E+03  0.48223417709E+03  0.79523930334E+02 0.  0.
          6    2    1    2  501    0  0.47703538164E+02  0.18325209483E+03 -0.52275622232E+02  0.26191586073E+03  0.17323457971E+03 0.  0.
         24    2    5    5    0    0  0.76669836825E+02  0.13709299247E+03  0.13080187423E+02  0.17669156229E+03  0.79850262479E+02 0.  0.
          5    1    5    5  501    0 -0.28966298662E+02  0.46159102359E+02 -0.65355809654E+02  0.85224298438E+02  0.47000000000E+01 0. -1.
        -11    1    6    6    0    0  0.16432309051E+01  0.82850123361E+02 -0.19981995946E+01  0.82890505791E+02  0.00000000000E+00 0.  1.
         12    1    6    6    0    0  0.75026605920E+02  0.54242869109E+02  0.15078387017E+02  0.93801056498E+02  0.00000000000E+00 0. -1.
         -5    1    3    3    0  503 -0.51953563171E+02 -0.50729274256E+02 -0.59653840504E+02  0.94091990518E+02  0.47000000000E+01 0.  1.
         11    1    4    4    0    0  0.12359290856E+02 -0.24538398860E+02 -0.22191850749E+03  0.22361285530E+03  0.00000000000E+00 0. -1.
        -12    1    4    4    0    0 -0.81092658478E+01 -0.10798442171E+03 -0.23485866508E+03  0.25862132179E+03  0.00000000000E+00 0.  1.
<mgrwt>
<rscale>  2 0.25644268E+03</rscale>
<asrwt>0</asrwt>
<pdfrwt beam="1">  1       21 0.20733492E-01 0.25664602E+03</pdfrwt>
<pdfrwt beam="2">  1       21 0.10822682E+00 0.25664602E+03</pdfrwt>
<totfact> 0.14107288E+04</totfact>
</mgrwt>
</event>
<event>
12    1  0.1029207E-001  0.1914365E+03  0.7546771E-02  0.1157425E+00
         21   -1    0    0  503  502  0.00000000000E+00  0.00000000000E+00  0.12590956736E+03  0.12590956736E+03  0.00000000000E+00 0.  1.
         21   -1    0    0  501  503 -0.00000000000E+00 -0.00000000000E+00 -0.44724661103E+03  0.44724661103E+03  0.00000000000E+00 0.  1.
          6    2    1    2  501    0  0.16829951871E+02  0.80372170645E+02 -0.33125246332E+03  0.38259135570E+03  0.17293067371E+03 0.  0.
         24    2    3    3    0    0  0.17988771499E+02  0.11325270713E+03 -0.31702337850E+03  0.34643849417E+03  0.79787443567E+02 0.  0.
         -6    2    1    2    0  502 -0.16829951871E+02 -0.80372170645E+02  0.99154196463E+01  0.19056482269E+03  0.17167906980E+03 0.  0.
        -24    2    5    5    0    0 -0.50607433008E+02 -0.28004024606E+02 -0.42170614869E+02  0.10921135969E+03  0.82482862804E+02 0.  0.
          5    1    3    3  501    0 -0.11588196282E+01 -0.32880536484E+02 -0.14229084811E+02  0.36152861532E+02  0.47000000000E+01 0. -1.
        -13    1    4    4    0    0  0.45918689027E+02  0.55183994158E+02 -0.12831954295E+03  0.14703640473E+03  0.00000000000E+00 0.  1.
         14    1    4    4    0    0 -0.27929917528E+02  0.58068712971E+02 -0.18870383555E+03  0.19940208943E+03  0.00000000000E+00 0. -1.
         -5    1    5    5    0  502  0.33777481137E+02 -0.52368146039E+02  0.52086034516E+02  0.81353463006E+02  0.47000000000E+01 0.  1.
         11    1    6    6    0    0  0.11432269612E+02  0.19481191715E+02 -0.84187951257E+01  0.24105802839E+02  0.00000000000E+00 0. -1.
        -12    1    6    6    0    0 -0.62039702620E+02 -0.47485216321E+02 -0.33751819744E+02  0.85105556847E+02  0.00000000000E+00 0.  1.
<mgrwt>
<rscale>  2 0.19115345E+03</rscale>
<asrwt>0</asrwt>
<pdfrwt beam="1">  1       21 0.19370703E-01 0.19143655E+03</pdfrwt>
<pdfrwt beam="2">  1       21 0.68807171E-01 0.19143655E+03</pdfrwt>
<totfact> 0.47179237E+04</totfact>
</mgrwt>
</event>
<event>
12    1  0.1029207E-001  0.1868267E+03  0.7546771E-02  0.1161990E+00
         21   -1    0    0  501  502  0.00000000000E+00  0.00000000000E+00  0.86741540311E+03  0.86741540311E+03  0.00000000000E+00 0.  1.
         21   -1    0    0  502  503 -0.00000000000E+00 -0.00000000000E+00 -0.59057654969E+02  0.59057654969E+02  0.00000000000E+00 0.  1.
         -6    2    1    2    0  503 -0.77682898766E+00 -0.69463843975E+02  0.14065064171E+03  0.23385211966E+03  0.17343120184E+03 0.  0.
        -24    2    3    3    0    0  0.35878111087E+02 -0.74305685097E+02  0.15529359537E+03  0.19380796716E+03  0.81466887021E+02 0.  0.
          6    2    1    2  501    0  0.77682898766E+00  0.69463843975E+02  0.66770710643E+03  0.69262093842E+03  0.17048505881E+03 0.  0.
         24    2    5    5    0    0 -0.51078161577E+02  0.39925540371E+02  0.55219013565E+03  0.56251439760E+03  0.85472066979E+02 0.  0.
          5    1    5    5  501    0  0.51854990564E+02  0.29538303605E+02  0.11551697078E+03  0.13010654082E+03  0.47000000000E+01 0. -1.
        -13    1    6    6    0    0 -0.40429816656E+02 -0.20517939662E+02  0.20653289312E+03  0.21145068423E+03  0.00000000000E+00 0.  1.
         14    1    6    6    0    0 -0.10648344920E+02  0.60443480033E+02  0.34565724253E+03  0.35106371337E+03  0.00000000000E+00 0. -1.
         -5    1    3    3    0  503 -0.36654940075E+02  0.48418411214E+01 -0.14642953656E+02  0.40044152496E+02  0.47000000000E+01 0.  1.
         11    1    4    4    0    0  0.16342313666E+02  0.10108135442E+02  0.68594727087E+02  0.71235399923E+02  0.00000000000E+00 0. -1.
        -12    1    4    4    0    0  0.19535797421E+02 -0.84413820538E+02  0.86698868283E+02  0.12257256724E+03  0.00000000000E+00 0.  1.
<mgrwt>
<rscale>  2 0.18614000E+03</rscale>
<asrwt>0</asrwt>
<pdfrwt beam="1">  1       21 0.13344851E+00 0.18682669E+03</pdfrwt>
<pdfrwt beam="2">  1       21 0.90857937E-02 0.18682669E+03</pdfrwt>
<totfact> 0.38992369E+04</totfact>
</mgrwt>
</event>
<event>
12    1  0.1029207E-001  0.2399468E+03  0.7546771E-02  0.1121695E+00
         21   -1    0    0  501  502  0.00000000000E+00  0.00000000000E+00  0.67243550019E+02  0.67243550019E+02  0.00000000000E+00 0. -1.
         21   -1    0    0  502  503 -0.00000000000E+00 -0.00000000000E+00 -0.16158281999E+04  0.16158281999E+04  0.00000000000E+00 0.  1.
         -6    2    1    2    0  503 -0.20492952131E+02  0.14764984789E+03 -0.13565382319E+04  0.13757343448E+04  0.17386366511E+03 0.  0.
        -24    2    3    3    0    0 -0.81058890892E+02  0.10952215409E+03 -0.83487817584E+03  0.84916691501E+03  0.74143341070E+02 0.  0.
          6    2    1    2  501    0  0.20492952131E+02 -0.14764984789E+03 -0.19204641795E+03  0.30733740514E+03  0.18802663450E+03 0.  0.
         24    2    5    5    0    0 -0.21179447894E+02 -0.81791500292E+02 -0.19816963840E+03  0.22902077408E+03  0.77723167997E+02 0.  0.
          5    1    5    5  501    0  0.41672400025E+02 -0.65858347597E+02  0.61232204481E+01  0.78316631061E+02  0.47000000000E+01 0. -1.
        -11    1    6    6    0    0  0.11614245008E+02 -0.23172697807E+02 -0.13275650220E+03  0.13526327472E+03  0.00000000000E+00 0.  1.
         12    1    6    6    0    0 -0.32793692902E+02 -0.58618802485E+02 -0.65413136192E+02  0.93757499356E+02  0.00000000000E+00 0. -1.
         -5    1    3    3    0  503  0.60565938761E+02  0.38127693797E+02 -0.52166005610E+03  0.52656742977E+03  0.47000000000E+01 0.  1.
         13    1    4    4    0    0 -0.69424869556E+02  0.37616792570E+02 -0.34624336011E+03  0.35513279209E+03  0.00000000000E+00 0. -1.
        -14    1    4    4    0    0 -0.11634021336E+02  0.71905361522E+02 -0.48863481573E+03  0.49403412292E+03  0.00000000000E+00 0.  1.
<mgrwt>
<rscale>  2 0.23716650E+03</rscale>
<asrwt>0</asrwt>
<pdfrwt beam="1">  1       21 0.10345163E-01 0.23994677E+03</pdfrwt>
<pdfrwt beam="2">  1       21 0.24858891E+00 0.23994677E+03</pdfrwt>
<totfact> 0.49535637E+03</totfact>
</mgrwt>
</event>
<event>
12    1  0.1029207E-001  0.2790676E+03  0.7546771E-02  0.1096681E+00
         21   -1    0    0  501  502  0.00000000000E+00  0.00000000000E+00  0.89132887774E+02  0.89132887774E+02  0.00000000000E+00 0.  1.
         21   -1    0    0  502  503 -0.00000000000E+00 -0.00000000000E+00 -0.19549764971E+04  0.19549764971E+04  0.00000000000E+00 0. -1.
         -6    2    1    2    0  503  0.32640872436E+02 -0.21631782022E+03 -0.16942314614E+04  0.17164976000E+04  0.16758562053E+03 0.  0.
        -24    2    3    3    0    0 -0.29716947042E+02 -0.18653684377E+03 -0.13172519707E+04  0.13332078525E+04  0.81310100444E+02 0.  0.
          6    2    1    2  501    0 -0.32640872436E+02  0.21631782022E+03 -0.17161214794E+03  0.32761178486E+03  0.17326259366E+03 0.  0.
         24    2    5    5    0    0 -0.47173130273E+02  0.44802298173E+02 -0.60173798894E+02  0.12250362691E+03  0.84579562494E+02 0.  0.
          5    1    5    5  501    0  0.14532257838E+02  0.17151552204E+03 -0.11143834905E+03  0.20510815795E+03  0.47000000000E+01 0. -1.
        -13    1    6    6    0    0 -0.48495848013E+02  0.67835434133E+02 -0.43613520009E+02  0.94104370387E+02  0.00000000000E+00 0.  1.
         14    1    6    6    0    0  0.13227177394E+01 -0.23033135960E+02 -0.16560278885E+02  0.28399256523E+02  0.00000000000E+00 0. -1.
         -5    1    3    3    0  503  0.62357819478E+02 -0.29780976448E+02 -0.37697949069E+03  0.38328974760E+03  0.47000000000E+01 0.  1.
         11    1    4    4    0    0  0.22452087550E+02 -0.76432444706E+02 -0.39592014825E+03  0.40385489799E+03  0.00000000000E+00 0. -1.
        -12    1    4    4    0    0 -0.52169034592E+02 -0.11010439906E+03 -0.92133182248E+03  0.92935295447E+03  0.00000000000E+00 0.  1.
<mgrwt>
<rscale>  2 0.27819136E+03</rscale>
<asrwt>0</asrwt>
<pdfrwt beam="1">  1       21 0.13712754E-01 0.27906765E+03</pdfrwt>
<pdfrwt beam="2">  1       21 0.30076558E+00 0.27906765E+03</pdfrwt>
<totfact> 0.14203844E+03</totfact>
</mgrwt>
</event>
<event>
12    1  0.1029207E-001  0.2284334E+03  0.7546771E-02  0.1127764E+00
         21   -1    0    0  501  502  0.00000000000E+00  0.00000000000E+00  0.41018142317E+03  0.41018142317E+03  0.00000000000E+00 0.  1.
         21   -1    0    0  502  503 -0.00000000000E+00 -0.00000000000E+00 -0.15267467618E+03  0.15267467618E+03  0.00000000000E+00 0.  1.
         -6    2    1    2    0  503 -0.14531896975E+03  0.34099040198E+02  0.13694693367E+02  0.22875110675E+03  0.17279808073E+03 0.  0.
        -24    2    3    3    0    0 -0.67668314684E+02 -0.49592087109E+02  0.37149971923E+02  0.11210605065E+03  0.64414829515E+02 0.  0.
          6    2    1    2  501    0  0.14531896975E+03 -0.34099040198E+02  0.24381205363E+03  0.33410499260E+03  0.17292044724E+03 0.  0.
         24    2    5    5    0    0  0.71507525772E+02  0.78116289459E+01  0.22140530336E+03  0.24619147880E+03  0.80097366323E+02 0.  0.
          5    1    5    5  501    0  0.73811443976E+02 -0.41910669144E+02  0.22406750273E+02  0.87913513795E+02  0.47000000000E+01 0. -1.
        -13    1    6    6    0    0  0.37151823186E+02  0.34047394926E+02  0.56471401430E+02  0.75686869712E+02  0.00000000000E+00 0.  1.
         14    1    6    6    0    0  0.34355702587E+02 -0.26235765980E+02  0.16493390193E+03  0.17050460909E+03  0.00000000000E+00 0. -1.
         -5    1    3    3    0  503 -0.77650655065E+02  0.83691127308E+02 -0.23455278556E+02  0.11664505611E+03  0.47000000000E+01 0.  1.
         13    1    4    4    0    0 -0.20291383763E+01 -0.27826467962E+02  0.32446402078E+02  0.42792507867E+02  0.00000000000E+00 0. -1.
        -14    1    4    4    0    0 -0.65639176307E+02 -0.21765619147E+02  0.47035698453E+01  0.69313542778E+02  0.00000000000E+00 0.  1.
<mgrwt>
<rscale>  2 0.22841027E+03</rscale>
<asrwt>0</asrwt>
<pdfrwt beam="1">  1       21 0.63104834E-01 0.22843342E+03</pdfrwt>
<pdfrwt beam="2">  1       21 0.23488412E-01 0.22843342E+03</pdfrwt>
<totfact> 0.38938652E+04</totfact>
</mgrwt>
</event>
<event>
12    1  0.1029207E-001  0.1817965E+03  0.7546771E-02  0.1166187E+00
         21   -1    0    0  503  502  0.00000000000E+00  0.00000000000E+00  0.31116203181E+02  0.31116203181E+02  0.00000000000E+00 0.  1.
         21   -1    0    0  501  503 -0.00000000000E+00 -0.00000000000E+00 -0.10596282515E+04  0.10596282515E+04  0.00000000000E+00 0.  1.
          6    2    1    2  501    0 -0.35409082782E+02  0.50961171805E+02 -0.52105121315E+03  0.55170228871E+03  0.17038252396E+03 0.  0.
         24    2    3    3    0    0 -0.80996573158E+02  0.36965831464E+02 -0.45121244978E+03  0.46700499419E+03  0.81080652478E+02 0.  0.
         -6    2    1    2    0  502  0.35409082782E+02 -0.50961171805E+02 -0.50746083517E+03  0.53904216597E+03  0.17087748033E+03 0.  0.
        -24    2    5    5    0    0  0.88690200624E+02 -0.33715208916E+02 -0.37146373036E+03  0.39189053237E+03  0.81180166218E+02 0.  0.
          5    1    3    3  501    0  0.45587490376E+02  0.13995340341E+02 -0.69838763368E+02  0.84697294519E+02  0.47000000000E+01 0. -1.
        -13    1    4    4    0    0 -0.37210635786E+02  0.59941220539E+02 -0.24581512890E+03  0.25573943562E+03  0.00000000000E+00 0.  1.
         14    1    4    4    0    0 -0.43785937372E+02 -0.22975389074E+02 -0.20539732088E+03  0.21126555857E+03  0.00000000000E+00 0. -1.
         -5    1    5    5    0  502 -0.53281117842E+02 -0.17245962889E+02 -0.13599710481E+03  0.14715163360E+03  0.47000000000E+01 0.  1.
         13    1    6    6    0    0 -0.15095870680E+02 -0.20219239043E+01 -0.65660444975E+02  0.67403764896E+02  0.00000000000E+00 0. -1.
        -14    1    6    6    0    0  0.10378607130E+03 -0.31693285012E+02 -0.30580328539E+03  0.32448676747E+03  0.00000000000E+00 0.  1.
<mgrwt>
<rscale>  2 0.18168007E+03</rscale>
<asrwt>0</asrwt>
<pdfrwt beam="1">  1       21 0.47871087E-02 0.18179647E+03</pdfrwt>
<pdfrwt beam="2">  1       21 0.16301971E+00 0.18179647E+03</pdfrwt>
<totfact> 0.69694979E+04</totfact>
</mgrwt>
</event>
<event>
12    1  0.1029207E-001  0.2024067E+03  0.7546771E-02  0.1149713E+00
         21   -1    0    0  503  502  0.00000000000E+00  0.00000000000E+00  0.25688063211E+03  0.25688063211E+03  0.00000000000E+00 0.  1.
         21   -1    0    0  501  503 -0.00000000000E+00 -0.00000000000E+00 -0.17732667939E+03  0.17732667939E+03  0.00000000000E+00 0. -1.
          6    2    1    2  501    0 -0.83070720149E+02 -0.34824775714E+02 -0.41102458050E+02  0.20653782994E+03  0.18125935448E+03 0.  0.
         24    2    3    3    0    0 -0.18518251432E+02  0.24146727988E+02  0.33502380470E+02  0.91504654735E+02  0.79527996532E+02 0.  0.
         -6    2    1    2    0  502  0.83070720149E+02  0.34824775714E+02  0.12065641077E+03  0.22766948157E+03  0.17076859731E+03 0.  0.
        -24    2    5    5    0    0  0.57827532025E+02  0.78411605844E+02  0.39756586555E+02  0.13225511229E+03  0.80115074487E+02 0.  0.
          5    1    3    3  501    0 -0.64552468718E+02 -0.58971503702E+02 -0.74604838520E+02  0.11503317520E+03  0.47000000000E+01 0. -1.
        -11    1    4    4    0    0  0.27481385066E+02 -0.81482146398E+01  0.78263068650E+01  0.29713145342E+02  0.00000000000E+00 0.  1.
         12    1    4    4    0    0 -0.45999636498E+02  0.32294942628E+02  0.25676073605E+02  0.61791509393E+02  0.00000000000E+00 0. -1.
         -5    1    5    5    0  502  0.25243188124E+02 -0.43586830130E+02  0.80899824216E+02  0.95414369283E+02  0.47000000000E+01 0.  1.
         11    1    6    6    0    0  0.47080451557E+02  0.11395279847E+02 -0.82276732098E+01  0.49133653721E+02  0.00000000000E+00 0. -1.
        -12    1    6    6    0    0  0.10747080468E+02  0.67016325997E+02  0.47984259764E+02  0.83121458564E+02  0.00000000000E+00 0.  1.
<mgrwt>
<rscale>  2 0.20003061E+03</rscale>
<asrwt>0</asrwt>
<pdfrwt beam="1">  1       21 0.39520097E-01 0.20240668E+03</pdfrwt>
<pdfrwt beam="2">  1       21 0.27281028E-01 0.20240668E+03</pdfrwt>
<totfact> 0.78739584E+04</totfact>
</mgrwt>
</event>
<event>
12    1  0.1029207E-001  0.3068924E+03  0.7546771E-02  0.1082021E+00
         21   -1    0    0  501  502  0.00000000000E+00  0.00000000000E+00  0.81563865479E+03  0.81563865479E+03  0.00000000000E+00 0.  1.
         21   -1    0    0  502  503 -0.00000000000E+00 -0.00000000000E+00 -0.12129856494E+03  0.12129856494E+03  0.00000000000E+00 0.  1.
         -6    2    1    2    0  503  0.14317260802E+03 -0.20643604716E+03  0.23901953779E+03  0.38784728688E+03  0.17372662790E+03 0.  0.
        -24    2    3    3    0    0  0.16040081428E+03 -0.12622501806E+03  0.14107961883E+03  0.25999996386E+03  0.77687489010E+02 0.  0.
          6    2    1    2  501    0 -0.14317260802E+03  0.20643604716E+03  0.45532055206E+03  0.54908993285E+03  0.17626318951E+03 0.  0.
         24    2    5    5    0    0 -0.11847756614E+03  0.65918799221E+02  0.18985638531E+03  0.24767948862E+03  0.83171270719E+02 0.  0.
          5    1    5    5  501    0 -0.24695041881E+02  0.14051724794E+03  0.26546416676E+03  0.30141044424E+03  0.47000000000E+01 0. -1.
        -11    1    6    6    0    0 -0.81270336577E+01  0.43860665977E+02  0.72214902679E+02  0.84881086615E+02  0.00000000000E+00 0.  1.
         12    1    6    6    0    0 -0.11035053248E+03  0.22058133244E+02  0.11764148263E+03  0.16279840200E+03  0.00000000000E+00 0. -1.
         -5    1    3    3    0  503 -0.17228206262E+02 -0.80211029097E+02  0.97939918953E+02  0.12784732302E+03  0.47000000000E+01 0.  1.
         13    1    4    4    0    0  0.39390803340E+02 -0.57589951225E+02  0.85084218338E+02  0.11003436772E+03  0.00000000000E+00 0. -1.
        -14    1    4    4    0    0  0.12101001094E+03 -0.68635066836E+02  0.55995400497E+02  0.14996559613E+03  0.00000000000E+00 0.  1.
<mgrwt>
<rscale>  2 0.30652931E+03</rscale>
<asrwt>0</asrwt>
<pdfrwt beam="1">  1       21 0.12548287E+00 0.30689241E+03</pdfrwt>
<pdfrwt beam="2">  1       21 0.18661318E-01 0.30689241E+03</pdfrwt>
<totfact> 0.11622272E+04</totfact>
</mgrwt>
</event>
<event>
12    1  0.1029207E-001  0.3260887E+03  0.7546771E-02  0.1072960E+00
         21   -1    0    0  501  502  0.00000000000E+00  0.00000000000E+00  0.42111141668E+03  0.42111141668E+03  0.00000000000E+00 0. -1.
         21   -1    0    0  502  503 -0.00000000000E+00 -0.00000000000E+00 -0.25595255445E+03  0.25595255445E+03  0.00000000000E+00 0.  1.
         -6    2    1    2    0  503 -0.27248192597E+03 -0.45342494484E+02  0.12474824192E+03  0.34848089732E+03  0.17197229472E+03 0.  0.
        -24    2    3    3    0    0 -0.20224797004E+03 -0.94742363971E+02  0.75505639621E+02  0.24938458280E+03  0.81309357445E+02 0.  0.
          6    2    1    2  501    0  0.27248192597E+03  0.45342494484E+02  0.40410620300E+02  0.32858307381E+03  0.17329592140E+03 0.  0.
         24    2    5    5    0    0  0.23296001073E+03 -0.15040419904E+02 -0.65111775231E+01  0.24237505072E+03  0.64858992795E+02 0.  0.
          5    1    5    5  501    0  0.39521915235E+02  0.60382914388E+02  0.46921797823E+02  0.86208023088E+02  0.47000000000E+01 0. -1.
        -13    1    6    6    0    0  0.18483488303E+03 -0.37052642067E+02 -0.13501304014E+02  0.18899501972E+03  0.00000000000E+00 0.  1.
         14    1    6    6    0    0  0.48125127698E+02  0.22012222163E+02  0.69901264908E+01  0.53380030994E+02  0.00000000000E+00 0. -1.
         -5    1    3    3    0  503 -0.70233955931E+02  0.49399869487E+02  0.49242602303E+02  0.99096314525E+02  0.47000000000E+01 0.  1.
         11    1    4    4    0    0 -0.16249033774E+03 -0.73372913068E+02  0.92866094609E+02  0.20102439096E+03  0.00000000000E+00 0. -1.
        -12    1    4    4    0    0 -0.39757632293E+02 -0.21369450903E+02 -0.17360454988E+02  0.48360191840E+02  0.00000000000E+00 0.  1.
<mgrwt>
<rscale>  2 0.32591315E+03</rscale>
<asrwt>0</asrwt>
<pdfrwt beam="1">  1       21 0.64786372E-01 0.32608867E+03</pdfrwt>
<pdfrwt beam="2">  1       21 0.39377316E-01 0.32608867E+03</pdfrwt>
<totfact> 0.12743859E+04</totfact>
</mgrwt>
</event>
<event>
12    1  0.1029207E-001  0.3277571E+03  0.7546771E-02  0.1072154E+00
         21   -1    0    0  501  502  0.00000000000E+00  0.00000000000E+00  0.11699833806E+04  0.11699833806E+04  0.00000000000E+00 0.  1.
         21   -1    0    0  502  503 -0.00000000000E+00 -0.00000000000E+00 -0.92286047692E+02  0.92286047692E+02  0.00000000000E+00 0.  1.
         -6    2    1    2    0  503  0.15840576581E+03  0.22950335469E+03  0.58604515665E+03  0.67138315639E+03  0.17187856349E+03 0.  0.
        -24    2    3    3    0    0  0.10209185992E+03  0.50747367678E+02  0.23896848183E+03  0.27690975158E+03  0.81086571184E+02 0.  0.
          6    2    1    2  501    0 -0.15840576581E+03 -0.22950335469E+03  0.49165217628E+03  0.59088627193E+03  0.17222237792E+03 0.  0.
         24    2    5    5    0    0 -0.18464908970E+03 -0.20096976348E+03  0.45818044576E+03  0.53945355257E+03  0.81219962727E+02 0.  0.
          5    1    5    5  501    0  0.26243323890E+02 -0.28533591216E+02  0.33471730522E+02  0.51432719359E+02  0.47000000000E+01 0. -1.
        -13    1    6    6    0    0 -0.11821583751E+03 -0.17826763335E+03  0.36003445828E+03  0.41878293242E+03  0.00000000000E+00 0.  1.
         14    1    6    6    0    0 -0.66433252189E+02 -0.22702130124E+02  0.98145987484E+02  0.12067062015E+03  0.00000000000E+00 0. -1.
         -5    1    3    3    0  503  0.56313905890E+02  0.17875598701E+03  0.34707667482E+03  0.39447340480E+03  0.47000000000E+01 0.  1.
         13    1    4    4    0    0  0.12118696077E+02 -0.74267820857E+01  0.10213978053E+03  0.10312397710E+03  0.00000000000E+00 0. -1.
        -14    1    4    4    0    0  0.89973163846E+02  0.58174149764E+02  0.13682870130E+03  0.17378577448E+03  0.00000000000E+00 0.  1.
<mgrwt>
<rscale>  2 0.32771197E+03</rscale>
<asrwt>0</asrwt>
<pdfrwt beam="1">  1       21 0.17999743E+00 0.32775711E+03</pdfrwt>
<pdfrwt beam="2">  1       21 0.14197854E-01 0.32775711E+03</pdfrwt>
<totfact> 0.72244662E+03</totfact>
</mgrwt>
</event>
<event>
12    1  0.1029207E-001  0.1790823E+03  0.7546771E-02  0.1168793E+00
         21   -1    0    0  503  502  0.00000000000E+00  0.00000000000E+00  0.29253681763E+02  0.29253681763E+02  0.00000000000E+00 0. -1.
         21   -1    0    0  501  503 -0.00000000000E+00 -0.00000000000E+00 -0.12412712217E+04  0.12412712217E+04  0.00000000000E+00 0. -1.
          6    2    1    2  501    0 -0.95811194283E+01 -0.45425789480E+02 -0.82436669741E+03  0.84350774254E+03  0.17253857460E+03 0.  0.
         24    2    3    3    0    0  0.53373304840E+02  0.12177002135E+01 -0.55630330711E+03  0.56418902515E+03  0.77367267844E+02 0.  0.
         -6    2    1    2    0  502  0.95811194283E+01  0.45425789480E+02 -0.38765084252E+03  0.42701716091E+03  0.17296005265E+03 0.  0.
        -24    2    5    5    0    0  0.46978164850E+01 -0.39138194890E+02 -0.16588653116E+03  0.18957998208E+03  0.82875573042E+02 0.  0.
          5    1    3    3  501    0 -0.62954424268E+02 -0.46643489693E+02 -0.26806339030E+03  0.27931871739E+03  0.47000000000E+01 0. -1.
        -11    1    4    4    0    0  0.20971617779E+01 -0.29672709272E+02 -0.11248389532E+03  0.11635073901E+03  0.00000000000E+00 0.  1.
         12    1    4    4    0    0  0.51276143062E+02  0.30890409485E+02 -0.44381941179E+03  0.44783828613E+03  0.00000000000E+00 0. -1.
         -5    1    5    5    0  502  0.48833029433E+01  0.84563984370E+02 -0.22176431135E+03  0.23743717883E+03  0.47000000000E+01 0.  1.
         11    1    6    6    0    0  0.79449502129E+01 -0.46240590149E+02 -0.35185464084E+02  0.58645812246E+02  0.00000000000E+00 0. -1.
        -12    1    6    6    0    0 -0.32471337279E+01  0.71023952583E+01 -0.13070106708E+03  0.13093416984E+03  0.00000000000E+00 0.  1.
<mgrwt>
<rscale>  2 0.17898048E+03</rscale>
<asrwt>0</asrwt>
<pdfrwt beam="1">  1       21 0.45005663E-02 0.17908233E+03</pdfrwt>
<pdfrwt beam="2">  1       21 0.19096481E+00 0.17908233E+03</pdfrwt>
<totfact> 0.49830230E+04</totfact>
</mgrwt>
</event>
<event>
12    1  0.1029207E-001  0.2244457E+03  0.7546771E-02  0.1130682E+00
         21   -1    0    0  503  502  0.00000000000E+00  0.00000000000E+00  0.20637633384E+03  0.20637633384E+03  0.00000000000E+00 0. -1.
         21   -1    0    0  501  503 -0.00000000000E+00 -0.00000000000E+00 -0.33450377672E+03  0.33450377672E+03  0.00000000000E+00 0. -1.
          6    2    1    2  501    0  0.13617257766E+03  0.44329039306E+02 -0.20502935138E+03  0.30399487964E+03  0.17282308089E+03 0.  0.
         24    2    3    3    0    0  0.11471339259E+02  0.14612747333E+02 -0.34415055058E+02  0.90535785251E+02  0.81652975374E+02 0.  0.
         -6    2    1    2    0  502 -0.13617257766E+03 -0.44329039306E+02  0.76901908498E+02  0.23688523092E+03  0.17231562456E+03 0.  0.
        -24    2    5    5    0    0 -0.15907548040E+03 -0.15990057092E+02  0.86816079856E+02  0.19883235113E+03  0.80228310111E+02 0.  0.
          5    1    3    3  501    0  0.12470123840E+03  0.29716291973E+02 -0.17061429632E+03  0.21345909438E+03  0.47000000000E+01 0. -1.
        -11    1    4    4    0    0  0.58529579470E+01  0.35247780151E+02 -0.51832352915E+02  0.62954395645E+02  0.00000000000E+00 0.  1.
         12    1    4    4    0    0  0.56183813118E+01 -0.20635032818E+02  0.17417297857E+02  0.27581389606E+02  0.00000000000E+00 0. -1.
         -5    1    5    5    0  502  0.22902902741E+02 -0.28338982214E+02 -0.99141713577E+01  0.38052879794E+02  0.47000000000E+01 0.  1.
         13    1    6    6    0    0 -0.93875555290E+02 -0.42885686622E+02  0.74374654154E+02  0.12721395827E+03  0.00000000000E+00 0. -1.
        -14    1    6    6    0    0 -0.65199925110E+02  0.26895629530E+02  0.12441425702E+02  0.71618392858E+02  0.00000000000E+00 0.  1.
<mgrwt>
<rscale>  2 0.22434796E+03</rscale>
<asrwt>0</asrwt>
<pdfrwt beam="1">  1       21 0.31750205E-01 0.22444565E+03</pdfrwt>
<pdfrwt beam="2">  1       21 0.51462119E-01 0.22444565E+03</pdfrwt>
<totfact> 0.33662055E+04</totfact>
</mgrwt>
</event>
<event>
12    1  0.1029207E-001  0.3577073E+03  0.7546771E-02  0.1059585E+00
         21   -1    0    0  501  502  0.00000000000E+00  0.00000000000E+00  0.37643983624E+03  0.37643983624E+03  0.00000000000E+00 0. -1.
         21   -1    0    0  502  503 -0.00000000000E+00 -0.00000000000E+00 -0.35135117367E+03  0.35135117367E+03  0.00000000000E+00 0.  1.
         -6    2    1    2    0  503  0.28202122831E+03 -0.13658609615E+03  0.80608190905E+02  0.36580076042E+03  0.17064812042E+03 0.  0.
        -24    2    3    3    0    0  0.12567623034E+03 -0.66370224354E+02  0.10270778557E+03  0.19292939458E+03  0.80457072556E+02 0.  0.
          6    2    1    2  501    0 -0.28202122831E+03  0.13658609615E+03 -0.55519528336E+02  0.36199024950E+03  0.17251894919E+03 0.  0.
         24    2    5    5    0    0 -0.13081169505E+03  0.44440332009E+02  0.33395365293E+02  0.16379056962E+03  0.81396913956E+02 0.  0.
          5    1    5    5  501    0 -0.15120953326E+03  0.92145764142E+02 -0.88914893630E+02  0.19819967988E+03  0.47000000000E+01 0. -1.
        -13    1    6    6    0    0 -0.13364811649E+03  0.27138391351E+02  0.13149416728E+02  0.13700809642E+03  0.00000000000E+00 0.  1.
         14    1    6    6    0    0  0.28364214353E+01  0.17301940658E+02  0.20245948565E+02  0.26782473194E+02  0.00000000000E+00 0. -1.
         -5    1    3    3    0  503  0.15634499797E+03 -0.70215871796E+02 -0.22099594660E+02  0.17287136583E+03  0.47000000000E+01 0.  1.
         13    1    4    4    0    0  0.10978969772E+03 -0.80154289713E+02  0.67149887721E+02  0.15161660630E+03  0.00000000000E+00 0. -1.
        -14    1    4    4    0    0  0.15886532621E+02  0.13784065359E+02  0.35557897844E+02  0.41312788282E+02  0.00000000000E+00 0.  1.
<mgrwt>
<rscale>  2 0.35748247E+03</rscale>
<asrwt>0</asrwt>
<pdfrwt beam="1">  1       21 0.57913821E-01 0.35770731E+03</pdfrwt>
<pdfrwt beam="2">  1       21 0.54054027E-01 0.35770731E+03</pdfrwt>
<totfact> 0.82947086E+03</totfact>
</mgrwt>
</event>
<event>
12    1  0.1029207E-001  0.1806386E+03  0.7546771E-02  0.1167410E+00
         21   -1    0    0  501  502  0.00000000000E+00  0.00000000000E+00  0.54694096011E+03  0.54694096011E+03  0.00000000000E+00 0. -1.
         21   -1    0    0  502  503 -0.00000000000E+00 -0.00000000000E+00 -0.59948062611E+02  0.59948062611E+02  0.00000000000E+00 0. -1.
         -6    2    1    2    0  503  0.49021340491E+02  0.21161084127E+01  0.21391459198E+03  0.27998171709E+03  0.17384688522E+03 0.  0.
        -24    2    3    3    0    0  0.63357206404E+02  0.10637776234E+02  0.47702869532E+02  0.11286929219E+03  0.79602860953E+02 0.  0.
          6    2    1    2  501    0 -0.49021340491E+02 -0.21161084127E+01  0.27307830551E+03  0.32690730563E+03  0.17288451578E+03 0.  0.
         24    2    5    5    0    0  0.25673047282E+02  0.83461978167E+00  0.21667659955E+03  0.23314590208E+03  0.82149016516E+02 0.  0.
          5    1    5    5  501    0 -0.74694387772E+02 -0.29507281944E+01  0.56401705963E+02  0.93761403558E+02  0.47000000000E+01 0. -1.
        -13    1    6    6    0    0 -0.18820620460E+02  0.15467616619E+02  0.21706669500E+02  0.32628858686E+02  0.00000000000E+00 0.  1.
         14    1    6    6    0    0  0.44493667741E+02 -0.14632996837E+02  0.19496993005E+03  0.20051704339E+03  0.00000000000E+00 0. -1.
         -5    1    3    3    0  503 -0.14335865913E+02 -0.85216678214E+01  0.16621172245E+03  0.16711242489E+03  0.47000000000E+01 0.  1.
         11    1    4    4    0    0  0.32072031718E+01  0.15591742686E+02  0.49999180118E+02  0.52471960176E+02  0.00000000000E+00 0. -1.
        -12    1    4    4    0    0  0.60150003232E+02 -0.49539664518E+01 -0.22963105867E+01  0.60397332017E+02  0.00000000000E+00 0.  1.
<mgrwt>
<rscale>  2 0.18040667E+03</rscale>
<asrwt>0</asrwt>
<pdfrwt beam="1">  1       21 0.84144760E-01 0.18063862E+03</pdfrwt>
<pdfrwt beam="2">  1       21 0.92227792E-02 0.18063862E+03</pdfrwt>
<totfact> 0.11527459E+05</totfact>
</mgrwt>
</event>
<event>
12    1  0.1029207E-001  0.2264567E+03  0.7546771E-02  0.1129977E+00
         21   -1    0    0  501  502  0.00000000000E+00  0.00000000000E+00  0.24677810474E+03  0.24677810474E+03  0.00000000000E+00 0. -1.
         21   -1    0    0  502  503 -0.00000000000E+00 -0.00000000000E+00 -0.20395169589E+03  0.20395169589E+03  0.00000000000E+00 0. -1.
         -6    2    1    2    0  503 -0.11413513132E+03  0.81002882342E+02  0.29634169878E+02  0.22838740381E+03  0.17802900619E+03 0.  0.
        -24    2    3    3    0    0 -0.68615322012E+02  0.50938849199E+02 -0.50164256885E+02  0.13161045386E+03  0.86614260505E+02 0.  0.
          6    2    1    2  501    0  0.11413513132E+03 -0.81002882342E+02  0.13192238971E+02  0.22234239682E+03  0.17226088096E+03 0.  0.
         24    2    5    5    0    0  0.61998320677E-01 -0.13078451908E+01 -0.78375252391E+01  0.81529330666E+02  0.81141177303E+02 0.  0.
          5    1    5    5  501    0  0.11407313300E+03 -0.79695037151E+02  0.21029764210E+02  0.14081306616E+03  0.47000000000E+01 0. -1.
        -13    1    6    6    0    0 -0.24623937752E+02 -0.50647026686E+01 -0.35988679389E+02  0.43899596441E+02  0.00000000000E+00 0.  1.
         14    1    6    6    0    0  0.24685936072E+02  0.37568574778E+01  0.28151154150E+02  0.37629734225E+02  0.00000000000E+00 0. -1.
         -5    1    3    3    0  503 -0.45519809306E+02  0.30064033143E+02  0.79798426763E+02  0.96776949951E+02  0.47000000000E+01 0.  1.
         11    1    4    4    0    0 -0.31192488526E+02  0.27863262317E+02  0.21886262186E+02  0.47205309021E+02  0.00000000000E+00 0. -1.
        -12    1    4    4    0    0 -0.37422833486E+02  0.23075586882E+02 -0.72050519071E+02  0.84405144834E+02  0.00000000000E+00 0.  1.
<mgrwt>
<rscale>  2 0.22532167E+03</rscale>
<asrwt>0</asrwt>
<pdfrwt beam="1">  1       21 0.37965863E-01 0.22645667E+03</pdfrwt>
<pdfrwt beam="2">  1       21 0.31377184E-01 0.22645667E+03</pdfrwt>
<totfact> 0.64351775E+04</totfact>
</mgrwt>
</event>
<event>
12    1  0.1029207E-001  0.1891647E+03  0.7546771E-02  0.1159512E+00
         21   -1    0    0  501  502  0.00000000000E+00  0.00000000000E+00  0.59639773536E+03  0.59639773536E+03  0.00000000000E+00 0.  1.
         21   -1    0    0  502  503 -0.00000000000E+00 -0.00000000000E+00 -0.81883414614E+02  0.81883414614E+02  0.00000000000E+00 0.  1.
         -6    2    1    2    0  503  0.30368714892E+02 -0.64789215434E+02  0.80938793117E+02  0.20575317907E+03  0.17510962619E+03 0.  0.
        -24    2    3    3    0    0  0.55126898898E+02 -0.88737880226E+02  0.10074696884E+03  0.16574118029E+03  0.80042493367E+02 0.  0.
          6    2    1    2  501    0 -0.30368714892E+02  0.64789215434E+02  0.43357552763E+03  0.47252797091E+03  0.17370965388E+03 0.  0.
         24    2    5    5    0    0  0.17673525936E+02 -0.22100694731E+02  0.24349684050E+03  0.25802876184E+03  0.80544002722E+02 0.  0.
          5    1    5    5  501    0 -0.48042240828E+02  0.86889910165E+02  0.19007868713E+03  0.21449920907E+03  0.47000000000E+01 0. -1.
        -11    1    6    6    0    0  0.23328853669E+02  0.43124336560E+01  0.15280130446E+02  0.28219051791E+02  0.00000000000E+00 0.  1.
         12    1    6    6    0    0 -0.56553277328E+01 -0.26413128387E+02  0.22821671005E+03  0.22980971004E+03  0.00000000000E+00 0. -1.
         -5    1    3    3    0  503 -0.24758184006E+02  0.23948664792E+02 -0.19808175723E+02  0.40011998776E+02  0.47000000000E+01 0.  1.
         11    1    4    4    0    0  0.57285799139E+02 -0.47532512060E+02  0.99755332149E+02  0.12446738038E+03  0.00000000000E+00 0. -1.
        -12    1    4    4    0    0 -0.21589002408E+01 -0.41205368166E+02  0.99163669046E+00  0.41273799913E+02  0.00000000000E+00 0.  1.
<mgrwt>
<rscale>  2 0.18884006E+03</rscale>
<asrwt>0</asrwt>
<pdfrwt beam="1">  1       21 0.91753495E-01 0.18916470E+03</pdfrwt>
<pdfrwt beam="2">  1       21 0.12597449E-01 0.18916470E+03</pdfrwt>
<totfact> 0.54127096E+04</totfact>
</mgrwt>
</event>
<event>
12    1  0.1029207E-001  0.1942981E+03  0.7546771E-02  0.1155226E+00
         21   -1    0    0  503  502  0.00000000000E+00  0.00000000000E+00  0.40819193027E+03  0.40819193027E+03  0.00000000000E+00 0. -1.
         21   -1    0    0  501  503 -0.00000000000E+00 -0.00000000000E+00 -0.10893364917E+03  0.10893364917E+03  0.00000000000E+00 0. -1.
          6    2    1    2  501    0 -0.25370259076E+02  0.78433621483E+02  0.46248042409E+02  0.19972638901E+03  0.17594392862E+03 0.  0.
         24    2    3    3    0    0 -0.31291515884E+01  0.39322642961E+02 -0.43093895396E+02  0.99584452973E+02  0.80646869836E+02 0.  0.
         -6    2    1    2    0  502  0.25370259076E+02 -0.78433621483E+02  0.25301023870E+03  0.31739919043E+03  0.17301035279E+03 0.  0.
        -24    2    5    5    0    0  0.14026813637E+01  0.74048672955E+01  0.19423838563E+03  0.21053988269E+03  0.80880728093E+02 0.  0.
          5    1    3    3  501    0 -0.22241107488E+02  0.39110978522E+02  0.89341937805E+02  0.10014193604E+03  0.47000000000E+01 0. -1.
        -13    1    4    4    0    0  0.24932225322E+01 -0.98858718509E+01  0.18151254842E+02  0.20818613623E+02  0.00000000000E+00 0.  1.
         14    1    4    4    0    0 -0.56223741206E+01  0.49208514812E+02 -0.61245150238E+02  0.78765839349E+02  0.00000000000E+00 0. -1.
         -5    1    5    5    0  502  0.23967577712E+02 -0.85838488779E+02  0.58771853070E+02  0.10685930774E+03  0.47000000000E+01 0.  1.
         11    1    6    6    0    0 -0.37881285056E+02 -0.81887693325E+01  0.85392464320E+02  0.93775906625E+02  0.00000000000E+00 0. -1.
        -12    1    6    6    0    0  0.39283966420E+02  0.15593636628E+02  0.10884592131E+03  0.11676397606E+03  0.00000000000E+00 0.  1.
<mgrwt>
<rscale>  2 0.19363157E+03</rscale>
<asrwt>0</asrwt>
<pdfrwt beam="1">  1       21 0.62798758E-01 0.19429809E+03</pdfrwt>
<pdfrwt beam="2">  1       21 0.16759023E-01 0.19429809E+03</pdfrwt>
<totfact> 0.75170083E+04</totfact>
</mgrwt>
</event>
<event>
12    1  0.1029207E-001  0.2010500E+03  0.7546771E-02  0.1149973E+00
         21   -1    0    0  503  502  0.00000000000E+00  0.00000000000E+00  0.23088283616E+02  0.23088283616E+02  0.00000000000E+00 0. -1.
         21   -1    0    0  501  503 -0.00000000000E+00 -0.00000000000E+00 -0.18565854193E+04  0.18565854193E+04  0.00000000000E+00 0. -1.
          6    2    1    2  501    0 -0.66685505196E+02  0.35983597124E+02 -0.11739042115E+04  0.11901202891E+04  0.18053650297E+03 0.  0.
         24    2    3    3    0    0  0.22297453999E+02  0.49890487675E+01 -0.78774312473E+03  0.79260160528E+03  0.84593185752E+02 0.  0.
         -6    2    1    2    0  502  0.66685505196E+02 -0.35983597124E+02 -0.65959292421E+03  0.68955341383E+03  0.18622381425E+03 0.  0.
        -24    2    5    5    0    0  0.74732026528E+02 -0.89030604430E+02 -0.54126327223E+03  0.55954292184E+03  0.81308223474E+02 0.  0.
          5    1    3    3  501    0 -0.88982959195E+02  0.30994548356E+02 -0.38616108675E+03  0.39751868381E+03  0.47000000000E+01 0. -1.
        -11    1    4    4    0    0  0.78009502128E+01 -0.24881328654E+02 -0.81313503410E+02  0.85392161096E+02  0.00000000000E+00 0.  1.
         12    1    4    4    0    0  0.14496503786E+02  0.29870377422E+02 -0.70642962132E+03  0.70720944419E+03  0.00000000000E+00 0. -1.
         -5    1    5    5    0  502 -0.80465213320E+01  0.53047007307E+02 -0.11832965198E+03  0.13001049199E+03  0.47000000000E+01 0.  1.
         11    1    6    6    0    0  0.20967246363E+01  0.11625430644E+02 -0.16461264282E+02  0.20261295951E+02  0.00000000000E+00 0. -1.
        -12    1    6    6    0    0  0.72635301892E+02 -0.10065603507E+03 -0.52480200795E+03  0.53928162589E+03  0.00000000000E+00 0.  1.
<mgrwt>
<rscale>  2 0.19972283E+03</rscale>
<asrwt>0</asrwt>
<pdfrwt beam="1">  1       21 0.35520420E-02 0.20104996E+03</pdfrwt>
<pdfrwt beam="2">  1       21 0.28562865E+00 0.20104996E+03</pdfrwt>
<totfact> 0.19580737E+04</totfact>
</mgrwt>
</event>
<event>
12    1  0.1029207E-001  0.2501961E+03  0.7546771E-02  0.1113377E+00
         21   -1    0    0  503  502  0.00000000000E+00  0.00000000000E+00  0.87535340834E+02  0.87535340834E+02  0.00000000000E+00 0. -1.
         21   -1    0    0  501  503 -0.00000000000E+00 -0.00000000000E+00 -0.74340136983E+03  0.74340136983E+03  0.00000000000E+00 0.  1.
          6    2    1    2  501    0  0.42268333934E+02 -0.17682127639E+03 -0.24120577413E+03  0.34664215958E+03  0.17008287828E+03 0.  0.
         24    2    3    3    0    0 -0.92635381473E+01 -0.11847522755E+03 -0.72154882921E+02  0.16046995683E+03  0.80137926316E+02 0.  0.
         -6    2    1    2    0  502 -0.42268333934E+02  0.17682127639E+03 -0.41466025486E+03  0.48429455109E+03  0.17188865412E+03 0.  0.
        -24    2    5    5    0    0  0.71191672443E+01  0.18087668097E+03 -0.30328734062E+03  0.36230443835E+03  0.80710834507E+02 0.  0.
          5    1    3    3  501    0  0.51531872081E+02 -0.58346048844E+02 -0.16905089121E+03  0.18617220275E+03  0.47000000000E+01 0. -1.
        -13    1    4    4    0    0 -0.28661996109E+02 -0.10746529495E+03 -0.79803259967E+02  0.13688995559E+03  0.00000000000E+00 0.  1.
         14    1    4    4    0    0  0.19398457962E+02 -0.11009932597E+02  0.76483770463E+01  0.23580001241E+02  0.00000000000E+00 0. -1.
         -5    1    5    5    0  502 -0.49387501178E+02 -0.40554045843E+01 -0.11137291424E+03  0.12199011274E+03  0.47000000000E+01 0.  1.
         11    1    6    6    0    0 -0.21700219395E+02  0.19648473814E+02 -0.21298654662E+02  0.36202137167E+02  0.00000000000E+00 0. -1.
        -12    1    6    6    0    0  0.28819386639E+02  0.16122820716E+03 -0.28198868596E+03  0.32610230119E+03  0.00000000000E+00 0.  1.
<mgrwt>
<rscale>  2 0.24988623E+03</rscale>
<asrwt>0</asrwt>
<pdfrwt beam="1">  1       21 0.13466976E-01 0.25019609E+03</pdfrwt>
<pdfrwt beam="2">  1       21 0.11436944E+00 0.25019609E+03</pdfrwt>
<totfact> 0.27471561E+04</totfact>
</mgrwt>
</event>
<event>
12    1  0.1029207E-001  0.1907403E+03  0.7546771E-02  0.1157988E+00
         21   -1    0    0  501  502  0.00000000000E+00  0.00000000000E+00  0.13968717300E+04  0.13968717300E+04  0.00000000000E+00 0.  1.
         21   -1    0    0  502  503 -0.00000000000E+00 -0.00000000000E+00 -0.98994371901E+02  0.98994371901E+02  0.00000000000E+00 0. -1.
         -6    2    1    2    0  503 -0.42420069241E+02  0.64012680258E+02  0.67592959289E+01  0.19086002860E+03  0.17459890300E+03 0.  0.
        -24    2    3    3    0    0 -0.60855934545E+02  0.94268923541E+02 -0.86439027502E+01  0.15194126813E+03  0.10208504881E+03 0.  0.
          6    2    1    2  501    0  0.42420069241E+02 -0.64012680258E+02  0.12911180621E+04  0.13050060733E+04  0.17366034489E+03 0.  0.
         24    2    5    5    0    0  0.74290996733E+02 -0.50702839399E+00  0.58013644531E+03  0.59046728964E+03  0.81079687286E+02 0.  0.
          5    1    5    5  501    0 -0.31870927492E+02 -0.63505651864E+02  0.71098161683E+03  0.71453878363E+03  0.47000000000E+01 0. -1.
        -13    1    6    6    0    0  0.40110282785E+02 -0.28771747956E+02  0.14701543482E+03  0.15508122498E+03  0.00000000000E+00 0.  1.
         14    1    6    6    0    0  0.34180713948E+02  0.28264719562E+02  0.43312101049E+03  0.43538606466E+03  0.00000000000E+00 0. -1.
         -5    1    3    3    0  503  0.18435865304E+02 -0.30256243283E+02  0.15403198679E+02  0.38918760471E+02  0.47000000000E+01 0.  1.
         11    1    4    4    0    0  0.14370791174E+02  0.36579426654E+01 -0.28863197433E+02  0.32449720331E+02  0.00000000000E+00 0. -1.
        -12    1    4    4    0    0 -0.75226725719E+02  0.90610980875E+02  0.20219294682E+02  0.11949154780E+03  0.00000000000E+00 0.  1.
<mgrwt>
<rscale>  2 0.19052525E+03</rscale>
<asrwt>0</asrwt>
<pdfrwt beam="1">  1       21 0.21490333E+00 0.19074030E+03</pdfrwt>
<pdfrwt beam="2">  1       21 0.15229904E-01 0.19074030E+03</pdfrwt>
<totfact> 0.41344888E+03</totfact>
</mgrwt>
</event>
<event>
12    1  0.1029207E-001  0.2186899E+03  0.7546771E-02  0.1135602E+00
         21   -1    0    0  501  502  0.00000000000E+00  0.00000000000E+00  0.71112541563E+02  0.71112541563E+02  0.00000000000E+00 0. -1.
         21   -1    0    0  502  503 -0.00000000000E+00 -0.00000000000E+00 -0.67663953997E+03  0.67663953997E+03  0.00000000000E+00 0.  1.
         -6    2    1    2    0  503  0.11653504073E+03  0.53563268887E+02 -0.35764691438E+03  0.41719224568E+03  0.17230384499E+03 0.  0.
        -24    2    3    3    0    0  0.51799700453E+02 -0.30611517247E+02 -0.22619988896E+03  0.24814648444E+03  0.82401541370E+02 0.  0.
          6    2    1    2  501    0 -0.11653504073E+03 -0.53563268887E+02 -0.24788008403E+03  0.33055983586E+03  0.17713223741E+03 0.  0.
         24    2    5    5    0    0 -0.12716775271E+03  0.46751630288E+01 -0.12942860878E+03  0.19805469820E+03  0.79249001442E+02 0.  0.
          5    1    5    5  501    0  0.10632711984E+02 -0.58238431915E+02 -0.11845147526E+03  0.13250513766E+03  0.47000000000E+01 0. -1.
        -13    1    6    6    0    0 -0.10948452804E+03 -0.31818618683E+01 -0.13858860865E+03  0.17664594128E+03  0.00000000000E+00 0.  1.
         14    1    6    6    0    0 -0.17683224674E+02  0.78570248970E+01  0.91599998700E+01  0.21408756917E+02  0.00000000000E+00 0. -1.
         -5    1    3    3    0  503  0.64735340273E+02  0.84174786133E+02 -0.13144702542E+03  0.16904576124E+03  0.47000000000E+01 0.  1.
         13    1    4    4    0    0  0.36073820357E+02 -0.13059956014E+02 -0.25497367169E+02  0.46065157101E+02  0.00000000000E+00 0. -1.
        -14    1    4    4    0    0  0.15725880097E+02 -0.17551561233E+02 -0.20070252179E+03  0.20208132734E+03  0.00000000000E+00 0.  1.
<mgrwt>
<rscale>  2 0.21771028E+03</rscale>
<asrwt>0</asrwt>
<pdfrwt beam="1">  1       21 0.10940390E-01 0.21868989E+03</pdfrwt>
<pdfrwt beam="2">  1       21 0.10409840E+00 0.21868989E+03</pdfrwt>
<totfact> 0.50945054E+04</totfact>
</mgrwt>
</event>
<event>
12    1  0.1029207E-001  0.2023226E+03  0.7546771E-02  0.1148024E+00
         21   -1    0    0  501  502  0.00000000000E+00  0.00000000000E+00  0.18780607107E+03  0.18780607107E+03  0.00000000000E+00 0.  1.
         21   -1    0    0  502  503 -0.00000000000E+00 -0.00000000000E+00 -0.38978489554E+03  0.38978489554E+03  0.00000000000E+00 0.  1.
         -6    2    1    2    0  503  0.87887650874E+02  0.53060257764E+02 -0.29323956608E+03  0.35563833043E+03  0.17305937947E+03 0.  0.
        -24    2    3    3    0    0  0.66303559442E+02  0.91851612307E+02 -0.14402917411E+03  0.19989343240E+03  0.79875532190E+02 0.  0.
          6    2    1    2  501    0 -0.87887650874E+02 -0.53060257764E+02  0.91260741607E+02  0.22195263619E+03  0.17434110135E+03 0.  0.
         24    2    5    5    0    0 -0.10721522506E+03 -0.15197036991E+02  0.16454345840E+02  0.13578265615E+03  0.80250419292E+02 0.  0.
          5    1    5    5  501    0  0.19327574188E+02 -0.37863220773E+02  0.74806395768E+02  0.86169980034E+02  0.47000000000E+01 0. -1.
        -11    1    6    6    0    0 -0.70738764391E+02 -0.47030674402E+02  0.19900701046E+02  0.87246174841E+02  0.00000000000E+00 0.  1.
         12    1    6    6    0    0 -0.36476460671E+02  0.31833637411E+02 -0.34463552066E+01  0.48536481312E+02  0.00000000000E+00 0. -1.
         -5    1    3    3    0  503  0.21584091432E+02 -0.38791354543E+02 -0.14921039197E+03  0.15574489803E+03  0.47000000000E+01 0.  1.
         13    1    4    4    0    0  0.26241649259E+02  0.64293051671E+02 -0.29460649559E+02  0.75433086384E+02  0.00000000000E+00 0. -1.
        -14    1    4    4    0    0  0.40061910183E+02  0.27558560637E+02 -0.11456852455E+03  0.12446034602E+03  0.00000000000E+00 0.  1.
<mgrwt>
<rscale>  2 0.20204622E+03</rscale>
<asrwt>0</asrwt>
<pdfrwt beam="1">  1       21 0.28893242E-01 0.20232264E+03</pdfrwt>
<pdfrwt beam="2">  1       21 0.59966907E-01 0.20232264E+03</pdfrwt>
<totfact> 0.29582582E+04</totfact>
</mgrwt>
</event>
<event>
12    1  0.1029207E-001  0.1758028E+03  0.7546771E-02  0.1171952E+00
         21   -1    0    0  503  502  0.00000000000E+00  0.00000000000E+00  0.40064493208E+03  0.40064493208E+03  0.00000000000E+00 0. -1.
         21   -1    0    0  501  503 -0.00000000000E+00 -0.00000000000E+00 -0.20677464786E+03  0.20677464786E+03  0.00000000000E+00 0. -1.
          6    2    1    2  501    0  0.12607914541E+02  0.30106913717E+02 -0.14358735031E+03  0.22691430611E+03  0.17264816647E+03 0.  0.
         24    2    3    3    0    0  0.64446550597E+02 -0.32813380731E+01 -0.12297834539E+03  0.16173117463E+03  0.82880482309E+02 0.  0.
         -6    2    1    2    0  502 -0.12607914541E+02 -0.30106913717E+02  0.33745763453E+03  0.38050527383E+03  0.17274612164E+03 0.  0.
        -24    2    5    5    0    0  0.36485891073E+02 -0.52544478968E+02  0.28603265675E+03  0.30580410634E+03  0.87231463407E+02 0.  0.
          5    1    3    3  501    0 -0.51838636056E+02  0.33388251790E+02 -0.20609004915E+02  0.65183131479E+02  0.47000000000E+01 0. -1.
        -13    1    4    4    0    0  0.20389900831E+02  0.33007530020E+01  0.89309154250E+01  0.22503428108E+02  0.00000000000E+00 0.  1.
         14    1    4    4    0    0  0.44056649766E+02 -0.65820910750E+01 -0.13190926082E+03  0.13922774652E+03  0.00000000000E+00 0. -1.
         -5    1    5    5    0  502 -0.49093805614E+02  0.22437565251E+02  0.51424977781E+02  0.74701167487E+02  0.47000000000E+01 0.  1.
         11    1    6    6    0    0  0.38254864085E+02 -0.18053963503E+02  0.42960734147E+02  0.60291001839E+02  0.00000000000E+00 0. -1.
        -12    1    6    6    0    0 -0.17689730124E+01 -0.34490515466E+02  0.24307192261E+03  0.24551310450E+03  0.00000000000E+00 0.  1.
<mgrwt>
<rscale>  2 0.17577869E+03</rscale>
<asrwt>0</asrwt>
<pdfrwt beam="1">  1       21 0.61637682E-01 0.17580275E+03</pdfrwt>
<pdfrwt beam="2">  1       21 0.31811484E-01 0.17580275E+03</pdfrwt>
<totfact> 0.23463837E+04</totfact>
</mgrwt>
</event>
<event>
12    1  0.1029207E-001  0.2011197E+03  0.7546771E-02  0.1149325E+00
         21   -1    0    0  503  502  0.00000000000E+00  0.00000000000E+00  0.19753302959E+02  0.19753302959E+02  0.00000000000E+00 0. -1.
         21   -1    0    0  501  503 -0.00000000000E+00 -0.00000000000E+00 -0.20494496517E+04  0.20494496517E+04  0.00000000000E+00 0. -1.
          6    2    1    2  501    0  0.79998267310E+02 -0.59574867397E+02 -0.11401796164E+04  0.11577817949E+04  0.17464317727E+03 0.  0.
         24    2    3    3    0    0  0.12134840282E+03 -0.61994448510E+02 -0.84866768801E+03  0.86330432128E+03  0.80552839536E+02 0.  0.
         -6    2    1    2    0  502 -0.79998267310E+02  0.59574867397E+02 -0.88951673231E+03  0.91142115972E+03  0.17175455083E+03 0.  0.
        -24    2    5    5    0    0 -0.38450829513E+02 -0.28662449543E+02 -0.33467014849E+03  0.34804842763E+03  0.82665575549E+02 0.  0.
          5    1    3    3  501    0 -0.41350135512E+02  0.24195811131E+01 -0.29151192841E+03  0.29447747365E+03  0.47000000000E+01 0. -1.
        -11    1    4    4    0    0  0.55354467543E+02 -0.64375225558E+02 -0.60169202872E+03  0.60765251927E+03  0.00000000000E+00 0.  1.
         12    1    4    4    0    0  0.65993935279E+02  0.23807770480E+01 -0.24697565929E+03  0.25565180201E+03  0.00000000000E+00 0. -1.
         -5    1    5    5    0  502 -0.41547437797E+02  0.88237316940E+02 -0.55484658381E+03  0.56337273209E+03  0.47000000000E+01 0.  1.
         13    1    6    6    0    0  0.24891866589E+02  0.69978401318E+00 -0.10984519176E+03  0.11263241484E+03  0.00000000000E+00 0. -1.
        -14    1    6    6    0    0 -0.63342696102E+02 -0.29362233556E+02 -0.22482495673E+03  0.23541601279E+03  0.00000000000E+00 0.  1.
<mgrwt>
<rscale>  2 0.20049094E+03</rscale>
<asrwt>0</asrwt>
<pdfrwt beam="1">  1       21 0.30389717E-02 0.20111968E+03</pdfrwt>
<pdfrwt beam="2">  1       21 0.31529974E+00 0.20111968E+03</pdfrwt>
<totfact> 0.17106427E+04</totfact>
</mgrwt>
</event>
<event>
12    1  0.1029207E-001  0.1935028E+03  0.7546771E-02  0.1155613E+00
         21   -1    0    0  501  502  0.00000000000E+00  0.00000000000E+00  0.62560610719E+02  0.62560610719E+02  0.00000000000E+00 0.  1.
         21   -1    0    0  502  503 -0.00000000000E+00 -0.00000000000E+00 -0.73767022713E+03  0.73767022713E+03  0.00000000000E+00 0.  1.
         -6    2    1    2    0  503 -0.44059955869E+02 -0.70885073787E+02 -0.16227671594E+03  0.25254120127E+03  0.17457764006E+03 0.  0.
        -24    2    3    3    0    0 -0.22253330412E+02 -0.11626284584E+03 -0.12181970529E+03  0.18778372433E+03  0.80065139032E+02 0.  0.
          6    2    1    2  501    0  0.44059955869E+02  0.70885073787E+02 -0.51283290047E+03  0.54768963657E+03  0.17320618004E+03 0.  0.
         24    2    5    5    0    0 -0.52227868455E+01 -0.21355803734E+02 -0.28838559132E+03  0.30002887505E+03  0.79798049620E+02 0.  0.
          5    1    5    5  501    0  0.49282742715E+02  0.92240877521E+02 -0.22444730915E+03  0.24766076153E+03  0.47000000000E+01 0. -1.
        -11    1    6    6    0    0 -0.39638048794E+02  0.26934825040E+01 -0.11643175682E+03  0.12302350896E+03  0.00000000000E+00 0.  1.
         12    1    6    6    0    0  0.34415261949E+02 -0.24049286238E+02 -0.17195383451E+03  0.17700536609E+03  0.00000000000E+00 0. -1.
         -5    1    3    3    0  503 -0.21806625457E+02  0.45377772051E+02 -0.40457010642E+02  0.64757476945E+02  0.47000000000E+01 0.  1.
         11    1    4    4    0    0 -0.41708843318E+02 -0.23153266030E+02 -0.37691026859E+02  0.60797325965E+02  0.00000000000E+00 0. -1.
        -12    1    4    4    0    0  0.19455512905E+02 -0.93109579808E+02 -0.84128678436E+02  0.12698639837E+03  0.00000000000E+00 0.  1.
<mgrwt>
<rscale>  2 0.19319293E+03</rscale>
<asrwt>0</asrwt>
<pdfrwt beam="1">  1       21 0.96247098E-02 0.19350278E+03</pdfrwt>
<pdfrwt beam="2">  1       21 0.11348772E+00 0.19350278E+03</pdfrwt>
<totfact> 0.52540835E+04</totfact>
</mgrwt>
</event>
<event>
12    1  0.1029207E-001  0.2173351E+03  0.7546771E-02  0.1136319E+00
         21   -1    0    0  503  502  0.00000000000E+00  0.00000000000E+00  0.56367595405E+03  0.56367595405E+03  0.00000000000E+00 0.  1.
         21   -1    0    0  501  503 -0.00000000000E+00 -0.00000000000E+00 -0.42348470285E+03  0.42348470285E+03  0.00000000000E+00 0. -1.
          6    2    1    2  501    0  0.11072127732E+03  0.64747993357E+02 -0.37260236360E+03  0.43021197300E+03  0.17262188869E+03 0.  0.
         24    2    3    3    0    0  0.91677762872E+02  0.11685151989E+02 -0.11926639489E+03  0.17063631231E+03  0.79692679384E+02 0.  0.
         -6    2    1    2    0  502 -0.11072127732E+03 -0.64747993357E+02  0.51279361480E+03  0.55694868390E+03  0.17545096530E+03 0.  0.
        -24    2    5    5    0    0 -0.47551435221E+02  0.25841994975E+02  0.31751389034E+03  0.33255341719E+03  0.82751175401E+02 0.  0.
          5    1    3    3  501    0  0.19043514448E+02  0.53062841369E+02 -0.25333596871E+03  0.25957566069E+03  0.47000000000E+01 0. -1.
        -13    1    4    4    0    0  0.16865815097E+02 -0.29248599567E+02 -0.18053605546E+02  0.38286668289E+02  0.00000000000E+00 0.  1.
         14    1    4    4    0    0  0.74811947774E+02  0.40933751555E+02 -0.10121278934E+03  0.13234964402E+03  0.00000000000E+00 0. -1.
         -5    1    5    5    0  502 -0.63169842099E+02 -0.90589988332E+02  0.19527972447E+03  0.22439526672E+03  0.47000000000E+01 0.  1.
         13    1    6    6    0    0 -0.78034417162E+01  0.46059587300E+02  0.98122406117E+02  0.10867559923E+03  0.00000000000E+00 0. -1.
        -14    1    6    6    0    0 -0.39747993505E+02 -0.20217592325E+02  0.21939148422E+03  0.22387781796E+03  0.00000000000E+00 0.  1.
<mgrwt>
<rscale>  2 0.21676350E+03</rscale>
<asrwt>0</asrwt>
<pdfrwt beam="1">  1       21 0.86719378E-01 0.21733510E+03</pdfrwt>
<pdfrwt beam="2">  1       21 0.65151492E-01 0.21733510E+03</pdfrwt>
<totfact> 0.24302682E+03</totfact>
</mgrwt>
</event>
<event>
12    1  0.1029207E-001  0.2808737E+03  0.7546771E-02  0.1095389E+00
         21   -1    0    0  503  502  0.00000000000E+00  0.00000000000E+00  0.45631386099E+03  0.45631386099E+03  0.00000000000E+00 0. -1.
         21   -1    0    0  501  503 -0.00000000000E+00 -0.00000000000E+00 -0.17594114810E+03  0.17594114810E+03  0.00000000000E+00 0. -1.
          6    2    1    2  501    0 -0.21268084549E+03 -0.56755377714E+02  0.18663276804E+03  0.33615158207E+03  0.17237105640E+03 0.  0.
         24    2    3    3    0    0 -0.13388750675E+03  0.97923928060E+01  0.17095164442E+03  0.23172465245E+03  0.80312479762E+02 0.  0.
         -6    2    1    2    0  502  0.21268084549E+03  0.56755377714E+02  0.93739944846E+02  0.29610342702E+03  0.17445844003E+03 0.  0.
        -24    2    5    5    0    0  0.21743207714E+03  0.29447352380E+02  0.11549284107E+03  0.26055654327E+03  0.80045369456E+02 0.  0.
          5    1    3    3  501    0 -0.78793338740E+02 -0.66547770520E+02  0.15681123627E+02  0.10442692962E+03  0.47000000000E+01 0. -1.
        -11    1    4    4    0    0 -0.25390356205E+02 -0.17465807315E+02  0.85705538731E+02  0.91077790830E+02  0.00000000000E+00 0.  1.
         12    1    4    4    0    0 -0.10849715054E+03  0.27258200121E+02  0.85246105688E+02  0.14064686162E+03  0.00000000000E+00 0. -1.
         -5    1    5    5    0  502 -0.47512316570E+01  0.27308025334E+02 -0.21752896224E+02  0.35546883746E+02  0.47000000000E+01 0.  1.
         11    1    6    6    0    0  0.35922767188E+02  0.28980417882E+02  0.48832115288E+02  0.67192896251E+02  0.00000000000E+00 0. -1.
        -12    1    6    6    0    0  0.18150930996E+03  0.46693449807E+00  0.66660725782E+02  0.19336364702E+03  0.00000000000E+00 0.  1.
<mgrwt>
<rscale>  2 0.28055025E+03</rscale>
<asrwt>0</asrwt>
<pdfrwt beam="1">  1       21 0.70202132E-01 0.28087375E+03</pdfrwt>
<pdfrwt beam="2">  1       21 0.27067869E-01 0.28087375E+03</pdfrwt>
<totfact> 0.22909702E+04</totfact>
</mgrwt>
</event>
<event>
12    1  0.1029207E-001  0.2776162E+03  0.7546771E-02  0.1097130E+00
         21   -1    0    0  501  502  0.00000000000E+00  0.00000000000E+00  0.22443653465E+03  0.22443653465E+03  0.00000000000E+00 0. -1.
         21   -1    0    0  502  503 -0.00000000000E+00 -0.00000000000E+00 -0.38354433689E+03  0.38354433689E+03  0.00000000000E+00 0.  1.
         -6    2    1    2    0  503 -0.72272739645E+02 -0.20429642542E+03  0.20350335532E+02  0.27741166380E+03  0.17199626950E+03 0.  0.
        -24    2    3    3    0    0 -0.73858517841E+02 -0.50842725898E+02  0.29838934000E+02  0.12358489081E+03  0.79641696488E+02 0.  0.
          6    2    1    2  501    0  0.72272739645E+02  0.20429642542E+03 -0.17945813778E+03  0.33056920774E+03  0.17352348416E+03 0.  0.
         24    2    5    5    0    0 -0.42661541381E+01  0.12235738001E+03 -0.28647904845E+02  0.14258509729E+03  0.67233020184E+02 0.  0.
          5    1    5    5  501    0  0.76538893783E+02  0.81939045405E+02 -0.15081023293E+03  0.18798411045E+03  0.47000000000E+01 0. -1.
        -11    1    6    6    0    0 -0.35069361999E+02  0.57081344876E+02 -0.19846799887E+02  0.69871564671E+02  0.00000000000E+00 0.  1.
         12    1    6    6    0    0  0.30803207861E+02  0.65276035139E+02 -0.88011049588E+01  0.72713532623E+02  0.00000000000E+00 0. -1.
         -5    1    3    3    0  503  0.15857781960E+01 -0.15345369952E+03 -0.94885984685E+01  0.15382677300E+03  0.47000000000E+01 0.  1.
         13    1    4    4    0    0 -0.52813230401E+02  0.10675205476E+02  0.55031791034E+01  0.54161631231E+02  0.00000000000E+00 0. -1.
        -14    1    4    4    0    0 -0.21045287440E+02 -0.61517931374E+02  0.24335754897E+02  0.69423259578E+02  0.00000000000E+00 0.  1.
<mgrwt>
<rscale>  2 0.27737793E+03</rscale>
<asrwt>0</asrwt>
<pdfrwt beam="1">  1       21 0.34528698E-01 0.27761624E+03</pdfrwt>
<pdfrwt beam="2">  1       21 0.59006821E-01 0.27761624E+03</pdfrwt>
<totfact> 0.20786014E+04</totfact>
</mgrwt>
</event>
<event>
12    1  0.1029207E-001  0.2145394E+03  0.7546771E-02  0.1138460E+00
         21   -1    0    0  503  502  0.00000000000E+00  0.00000000000E+00  0.55690850359E+02  0.55690850359E+02  0.00000000000E+00 0.  1.
         21   -1    0    0  501  503 -0.00000000000E+00 -0.00000000000E+00 -0.93239298180E+03  0.93239298180E+03  0.00000000000E+00 0.  1.
          6    2    1    2  501    0 -0.11915391406E+03 -0.27722337390E+02 -0.26308683827E+03  0.33804467802E+03  0.17347431117E+03 0.  0.
         24    2    3    3    0    0 -0.12914439984E+03 -0.54455719321E+02 -0.15359441418E+03  0.22479643543E+03  0.85431211738E+02 0.  0.
         -6    2    1    2    0  502  0.11915391406E+03  0.27722337390E+02 -0.61361529317E+03  0.65003915414E+03  0.17624128540E+03 0.  0.
        -24    2    5    5    0    0  0.44870889157E+02  0.37815361182E+02 -0.52207339687E+03  0.53162527955E+03  0.81372033908E+02 0.  0.
          5    1    3    3  501    0  0.99904857761E+01  0.26733381931E+02 -0.10949242409E+03  0.11324824259E+03  0.47000000000E+01 0. -1.
        -13    1    4    4    0    0 -0.34622902131E+02  0.20271661955E+02 -0.60208712220E+02  0.72351742602E+02  0.00000000000E+00 0.  1.
         14    1    4    4    0    0 -0.94521497705E+02 -0.74727381277E+02 -0.93385701963E+02  0.15244469283E+03  0.00000000000E+00 0. -1.
         -5    1    5    5    0  502  0.74283024902E+02 -0.10093023793E+02 -0.91541896300E+02  0.11841387459E+03  0.47000000000E+01 0.  1.
         13    1    6    6    0    0 -0.23777107611E+02  0.14344781843E+02 -0.14689980513E+03  0.14950142595E+03  0.00000000000E+00 0. -1.
        -14    1    6    6    0    0  0.68647996768E+02  0.23470579340E+02 -0.37517359174E+03  0.38212385360E+03  0.00000000000E+00 0.  1.
<mgrwt>
<rscale>  2 0.21397039E+03</rscale>
<asrwt>0</asrwt>
<pdfrwt beam="1">  1       21 0.85678228E-02 0.21453945E+03</pdfrwt>
<pdfrwt beam="2">  1       21 0.14344508E+00 0.21453945E+03</pdfrwt>
<totfact> 0.35314869E+04</totfact>
</mgrwt>
</event>
<event>
12    1  0.1029207E-001  0.1908799E+03  0.7546771E-02  0.1158645E+00
         21   -1    0    0  503  502  0.00000000000E+00  0.00000000000E+00  0.64450397880E+02  0.64450397880E+02  0.00000000000E+00 0.  1.
         21   -1    0    0  501  503 -0.00000000000E+00 -0.00000000000E+00 -0.57248252865E+03  0.57248252865E+03  0.00000000000E+00 0. -1.
          6    2    1    2  501    0 -0.30028845214E+02  0.65560299253E+02 -0.19755313655E+03  0.27470417523E+03  0.17673499299E+03 0.  0.
         24    2    3    3    0    0  0.13903942286E+01 -0.22563280653E+02 -0.14247088917E+03  0.16603459384E+03  0.82210080052E+02 0.  0.
         -6    2    1    2    0  502  0.30028845214E+02 -0.65560299253E+02 -0.31047899423E+03  0.36222875130E+03  0.17208305562E+03 0.  0.
        -24    2    5    5    0    0 -0.11012841446E+01  0.26772964282E+02 -0.17815474303E+03  0.19783193271E+03  0.81733449041E+02 0.  0.
          5    1    3    3  501    0 -0.31419239443E+02  0.88123579906E+02 -0.55082247375E+02  0.10866958139E+03  0.47000000000E+01 0. -1.
        -13    1    4    4    0    0  0.23480119267E+02 -0.65508103448E+01 -0.37588461233E+01  0.24664915186E+02  0.00000000000E+00 0.  1.
         14    1    4    4    0    0 -0.22089725038E+02 -0.16012470308E+02 -0.13871204305E+03  0.14136967866E+03  0.00000000000E+00 0. -1.
         -5    1    5    5    0  502  0.31130129359E+02 -0.92333263535E+02 -0.13232425119E+03  0.16439681859E+03  0.47000000000E+01 0.  1.
         11    1    6    6    0    0  0.34152170696E+02  0.34597592033E+02 -0.84959698195E+02  0.97885210605E+02  0.00000000000E+00 0. -1.
        -12    1    6    6    0    0 -0.35253454840E+02 -0.78246277507E+01 -0.93195044836E+02  0.99946722105E+02  0.00000000000E+00 0.  1.
<mgrwt>
<rscale>  2 0.18979598E+03</rscale>
<asrwt>0</asrwt>
<pdfrwt beam="1">  1       21 0.99154458E-02 0.19087992E+03</pdfrwt>
<pdfrwt beam="2">  1       21 0.88074235E-01 0.19087992E+03</pdfrwt>
<totfact> 0.91039294E+04</totfact>
</mgrwt>
</event>
<event>
12    1  0.1029207E-001  0.1820696E+03  0.7546771E-02  0.1166007E+00
         21   -1    0    0  503  502  0.00000000000E+00  0.00000000000E+00  0.22264363919E+02  0.22264363919E+02  0.00000000000E+00 0.  1.
         21   -1    0    0  501  503 -0.00000000000E+00 -0.00000000000E+00 -0.15610008578E+04  0.15610008578E+04  0.00000000000E+00 0.  1.
          6    2    1    2  501    0  0.47844302590E+02 -0.27977775101E+02 -0.94546017294E+03  0.96267989924E+03  0.17258567899E+03 0.  0.
         24    2    3    3    0    0  0.75225386147E+02 -0.89945523806E+01 -0.36443123382E+03  0.38067748981E+03  0.79783872889E+02 0.  0.
         -6    2    1    2    0  502 -0.47844302590E+02  0.27977775101E+02 -0.59327632098E+03  0.62058532252E+03  0.17342870668E+03 0.  0.
        -24    2    5    5    0    0 -0.96162416608E+02  0.12651099311E+02 -0.34635319206E+03  0.36846894319E+03  0.80009797899E+02 0.  0.
          5    1    3    3  501    0 -0.27381083557E+02 -0.18983222721E+02 -0.58102893912E+03  0.58200240943E+03  0.47000000000E+01 0. -1.
        -11    1    4    4    0    0  0.58999794671E+02 -0.18711708155E+02 -0.35340687570E+03  0.35878618087E+03  0.00000000000E+00 0.  1.
         12    1    4    4    0    0  0.16225591477E+02  0.97171557749E+01 -0.11024358118E+02  0.21891308939E+02  0.00000000000E+00 0. -1.
         -5    1    5    5    0  502  0.48318114018E+02  0.15326675790E+02 -0.24692312891E+03  0.25211637933E+03  0.47000000000E+01 0.  1.
         13    1    6    6    0    0  0.10709539526E+02  0.92071564087E+01 -0.83720737654E+02  0.84903638787E+02  0.00000000000E+00 0. -1.
        -14    1    6    6    0    0 -0.10687195613E+03  0.34439429023E+01 -0.26263245441E+03  0.28356530440E+03  0.00000000000E+00 0.  1.
<mgrwt>
<rscale>  2 0.18186859E+03</rscale>
<asrwt>0</asrwt>
<pdfrwt beam="1">  1       21 0.34252867E-02 0.18206963E+03</pdfrwt>
<pdfrwt beam="2">  1       21 0.24015398E+00 0.18206963E+03</pdfrwt>
<totfact> 0.38925731E+04</totfact>
</mgrwt>
</event>
<event>
12    1  0.1029207E-001  0.3106343E+03  0.7546771E-02  0.1080180E+00
         21   -1    0    0  503  502  0.00000000000E+00  0.00000000000E+00  0.67434070671E+03  0.67434070671E+03  0.00000000000E+00 0.  1.
         21   -1    0    0  501  503 -0.00000000000E+00 -0.00000000000E+00 -0.17506636404E+03  0.17506636404E+03  0.00000000000E+00 0.  1.
          6    2    1    2  501    0 -0.20926477770E+03 -0.14916058092E+03  0.66268027425E+02  0.31650171469E+03  0.17245653903E+03 0.  0.
         24    2    3    3    0    0 -0.13623394304E+03 -0.16407635807E+03  0.19691013883E+02  0.22848187937E+03  0.79595820615E+02 0.  0.
         -6    2    1    2    0  502  0.20926477770E+03  0.14916058092E+03  0.43300631524E+03  0.53290535606E+03  0.17450794652E+03 0.  0.
        -24    2    5    5    0    0  0.11962178617E+03  0.14080924451E+03  0.37521992532E+03  0.42582142818E+03  0.79983006179E+02 0.  0.
          5    1    3    3  501    0 -0.73030834660E+02  0.14915777146E+02  0.46577013543E+02  0.88019835319E+02  0.47000000000E+01 0. -1.
        -11    1    4    4    0    0 -0.72288118054E+02 -0.94019241171E+02  0.50285471863E+02  0.12881699578E+03  0.00000000000E+00 0.  1.
         12    1    4    4    0    0 -0.63945824984E+02 -0.70057116897E+02 -0.30594457981E+02  0.99664883585E+02  0.00000000000E+00 0. -1.
         -5    1    5    5    0  502  0.89642991533E+02  0.83513364076E+01  0.57786389919E+02  0.10708392788E+03  0.47000000000E+01 0.  1.
         13    1    6    6    0    0  0.46414761944E+02  0.11137107221E+03  0.19861496878E+03  0.23239137608E+03  0.00000000000E+00 0. -1.
        -14    1    6    6    0    0  0.73207024221E+02  0.29438172306E+02  0.17660495653E+03  0.19343005210E+03  0.00000000000E+00 0.  1.
<mgrwt>
<rscale>  2 0.31034692E+03</rscale>
<asrwt>0</asrwt>
<pdfrwt beam="1">  1       21 0.10374472E+00 0.31063427E+03</pdfrwt>
<pdfrwt beam="2">  1       21 0.26933287E-01 0.31063427E+03</pdfrwt>
<totfact> 0.92279924E+03</totfact>
</mgrwt>
</event>
<event>
12    1  0.1029207E-001  0.2232887E+03  0.7546771E-02  0.1131688E+00
         21   -1    0    0  503  502  0.00000000000E+00  0.00000000000E+00  0.36987053706E+03  0.36987053706E+03  0.00000000000E+00 0. -1.
         21   -1    0    0  501  503 -0.00000000000E+00 -0.00000000000E+00 -0.25597983735E+03  0.25597983735E+03  0.00000000000E+00 0. -1.
          6    2    1    2  501    0  0.96603795675E+02 -0.98899400348E+02 -0.15895461458E+03  0.27408832566E+03  0.17534097080E+03 0.  0.
         24    2    3    3    0    0  0.58896774125E+02 -0.13323727627E+03 -0.14611509727E+03  0.22128820822E+03  0.79986546730E+02 0.  0.
         -6    2    1    2    0  502 -0.96603795675E+02  0.98899400348E+02  0.27284531429E+03  0.35176204874E+03  0.17371985690E+03 0.  0.
        -24    2    5    5    0    0 -0.10470907102E+02  0.72124945791E+02  0.22198984073E+03  0.24810822536E+03  0.83465887672E+02 0.  0.
          5    1    3    3  501    0  0.37707021550E+02  0.34337875920E+02 -0.12839517306E+02  0.52800117439E+02  0.47000000000E+01 0. -1.
        -13    1    4    4    0    0  0.95077849583E+01 -0.18628079358E+02 -0.74547284000E+02  0.77425453612E+02  0.00000000000E+00 0.  1.
         14    1    4    4    0    0  0.49388989166E+02 -0.11460919691E+03 -0.71567813273E+02  0.14386275461E+03  0.00000000000E+00 0. -1.
         -5    1    5    5    0  502 -0.86132888573E+02  0.26774454557E+02  0.50855473557E+02  0.10365382338E+03  0.47000000000E+01 0.  1.
         13    1    6    6    0    0 -0.38043973480E+02  0.56311776976E+02  0.92539071110E+02  0.11481219372E+03  0.00000000000E+00 0. -1.
        -14    1    6    6    0    0  0.27573066378E+02  0.15813168815E+02  0.12945076962E+03  0.13329603165E+03  0.00000000000E+00 0.  1.
<mgrwt>
<rscale>  2 0.22297033E+03</rscale>
<asrwt>0</asrwt>
<pdfrwt beam="1">  1       21 0.56903160E-01 0.22328869E+03</pdfrwt>
<pdfrwt beam="2">  1       21 0.39381513E-01 0.22328869E+03</pdfrwt>
<totfact> 0.17714053E+04</totfact>
</mgrwt>
</event>
<event>
12    1  0.1029207E-001  0.2082623E+03  0.7546771E-02  0.1143087E+00
         21   -1    0    0  501  502  0.00000000000E+00  0.00000000000E+00  0.44672128870E+02  0.44672128870E+02  0.00000000000E+00 0. -1.
         21   -1    0    0  502  503 -0.00000000000E+00 -0.00000000000E+00 -0.10094048385E+04  0.10094048385E+04  0.00000000000E+00 0.  1.
         -6    2    1    2    0  503  0.11456192083E+03 -0.12099560742E+02 -0.37451218986E+03  0.42819083816E+03  0.17267651971E+03 0.  0.
        -24    2    3    3    0    0  0.69213016249E+02 -0.22308351915E+02 -0.36452562776E+03  0.38041465176E+03  0.80921380379E+02 0.  0.
          6    2    1    2  501    0 -0.11456192083E+03  0.12099560742E+02 -0.59022051978E+03  0.62588612922E+03  0.17350029307E+03 0.  0.
         24    2    5    5    0    0 -0.11255196579E+03  0.25374257210E+02 -0.26105567240E+03  0.29641406023E+03  0.79996456682E+02 0.  0.
          5    1    5    5  501    0 -0.20099550484E+01 -0.13274696468E+02 -0.32916484739E+03  0.32947206898E+03  0.47000000000E+01 0. -1.
        -13    1    6    6    0    0 -0.45218541510E+02  0.20255588792E+02 -0.19771457576E+03  0.20382850351E+03  0.00000000000E+00 0.  1.
         14    1    6    6    0    0 -0.67333424276E+02  0.51186684181E+01 -0.63341096636E+02  0.92585556726E+02  0.00000000000E+00 0. -1.
         -5    1    3    3    0  503  0.45348904586E+02  0.10208791173E+02 -0.99865621011E+01  0.47776186400E+02  0.47000000000E+01 0.  1.
         13    1    4    4    0    0  0.32630427305E+02 -0.75020925144E+01 -0.34638436466E+02  0.48175174717E+02  0.00000000000E+00 0. -1.
        -14    1    4    4    0    0  0.36582588944E+02 -0.14806259400E+02 -0.32988719129E+03  0.33223947705E+03  0.00000000000E+00 0.  1.
<mgrwt>
<rscale>  2 0.20809064E+03</rscale>
<asrwt>0</asrwt>
<pdfrwt beam="1">  1       21 0.68726356E-02 0.20826230E+03</pdfrwt>
<pdfrwt beam="2">  1       21 0.15529304E+00 0.20826230E+03</pdfrwt>
<totfact> 0.42187886E+04</totfact>
</mgrwt>
</event>
<event>
12    1  0.1029207E-001  0.1746582E+03  0.7546771E-02  0.1173307E+00
         21   -1    0    0  503  502  0.00000000000E+00  0.00000000000E+00  0.14848014604E+02  0.14848014604E+02  0.00000000000E+00 0.  1.
         21   -1    0    0  501  503 -0.00000000000E+00 -0.00000000000E+00 -0.21474201820E+04  0.21474201820E+04  0.00000000000E+00 0.  1.
          6    2    1    2  501    0 -0.16391167686E+02 -0.10504461507E+02 -0.82606605770E+03  0.84413933215E+03  0.17264723079E+03 0.  0.
         24    2    3    3    0    0 -0.56339386667E+02  0.35827778752E+02 -0.58329143414E+03  0.59373137594E+03  0.88488945138E+02 0.  0.
         -6    2    1    2    0  502  0.16391167686E+02  0.10504461507E+02 -0.13065061097E+04  0.13181288644E+04  0.17356979736E+03 0.  0.
        -24    2    5    5    0    0  0.64693278186E+02 -0.26636365361E+02 -0.59950756040E+03  0.60849404738E+03  0.77207347589E+02 0.  0.
          5    1    3    3  501    0  0.39948218980E+02 -0.46332240258E+02 -0.24277462356E+03  0.25040795621E+03  0.47000000000E+01 0. -1.
        -11    1    4    4    0    0 -0.38310522889E+02  0.75227127898E+00 -0.50115322346E+03  0.50261597215E+03  0.00000000000E+00 0.  1.
         12    1    4    4    0    0 -0.18028863778E+02  0.35075507473E+02 -0.82138210676E+02  0.91115403784E+02  0.00000000000E+00 0. -1.
         -5    1    5    5    0  502 -0.48302110500E+02  0.37140826868E+02 -0.70699854928E+03  0.70963481706E+03  0.47000000000E+01 0.  1.
         11    1    6    6    0    0 -0.78602917838E+01 -0.30320616012E+02 -0.19928597271E+03  0.20173255280E+03  0.00000000000E+00 0. -1.
        -12    1    6    6    0    0  0.72553569970E+02  0.36842506508E+01 -0.40022158769E+03  0.40676149458E+03  0.00000000000E+00 0.  1.
<mgrwt>
<rscale>  2 0.17442856E+03</rscale>
<asrwt>0</asrwt>
<pdfrwt beam="1">  1       21 0.22843095E-02 0.17465821E+03</pdfrwt>
<pdfrwt beam="2">  1       21 0.33037240E+00 0.17465821E+03</pdfrwt>
<totfact> 0.23030362E+04</totfact>
</mgrwt>
</event>
<event>
12    1  0.1029207E-001  0.1732312E+03  0.7546771E-02  0.1174636E+00
         21   -1    0    0  501  502  0.00000000000E+00  0.00000000000E+00  0.12099921754E+03  0.12099921754E+03  0.00000000000E+00 0. -1.
         21   -1    0    0  502  503 -0.00000000000E+00 -0.00000000000E+00 -0.26518066487E+03  0.26518066487E+03  0.00000000000E+00 0. -1.
         -6    2    1    2    0  503 -0.93982001375E+01  0.18421391033E+02 -0.12206224518E+03  0.21154219549E+03  0.17153202314E+03 0.  0.
        -24    2    3    3    0    0 -0.26109973399E+02  0.77050140106E+02 -0.44651460499E+02  0.11289568938E+03  0.64290193299E+02 0.  0.
          6    2    1    2  501    0  0.93982001375E+01 -0.18421391033E+02 -0.22119202154E+02  0.17463768691E+03  0.17199240906E+03 0.  0.
         24    2    5    5    0    0 -0.60169208726E+02 -0.22337609406E+02 -0.34511365481E+00  0.10148604939E+03  0.78612954686E+02 0.  0.
          5    1    5    5  501    0  0.69567408864E+02  0.39162183738E+01 -0.21774088499E+02  0.73151637523E+02  0.47000000000E+01 0. -1.
        -11    1    6    6    0    0 -0.37032742917E+02  0.10109243710E+01 -0.36926080889E+02  0.52306610155E+02  0.00000000000E+00 0.  1.
         12    1    6    6    0    0 -0.23136465809E+02 -0.23348533777E+02  0.36580967234E+02  0.49179439235E+02  0.00000000000E+00 0. -1.
         -5    1    3    3    0  503  0.16711773262E+02 -0.58628749073E+02 -0.77410784678E+02  0.98646506111E+02  0.47000000000E+01 0.  1.
         13    1    4    4    0    0  0.14269777179E+02  0.39674170296E+02 -0.39257746566E+02  0.57609348155E+02  0.00000000000E+00 0. -1.
        -14    1    4    4    0    0 -0.40379750578E+02  0.37375969809E+02 -0.53937139331E+01  0.55286341224E+02  0.00000000000E+00 0.  1.
<mgrwt>
<rscale>  2 0.17311686E+03</rscale>
<asrwt>0</asrwt>
<pdfrwt beam="1">  1       21 0.18615264E-01 0.17323124E+03</pdfrwt>
<pdfrwt beam="2">  1       21 0.40797025E-01 0.17323124E+03</pdfrwt>
<totfact> 0.15365427E+05</totfact>
</mgrwt>
</event>
<event>
12    1  0.1029207E-001  0.2857583E+03  0.7546771E-02  0.1092656E+00
         21   -1    0    0  503  502  0.00000000000E+00  0.00000000000E+00  0.63541258757E+02  0.63541258757E+02  0.00000000000E+00 0.  1.
         21   -1    0    0  501  503 -0.00000000000E+00 -0.00000000000E+00 -0.17299081407E+04  0.17299081407E+04  0.00000000000E+00 0.  1.
          6    2    1    2  501    0 -0.12300208498E+03  0.19212968253E+03 -0.12885301409E+04  0.13197212084E+04  0.17120401889E+03 0.  0.
         24    2    3    3    0    0 -0.13742049615E+03  0.17269860423E+03 -0.89202533152E+03  0.92245100911E+03  0.80606894712E+02 0.  0.
         -6    2    1    2    0  502  0.12300208498E+03 -0.19212968253E+03 -0.37783674102E+03  0.47372819103E+03  0.17208854783E+03 0.  0.
        -24    2    5    5    0    0  0.19272260831E+02 -0.28607679042E+02 -0.15589780589E+03  0.17914661834E+03  0.81237710719E+02 0.  0.
          5    1    3    3  501    0  0.14418411165E+02  0.19431078305E+02 -0.39650480938E+03  0.39727019929E+03  0.47000000000E+01 0. -1.
        -11    1    4    4    0    0 -0.13875945258E+03  0.15539231025E+03 -0.86895917556E+03  0.89358323874E+03  0.00000000000E+00 0.  1.
         12    1    4    4    0    0  0.13389564349E+01  0.17306293976E+02 -0.23066155959E+02  0.28867770372E+02  0.00000000000E+00 0. -1.
         -5    1    5    5    0  502  0.10372982415E+03 -0.16352200349E+03 -0.22193893513E+03  0.29458157269E+03  0.47000000000E+01 0.  1.
         13    1    6    6    0    0 -0.27462903669E+01 -0.30748478799E+02 -0.15386464889E+03  0.15693100789E+03  0.00000000000E+00 0. -1.
        -14    1    6    6    0    0  0.22018551198E+02  0.21407997571E+01 -0.20331570068E+01  0.22215610454E+02  0.00000000000E+00 0.  1.
<mgrwt>
<rscale>  2 0.28562524E+03</rscale>
<asrwt>0</asrwt>
<pdfrwt beam="1">  1       21 0.97755808E-02 0.28575828E+03</pdfrwt>
<pdfrwt beam="2">  1       21 0.26613965E+00 0.28575828E+03</pdfrwt>
<totfact> 0.41562782E+03</totfact>
</mgrwt>
</event>
<event>
12    1  0.1029207E-001  0.2051201E+03  0.7546771E-02  0.1145843E+00
         21   -1    0    0  503  502  0.00000000000E+00  0.00000000000E+00  0.16777214996E+03  0.16777214996E+03  0.00000000000E+00 0.  1.
         21   -1    0    0  501  503 -0.00000000000E+00 -0.00000000000E+00 -0.27002605422E+03  0.27002605422E+03  0.00000000000E+00 0.  1.
          6    2    1    2  501    0  0.86834349733E+02 -0.63398540869E+02 -0.11287539868E+03  0.23412623775E+03  0.17468445923E+03 0.  0.
         24    2    3    3    0    0  0.26391739899E+02  0.11357984207E+02  0.87933255488E+00  0.85115915943E+02  0.80115030930E+02 0.  0.
         -6    2    1    2    0  502 -0.86834349733E+02  0.63398540869E+02  0.10621494425E+02  0.20367196642E+03  0.17265536333E+03 0.  0.
        -24    2    5    5    0    0 -0.78885550324E+02 -0.10741689649E+02  0.44481269063E+02  0.12164433979E+03  0.80501230787E+02 0.  0.
          5    1    3    3  501    0  0.60442609834E+02 -0.74756525076E+02 -0.11375473124E+03  0.14901032181E+03  0.47000000000E+01 0. -1.
        -11    1    4    4    0    0  0.23070042000E+02 -0.31525353101E+02  0.11670650081E+02  0.40771053449E+02  0.00000000000E+00 0.  1.
         12    1    4    4    0    0  0.33216978991E+01  0.42883337308E+02 -0.10791317526E+02  0.44344862494E+02  0.00000000000E+00 0. -1.
         -5    1    5    5    0  502 -0.79487994095E+01  0.74140230519E+02 -0.33859774638E+02  0.82027626638E+02  0.47000000000E+01 0.  1.
         11    1    6    6    0    0 -0.52834549432E+02  0.45534706861E+01 -0.14845449672E+02  0.55069148213E+02  0.00000000000E+00 0. -1.
        -12    1    6    6    0    0 -0.26051000892E+02 -0.15295160335E+02  0.59326718735E+02  0.66575191573E+02  0.00000000000E+00 0.  1.
<mgrwt>
<rscale>  2 0.20468738E+03</rscale>
<asrwt>0</asrwt>
<pdfrwt beam="1">  1       21 0.25811100E-01 0.20512006E+03</pdfrwt>
<pdfrwt beam="2">  1       21 0.41542470E-01 0.20512006E+03</pdfrwt>
<totfact> 0.79073466E+04</totfact>
</mgrwt>
</event>
<event>
12    1  0.1029207E-001  0.2207593E+03  0.7546771E-02  0.1133405E+00
         21   -1    0    0  501  502  0.00000000000E+00  0.00000000000E+00  0.37528864964E+03  0.37528864964E+03  0.00000000000E+00 0. -1.
         21   -1    0    0  502  503 -0.00000000000E+00 -0.00000000000E+00 -0.14597490406E+03  0.14597490406E+03  0.00000000000E+00 0. -1.
         -6    2    1    2    0  503 -0.11044156080E+03  0.81053693245E+02  0.27428775914E+02  0.22245675271E+03  0.17311161006E+03 0.  0.
        -24    2    3    3    0    0 -0.89002446766E+02  0.20115857154E+02 -0.41684945911E+02  0.12773689195E+03  0.79075885133E+02 0.  0.
          6    2    1    2  501    0  0.11044156080E+03 -0.81053693245E+02  0.20188496967E+03  0.29880680099E+03  0.17251354671E+03 0.  0.
         24    2    5    5    0    0  0.85611680864E+02  0.14240034428E+02  0.13467442542E+03  0.17948888645E+03  0.80913046020E+02 0.  0.
          5    1    5    5  501    0  0.24829879935E+02 -0.95293727673E+02  0.67210544254E+02  0.11931791454E+03  0.47000000000E+01 0. -1.
        -13    1    6    6    0    0  0.96374628356E+02  0.19496739169E+02  0.90209660731E+02  0.13343902997E+03  0.00000000000E+00 0.  1.
         14    1    6    6    0    0 -0.10762947493E+02 -0.52567047410E+01  0.44464764686E+02  0.46049856482E+02  0.00000000000E+00 0. -1.
         -5    1    3    3    0  503 -0.21439114033E+02  0.60937836091E+02  0.69113721825E+02  0.94719860760E+02  0.47000000000E+01 0.  1.
         13    1    4    4    0    0 -0.78481378506E+02 -0.12921327524E+02 -0.47409295132E+02  0.92595511457E+02  0.00000000000E+00 0. -1.
        -14    1    4    4    0    0 -0.10521068260E+02  0.33037184678E+02  0.57243492207E+01  0.35141380490E+02  0.00000000000E+00 0.  1.
<mgrwt>
<rscale>  2 0.22064204E+03</rscale>
<asrwt>0</asrwt>
<pdfrwt beam="1">  1       21 0.57736715E-01 0.22075930E+03</pdfrwt>
<pdfrwt beam="2">  1       21 0.22457678E-01 0.22075930E+03</pdfrwt>
<totfact> 0.51551257E+04</totfact>
</mgrwt>
</event>
<event>
12    1  0.1029207E-001  0.3233936E+03  0.7546771E-02  0.1074160E+00
         21   -1    0    0  503  502  0.00000000000E+00  0.00000000000E+00  0.18797896491E+04  0.18797896491E+04  0.00000000000E+00 0. -1.
         21   -1    0    0  501  503 -0.00000000000E+00 -0.00000000000E+00 -0.44945084247E+03  0.44945084247E+03  0.00000000000E+00 0.  1.
          6    2    1    2  501    0 -0.20271200873E+03 -0.18283308490E+03 -0.37504384096E+03  0.49521841988E+03  0.17338773122E+03 0.  0.
         24    2    3    3    0    0 -0.21936455279E+03 -0.14903468623E+03 -0.28517136894E+03  0.39765413235E+03  0.80460888577E+02 0.  0.
         -6    2    1    2    0  502  0.20271200873E+03  0.18283308490E+03  0.18053826476E+04  0.18340220717E+04  0.17236693370E+03 0.  0.
        -24    2    5    5    0    0  0.16862036724E+03  0.16036494935E+03  0.17358013504E+04  0.17532093001E+04  0.81158959256E+02 0.  0.
          5    1    3    3  501    0  0.16652544060E+02 -0.33798398667E+02 -0.89872472013E+02  0.97564287533E+02  0.47000000000E+01 0. -1.
        -11    1    4    4    0    0 -0.11533830856E+03 -0.12418708031E+03 -0.18844473022E+03  0.25344974390E+03  0.00000000000E+00 0.  1.
         12    1    4    4    0    0 -0.10402624423E+03 -0.24847605918E+02 -0.96726638726E+02  0.14420438845E+03  0.00000000000E+00 0. -1.
         -5    1    5    5    0  502  0.34091641489E+02  0.22468135543E+02  0.69581297158E+02  0.80812771567E+02  0.47000000000E+01 0.  1.
         11    1    6    6    0    0  0.10291655402E+03  0.10249364977E+03  0.78017939025E+03  0.79358468125E+03  0.00000000000E+00 0. -1.
        -12    1    6    6    0    0  0.65703813216E+02  0.57871299582E+02  0.95562196016E+03  0.95962461886E+03  0.00000000000E+00 0.  1.
<mgrwt>
<rscale>  2 0.32325694E+03</rscale>
<asrwt>0</asrwt>
<pdfrwt beam="1">  1       21 0.28919840E+00 0.32339357E+03</pdfrwt>
<pdfrwt beam="2">  1       21 0.69146284E-01 0.32339357E+03</pdfrwt>
<totfact> 0.63587904E+01</totfact>
</mgrwt>
</event>
<event>
12    1  0.1029207E-001  0.1967746E+03  0.7546771E-02  0.1152740E+00
         21   -1    0    0  503  502  0.00000000000E+00  0.00000000000E+00  0.14946303705E+03  0.14946303705E+03  0.00000000000E+00 0. -1.
         21   -1    0    0  501  503 -0.00000000000E+00 -0.00000000000E+00 -0.11052095070E+04  0.11052095070E+04  0.00000000000E+00 0. -1.
          6    2    1    2  501    0  0.43246918882E+02  0.82587469355E+02 -0.10269480420E+04  0.10454121280E+04  0.17196874802E+03 0.  0.
         24    2    3    3    0    0 -0.19360389917E+02  0.94172792830E+02 -0.55582884195E+03  0.56998675478E+03  0.81828231539E+02 0.  0.
         -6    2    1    2    0  502 -0.43246918882E+02 -0.82587469355E+02  0.71201572063E+02  0.20926041604E+03  0.17328956048E+03 0.  0.
        -24    2    5    5    0    0  0.64182210339E+01 -0.87792543596E+01  0.80897435524E+02  0.11964803692E+03  0.87481362564E+02 0.  0.
          5    1    3    3  501    0  0.62607308799E+02 -0.11585323475E+02 -0.47111920005E+03  0.47542537321E+03  0.47000000000E+01 0. -1.
        -13    1    4    4    0    0  0.25318025199E+01  0.79993714966E+02 -0.51733068039E+03  0.52348489694E+03  0.00000000000E+00 0.  1.
         14    1    4    4    0    0 -0.21892192437E+02  0.14179077865E+02 -0.38498161564E+02  0.46501857840E+02  0.00000000000E+00 0. -1.
         -5    1    5    5    0  502 -0.49665139916E+02 -0.73808214996E+02 -0.96958634615E+01  0.89612379122E+02  0.47000000000E+01 0.  1.
         11    1    6    6    0    0 -0.12363816859E+02  0.95594226021E+01  0.90392342796E+02  0.91733429915E+02  0.00000000000E+00 0. -1.
        -12    1    6    6    0    0  0.18782037893E+02 -0.18338676962E+02 -0.94949072721E+01  0.27914607005E+02  0.00000000000E+00 0.  1.
<mgrwt>
<rscale>  2 0.19648345E+03</rscale>
<asrwt>0</asrwt>
<pdfrwt beam="1">  1       21 0.22994314E-01 0.19677464E+03</pdfrwt>
<pdfrwt beam="2">  1       21 0.17003223E+00 0.19677464E+03</pdfrwt>
<totfact> 0.37728674E+03</totfact>
</mgrwt>
</event>
<event>
12    1  0.1029207E-001  0.2483202E+03  0.7546771E-02  0.1115326E+00
         21   -1    0    0  503  502  0.00000000000E+00  0.00000000000E+00  0.58139451843E+02  0.58139451843E+02  0.00000000000E+00 0.  1.
         21   -1    0    0  501  503 -0.00000000000E+00 -0.00000000000E+00 -0.10357471089E+04  0.10357471089E+04  0.00000000000E+00 0. -1.
          6    2    1    2  501    0 -0.16921255906E+03 -0.54249251025E+02 -0.47431033813E+03  0.53266368276E+03  0.16487701688E+03 0.  0.
         24    2    3    3    0    0 -0.86281556836E+02 -0.21001695006E+02 -0.12744186096E+03  0.17444198944E+03  0.79391444829E+02 0.  0.
         -6    2    1    2    0  502  0.16921255906E+03  0.54249251025E+02 -0.50329731897E+03  0.56122287802E+03  0.17345620818E+03 0.  0.
        -24    2    5    5    0    0  0.18141575373E+03  0.26750227577E+02 -0.48779333459E+03  0.52705304070E+03  0.78837301245E+02 0.  0.
          5    1    3    3  501    0 -0.82931002220E+02 -0.33247556018E+02 -0.34686847717E+03  0.35822169332E+03  0.47000000000E+01 0. -1.
        -13    1    4    4    0    0 -0.84371472386E+01 -0.37814889389E+02 -0.32912566145E+02  0.50836879559E+02  0.00000000000E+00 0.  1.
         14    1    4    4    0    0 -0.77844409597E+02  0.16813194382E+02 -0.94529294811E+02  0.12360510988E+03  0.00000000000E+00 0. -1.
         -5    1    5    5    0  502 -0.12203194671E+02  0.27499023447E+02 -0.15503984374E+02  0.34169837316E+02  0.47000000000E+01 0.  1.
         11    1    6    6    0    0  0.14427784261E+03  0.14544492870E+02 -0.44957542784E+03  0.47238300505E+03  0.00000000000E+00 0. -1.
        -12    1    6    6    0    0  0.37137911119E+02  0.12205734708E+02 -0.38217906747E+02  0.54670035652E+02  0.00000000000E+00 0.  1.
<mgrwt>
<rscale>  2 0.24682807E+03</rscale>
<asrwt>0</asrwt>
<pdfrwt beam="1">  1       21 0.89445320E-02 0.24832021E+03</pdfrwt>
<pdfrwt beam="2">  1       21 0.15934569E+00 0.24832021E+03</pdfrwt>
<totfact> 0.24297193E+04</totfact>
</mgrwt>
</event>
<event>
12    1  0.1029207E-001  0.2310062E+03  0.7546771E-02  0.1126328E+00
         21   -1    0    0  503  502  0.00000000000E+00  0.00000000000E+00  0.25044480100E+03  0.25044480100E+03  0.00000000000E+00 0.  1.
         21   -1    0    0  501  503 -0.00000000000E+00 -0.00000000000E+00 -0.22240623411E+03  0.22240623411E+03  0.00000000000E+00 0. -1.
          6    2    1    2  501    0 -0.84021090126E+02 -0.12763483065E+03  0.67599424292E+02  0.24069389808E+03  0.17324455786E+03 0.  0.
         24    2    3    3    0    0 -0.25953147469E+02 -0.14683270417E+03  0.58269032651E+02  0.17864882962E+03  0.79288809305E+02 0.  0.
         -6    2    1    2    0  502  0.84021090126E+02  0.12763483065E+03 -0.39560857396E+02  0.23215713703E+03  0.17024006948E+03 0.  0.
        -24    2    5    5    0    0  0.59002908540E+01  0.74864954055E+01 -0.33262698561E+02  0.88629305077E+02  0.81595867281E+02 0.  0.
          5    1    3    3  501    0 -0.58067942657E+02  0.19197873523E+02  0.93303916409E+01  0.62045068462E+02  0.47000000000E+01 0. -1.
        -11    1    4    4    0    0  0.14600847521E+02 -0.91311913567E+02  0.67199097432E+01  0.92715734881E+02  0.00000000000E+00 0.  1.
         12    1    4    4    0    0 -0.40553994990E+02 -0.55520790604E+02  0.51549122908E+02  0.85933094739E+02  0.00000000000E+00 0. -1.
         -5    1    5    5    0  502  0.78120799272E+02  0.12014833524E+03 -0.62981588353E+01  0.14352783195E+03  0.47000000000E+01 0.  1.
         11    1    6    6    0    0 -0.31858890847E+02  0.23222862222E+02 -0.70651291422E+01  0.40052544309E+02  0.00000000000E+00 0. -1.
        -12    1    6    6    0    0  0.37759181701E+02 -0.15736366817E+02 -0.26197569419E+02  0.48576760769E+02  0.00000000000E+00 0.  1.
<mgrwt>
<rscale>  2 0.23044301E+03</rscale>
<asrwt>0</asrwt>
<pdfrwt beam="1">  1       21 0.38529969E-01 0.23100621E+03</pdfrwt>
<pdfrwt beam="2">  1       21 0.34216344E-01 0.23100621E+03</pdfrwt>
<totfact> 0.52534208E+04</totfact>
</mgrwt>
</event>
<event>
12    1  0.1029207E-001  0.2566130E+03  0.7546771E-02  0.1109240E+00
         21   -1    0    0  501  502  0.00000000000E+00  0.00000000000E+00  0.27060117629E+03  0.27060117629E+03  0.00000000000E+00 0. -1.
         21   -1    0    0  502  503 -0.00000000000E+00 -0.00000000000E+00 -0.32279090584E+03  0.32279090584E+03  0.00000000000E+00 0.  1.
         -6    2    1    2    0  503 -0.18075034628E+03 -0.54397178421E+02  0.12134155748E+03  0.28385562226E+03  0.17384044413E+03 0.  0.
        -24    2    3    3    0    0 -0.60849567164E+02  0.32338333651E+02  0.58431454397E+02  0.12298605722E+03  0.83443979766E+02 0.  0.
          6    2    1    2  501    0  0.18075034628E+03  0.54397178421E+02 -0.17353128703E+03  0.30953645988E+03  0.17340695406E+03 0.  0.
         24    2    5    5    0    0  0.17840949976E+03  0.29244227541E+02 -0.19381246703E+03  0.27680166551E+03  0.79816760163E+02 0.  0.
          5    1    5    5  501    0  0.23408465192E+01  0.25152950880E+02  0.20281179997E+02  0.32734794371E+02  0.47000000000E+01 0. -1.
        -13    1    6    6    0    0  0.17275432599E+03  0.84643785001E+01 -0.15422162793E+03  0.23173263338E+03  0.00000000000E+00 0.  1.
         14    1    6    6    0    0  0.56551737712E+01  0.20779849040E+02 -0.39590839097E+02  0.45069032127E+02  0.00000000000E+00 0. -1.
         -5    1    3    3    0  503 -0.11990077912E+03 -0.86735512072E+02  0.62910103082E+02  0.16086956504E+03  0.47000000000E+01 0.  1.
         13    1    4    4    0    0 -0.36404870168E+02 -0.20197022586E+02  0.48969211480E+02  0.64274551467E+02  0.00000000000E+00 0. -1.
        -14    1    4    4    0    0 -0.24444696996E+02  0.52535356238E+02  0.94622429170E+01  0.58711505749E+02  0.00000000000E+00 0.  1.
<mgrwt>
<rscale>  2 0.25653962E+03</rscale>
<asrwt>0</asrwt>
<pdfrwt beam="1">  1       21 0.41630950E-01 0.25661302E+03</pdfrwt>
<pdfrwt beam="2">  1       21 0.49660139E-01 0.25661302E+03</pdfrwt>
<totfact> 0.20750186E+04</totfact>
</mgrwt>
</event>
<event>
12    1  0.1029207E-001  0.2425596E+03  0.7546771E-02  0.1118141E+00
         21   -1    0    0  501  502  0.00000000000E+00  0.00000000000E+00  0.33364003949E+03  0.33364003949E+03  0.00000000000E+00 0. -1.
         21   -1    0    0  502  503 -0.00000000000E+00 -0.00000000000E+00 -0.17994204172E+03  0.17994204172E+03  0.00000000000E+00 0. -1.
         -6    2    1    2    0  503  0.16979755593E+03 -0.87994506714E+01  0.39587001977E+02  0.24552147358E+03  0.17264131293E+03 0.  0.
        -24    2    3    3    0    0  0.21240012794E+02 -0.32009800021E+02  0.19209531164E+02  0.93714374746E+02  0.83292331614E+02 0.  0.
          6    2    1    2  501    0 -0.16979755593E+03  0.87994506714E+01  0.11411099580E+03  0.26806060763E+03  0.17299286016E+03 0.  0.
         24    2    5    5    0    0 -0.14199559422E+03 -0.54984314750E+02  0.92344131896E+02  0.19500443629E+03  0.79456074845E+02 0.  0.
          5    1    5    5  501    0 -0.27801961710E+02  0.63783765421E+02  0.21766863903E+02  0.73056171337E+02  0.47000000000E+01 0. -1.
        -13    1    6    6    0    0 -0.12426615293E+03 -0.49157366266E+02  0.10706489863E+03  0.17123497289E+03  0.00000000000E+00 0.  1.
         14    1    6    6    0    0 -0.17729441299E+02 -0.58269484841E+01 -0.14720766731E+02  0.23769463405E+02  0.00000000000E+00 0. -1.
         -5    1    3    3    0  503  0.14855754314E+03  0.23210349349E+02  0.20377470813E+02  0.15180709884E+03  0.47000000000E+01 0.  1.
         13    1    4    4    0    0  0.50798371453E+02 -0.24544072228E+02  0.26556619927E+02  0.62354952376E+02  0.00000000000E+00 0. -1.
        -14    1    4    4    0    0 -0.29558358659E+02 -0.74657277924E+01 -0.73470887636E+01  0.31359422370E+02  0.00000000000E+00 0.  1.
<mgrwt>
<rscale>  2 0.24249695E+03</rscale>
<asrwt>0</asrwt>
<pdfrwt beam="1">  1       21 0.51329237E-01 0.24255962E+03</pdfrwt>
<pdfrwt beam="2">  1       21 0.27683391E-01 0.24255962E+03</pdfrwt>
<totfact> 0.43890509E+04</totfact>
</mgrwt>
</event>
<event>
12    1  0.1029207E-001  0.1974700E+03  0.7546771E-02  0.1151930E+00
         21   -1    0    0  503  502  0.00000000000E+00  0.00000000000E+00  0.21346479053E+02  0.21346479053E+02  0.00000000000E+00 0.  1.
         21   -1    0    0  501  503 -0.00000000000E+00 -0.00000000000E+00 -0.34429114800E+04  0.34429114800E+04  0.00000000000E+00 0.  1.
          6    2    1    2  501    0 -0.36968103801E+02 -0.87080003603E+02 -0.28985625151E+04  0.29052812381E+04  0.17333450540E+03 0.  0.
         24    2    3    3    0    0  0.46663411715E+02 -0.40567580535E+02 -0.15312162388E+04  0.15345823050E+04  0.80600733624E+02 0.  0.
         -6    2    1    2    0  502  0.36968103801E+02  0.87080003603E+02 -0.52300248582E+03  0.55897672093E+03  0.17312945054E+03 0.  0.
        -24    2    5    5    0    0  0.61833774838E+02 -0.29470846068E+01 -0.32381287706E+03  0.33892725275E+03  0.78643513975E+02 0.  0.
          5    1    3    3  501    0 -0.83631515516E+02 -0.46512423068E+02 -0.13673462764E+04  0.13706989332E+04  0.47000000000E+01 0. -1.
        -13    1    4    4    0    0  0.20522605404E+02 -0.91954057026E+01 -0.12695208516E+04  0.12697200185E+04  0.00000000000E+00 0.  1.
         14    1    4    4    0    0  0.26140806311E+02 -0.31372174833E+02 -0.26169538717E+03  0.26486228643E+03  0.00000000000E+00 0. -1.
         -5    1    5    5    0  502 -0.24865671037E+02  0.90027088210E+02 -0.19918960876E+03  0.22004946818E+03  0.47000000000E+01 0.  1.
         11    1    6    6    0    0  0.27839913508E+02 -0.15715606129E+02 -0.28089488237E+03  0.28270828782E+03  0.00000000000E+00 0. -1.
        -12    1    6    6    0    0  0.33993861330E+02  0.12768521522E+02 -0.42917994690E+02  0.56218964933E+02  0.00000000000E+00 0.  1.
<mgrwt>
<rscale>  2 0.19742504E+03</rscale>
<asrwt>0</asrwt>
<pdfrwt beam="1">  1       21 0.32840742E-02 0.19747004E+03</pdfrwt>
<pdfrwt beam="2">  1       21 0.52967861E+00 0.19747004E+03</pdfrwt>
<totfact> 0.62664414E+02</totfact>
</mgrwt>
</event>
<event>
12    1  0.1029207E-001  0.2899727E+03  0.7546771E-02  0.1090511E+00
         21   -1    0    0  503  502  0.00000000000E+00  0.00000000000E+00  0.50622257300E+02  0.50622257300E+02  0.00000000000E+00 0. -1.
         21   -1    0    0  501  503 -0.00000000000E+00 -0.00000000000E+00 -0.19669845026E+04  0.19669845026E+04  0.00000000000E+00 0.  1.
          6    2    1    2  501    0  0.19101411734E+03 -0.12884802090E+03 -0.55769557926E+03  0.62857656840E+03  0.17605663206E+03 0.  0.
         24    2    3    3    0    0  0.72662618226E+02 -0.63686505121E+02 -0.13664498620E+03  0.18635626990E+03  0.81981583639E+02 0.  0.
         -6    2    1    2    0  502 -0.19101411734E+03  0.12884802090E+03 -0.13586666660E+04  0.13890301915E+04  0.17418828319E+03 0.  0.
        -24    2    5    5    0    0 -0.13081975381E+03  0.10106533489E+03 -0.61418247354E+03  0.64158518221E+03  0.84163087660E+02 0.  0.
          5    1    3    3  501    0  0.11835149911E+03 -0.65161515783E+02 -0.42105059306E+03  0.44222029850E+03  0.47000000000E+01 0. -1.
        -13    1    4    4    0    0  0.14588874893E+02 -0.66505413822E+02 -0.81796595892E+02  0.10642597633E+03  0.00000000000E+00 0.  1.
         14    1    4    4    0    0  0.58073743333E+02  0.28189087012E+01 -0.54848390306E+02  0.79930293569E+02  0.00000000000E+00 0. -1.
         -5    1    5    5    0  502 -0.60194363525E+02  0.27782686017E+02 -0.74448419250E+03  0.74744500929E+03  0.47000000000E+01 0.  1.
         13    1    6    6    0    0 -0.36153183009E+02  0.35734071018E+02 -0.77274988159E+02  0.92495406741E+02  0.00000000000E+00 0. -1.
        -14    1    6    6    0    0 -0.94666570804E+02  0.65331263868E+02 -0.53690748538E+03  0.54908977547E+03  0.00000000000E+00 0.  1.
<mgrwt>
<rscale>  2 0.28968961E+03</rscale>
<asrwt>0</asrwt>
<pdfrwt beam="1">  1       21 0.77880403E-02 0.28997266E+03</pdfrwt>
<pdfrwt beam="2">  1       21 0.30261297E+00 0.28997266E+03</pdfrwt>
<totfact> 0.37725700E+03</totfact>
</mgrwt>
</event>
<event>
12    1  0.1029207E-001  0.2381044E+03  0.7546771E-02  0.1121325E+00
         21   -1    0    0  501  502  0.00000000000E+00  0.00000000000E+00  0.66872340240E+02  0.66872340240E+02  0.00000000000E+00 0.  1.
         21   -1    0    0  502  503 -0.00000000000E+00 -0.00000000000E+00 -0.11730027805E+04  0.11730027805E+04  0.00000000000E+00 0. -1.
         -6    2    1    2    0  503 -0.15048676433E+03 -0.60382030730E+02 -0.88355004256E+03  0.91507071127E+03  0.17436018196E+03 0.  0.
        -24    2    3    3    0    0 -0.88749486888E+02 -0.48882947618E+02 -0.80086619205E+03  0.81113597467E+03  0.79302571450E+02 0.  0.
          6    2    1    2  501    0  0.15048676433E+03  0.60382030730E+02 -0.22258039770E+03  0.32480440946E+03  0.17223128372E+03 0.  0.
         24    2    5    5    0    0  0.12584490261E+03 -0.19698994541E+02 -0.12481703378E+03  0.19596358797E+03  0.81224663680E+02 0.  0.
          5    1    5    5  501    0  0.24641861720E+02  0.80081025271E+02 -0.97763363919E+02  0.12884082149E+03  0.47000000000E+01 0. -1.
        -11    1    6    6    0    0  0.44572352216E+02  0.24400093740E+02 -0.16233522302E+02  0.53344038120E+02  0.00000000000E+00 0.  1.
         12    1    6    6    0    0  0.81272550398E+02 -0.44099088281E+02 -0.10858351148E+03  0.14261954985E+03  0.00000000000E+00 0. -1.
         -5    1    3    3    0  503 -0.61737277445E+02 -0.11499083112E+02 -0.82683850507E+02  0.10393473661E+03  0.47000000000E+01 0.  1.
         13    1    4    4    0    0 -0.12114596534E+02 -0.45475143451E+02 -0.20385634544E+03  0.20921797652E+03  0.00000000000E+00 0. -1.
        -14    1    4    4    0    0 -0.76634890354E+02 -0.34078041675E+01 -0.59700984661E+03  0.60191799815E+03  0.00000000000E+00 0.  1.
<mgrwt>
<rscale>  2 0.23771487E+03</rscale>
<asrwt>0</asrwt>
<pdfrwt beam="1">  1       21 0.10288053E-01 0.23810445E+03</pdfrwt>
<pdfrwt beam="2">  1       21 0.18046196E+00 0.23810445E+03</pdfrwt>
<totfact> 0.13495574E+04</totfact>
</mgrwt>
</event>
<event>
12    1  0.1029207E-001  0.2085964E+03  0.7546771E-02  0.1143586E+00
         21   -1    0    0  503  502  0.00000000000E+00  0.00000000000E+00  0.19749136253E+03  0.19749136253E+03  0.00000000000E+00 0. -1.
         21   -1    0    0  501  503 -0.00000000000E+00 -0.00000000000E+00 -0.21626499312E+03  0.21626499312E+03  0.00000000000E+00 0. -1.
          6    2    1    2  501    0 -0.28923797807E+02  0.10525518095E+03 -0.20516997630E+02  0.20515268477E+03  0.17248605068E+03 0.  0.
         24    2    3    3    0    0 -0.38355732582E+02  0.77529572348E+02 -0.77421500588E+02  0.14098194983E+03  0.79998903829E+02 0.  0.
         -6    2    1    2    0  502  0.28923797807E+02 -0.10525518095E+03  0.17433670315E+01  0.20860367088E+03  0.17775604907E+03 0.  0.
        -24    2    5    5    0    0  0.47042043157E+02 -0.34280641676E+02  0.58368436705E+02  0.11589906174E+03  0.81471479007E+02 0.  0.
          5    1    3    3  501    0  0.94319347749E+01  0.27725608600E+02  0.56904502958E+02  0.64170734940E+02  0.47000000000E+01 0. -1.
        -13    1    4    4    0    0  0.22776086964E+02  0.39925414614E+02 -0.32840703125E+02  0.56491598059E+02  0.00000000000E+00 0.  1.
         14    1    4    4    0    0 -0.61131819545E+02  0.37604157735E+02 -0.44580797462E+02  0.84490351770E+02  0.00000000000E+00 0. -1.
         -5    1    5    5    0  502 -0.18118245350E+02 -0.70974539273E+02 -0.56625069673E+02  0.92704609136E+02  0.47000000000E+01 0.  1.
         11    1    6    6    0    0  0.11358788271E+02 -0.70286232349E+01 -0.20896396886E+02  0.24800867291E+02  0.00000000000E+00 0. -1.
        -12    1    6    6    0    0  0.35683254886E+02 -0.27252018441E+02  0.79264833591E+02  0.91098194452E+02  0.00000000000E+00 0.  1.
<mgrwt>
<rscale>  2 0.20746923E+03</rscale>
<asrwt>0</asrwt>
<pdfrwt beam="1">  1       21 0.30383287E-01 0.20859639E+03</pdfrwt>
<pdfrwt beam="2">  1       21 0.33271537E-01 0.20859639E+03</pdfrwt>
<totfact> 0.89836753E+04</totfact>
</mgrwt>
</event>
<event>
12    1  0.1029207E-001  0.1818827E+03  0.7546771E-02  0.1166983E+00
         21   -1    0    0  501  502  0.00000000000E+00  0.00000000000E+00  0.78871527340E+02  0.78871527340E+02  0.00000000000E+00 0.  1.
         21   -1    0    0  502  503 -0.00000000000E+00 -0.00000000000E+00 -0.64591500437E+03  0.64591500437E+03  0.00000000000E+00 0.  1.
         -6    2    1    2    0  503  0.62178175213E+02  0.86398902326E+01 -0.50455493287E+03  0.53633663795E+03  0.17070599212E+03 0.  0.
        -24    2    3    3    0    0  0.45163835948E+02  0.30953068015E+02 -0.13433025068E+03  0.16502036986E+03  0.78671733962E+02 0.  0.
          6    2    1    2  501    0 -0.62178175213E+02 -0.86398902326E+01 -0.62488544161E+02  0.18844989376E+03  0.16633631934E+03 0.  0.
         24    2    5    5    0    0 -0.53931470696E+02  0.56053480106E+02 -0.33269236082E+02  0.11683217064E+03  0.80574920805E+02 0.  0.
          5    1    5    5  501    0 -0.82467045178E+01 -0.64693370338E+02 -0.29219308079E+02  0.71617723126E+02  0.47000000000E+01 0. -1.
        -11    1    6    6    0    0 -0.74230608779E+02  0.53529253488E+02 -0.26301586159E+02  0.95222569242E+02  0.00000000000E+00 0.  1.
         12    1    6    6    0    0  0.20299138084E+02  0.25242266181E+01 -0.69676499235E+01  0.21609601394E+02  0.00000000000E+00 0. -1.
         -5    1    3    3    0  503  0.17014339266E+02 -0.22313177782E+02 -0.37022468219E+03  0.37131626809E+03  0.47000000000E+01 0.  1.
         13    1    4    4    0    0 -0.88365255971E+01  0.39041720013E+02 -0.70038718804E+02  0.80670702351E+02  0.00000000000E+00 0. -1.
        -14    1    4    4    0    0  0.54000361545E+02 -0.80886519979E+01 -0.64291531873E+02  0.84349667508E+02  0.00000000000E+00 0.  1.
<mgrwt>
<rscale>  2 0.18085023E+03</rscale>
<asrwt>0</asrwt>
<pdfrwt beam="1">  1       21 0.12134081E-01 0.18188268E+03</pdfrwt>
<pdfrwt beam="2">  1       21 0.99371542E-01 0.18188268E+03</pdfrwt>
<totfact> 0.48197334E+04</totfact>
</mgrwt>
</event>
<event>
12    1  0.1029207E-001  0.2328363E+03  0.7546771E-02  0.1124702E+00
         21   -1    0    0  501  502  0.00000000000E+00  0.00000000000E+00  0.47038949676E+02  0.47038949676E+02  0.00000000000E+00 0.  1.
         21   -1    0    0  502  503 -0.00000000000E+00 -0.00000000000E+00 -0.13521642009E+04  0.13521642009E+04  0.00000000000E+00 0. -1.
         -6    2    1    2    0  503 -0.69975940241E+02  0.13891159512E+03 -0.92251478023E+03  0.95144431515E+03  0.17326194508E+03 0.  0.
        -24    2    3    3    0    0 -0.18971024886E+01  0.12601853564E+03 -0.76412402384E+03  0.77849726880E+03  0.79298192844E+02 0.  0.
          6    2    1    2  501    0  0.69975940241E+02 -0.13891159512E+03 -0.38261047097E+03  0.44775883541E+03  0.17292813165E+03 0.  0.
         24    2    5    5    0    0  0.10192371947E+03 -0.83251176743E+02 -0.18979021568E+03  0.24448443067E+03  0.80206657143E+02 0.  0.
          5    1    5    5  501    0 -0.31947779232E+02 -0.55660418374E+02 -0.19282025529E+03  0.20327440474E+03  0.47000000000E+01 0. -1.
        -11    1    6    6    0    0  0.36153186871E+02  0.80135559726E+01 -0.23988244736E+02  0.44121490068E+02  0.00000000000E+00 0.  1.
         12    1    6    6    0    0  0.65770532602E+02 -0.91264732716E+02 -0.16580197095E+03  0.20036294060E+03  0.00000000000E+00 0. -1.
         -5    1    3    3    0  503 -0.68078837753E+02  0.12893059478E+02 -0.15839075639E+03  0.17294704635E+03  0.47000000000E+01 0.  1.
         11    1    4    4    0    0 -0.39744698636E+02  0.78607545740E+02 -0.43487392524E+03  0.44370499002E+03  0.00000000000E+00 0. -1.
        -12    1    4    4    0    0  0.37847596147E+02  0.47410989900E+02 -0.32925009860E+03  0.33479227878E+03  0.00000000000E+00 0.  1.
<mgrwt>
<rscale>  2 0.23277425E+03</rscale>
<asrwt>0</asrwt>
<pdfrwt beam="1">  1       21 0.72367617E-02 0.23283635E+03</pdfrwt>
<pdfrwt beam="2">  1       21 0.20802525E+00 0.23283635E+03</pdfrwt>
<totfact> 0.16544829E+04</totfact>
</mgrwt>
</event>
<event>
12    1  0.1029207E-001  0.1804206E+03  0.7546771E-02  0.1167425E+00
         21   -1    0    0  501  502  0.00000000000E+00  0.00000000000E+00  0.86787506893E+02  0.86787506893E+02  0.00000000000E+00 0. -1.
         21   -1    0    0  502  503 -0.00000000000E+00 -0.00000000000E+00 -0.52730764897E+03  0.52730764897E+03  0.00000000000E+00 0. -1.
         -6    2    1    2    0  503 -0.35891137738E+02  0.37187819129E+02 -0.38542593258E+03  0.42556401412E+03  0.17285969149E+03 0.  0.
        -24    2    3    3    0    0 -0.51359041330E+02  0.50583991668E+02 -0.38948418216E+03  0.40418007458E+03  0.80418363557E+02 0.  0.
          6    2    1    2  501    0  0.35891137738E+02 -0.37187819129E+02 -0.55094209496E+02  0.18853114175E+03  0.17273538094E+03 0.  0.
         24    2    5    5    0    0 -0.66489337320E+01 -0.84780740678E+02 -0.38950924608E+02  0.12252023728E+03  0.79133126471E+02 0.  0.
          5    1    5    5  501    0  0.42540071470E+02  0.47592921549E+02 -0.16143284888E+02  0.66010904472E+02  0.47000000000E+01 0. -1.
        -13    1    6    6    0    0 -0.38170854312E+01 -0.60019732783E+02 -0.63554590714E+02  0.87499282656E+02  0.00000000000E+00 0.  1.
         14    1    6    6    0    0 -0.28318483007E+01 -0.24761007895E+02  0.24603666106E+02  0.35020954622E+02  0.00000000000E+00 0. -1.
         -5    1    3    3    0  503  0.15467903593E+02 -0.13396172539E+02  0.40582495780E+01  0.21383939532E+02  0.47000000000E+01 0.  1.
         13    1    4    4    0    0 -0.41029629814E+02 -0.11404651911E+02 -0.20212548198E+03  0.20656284050E+03  0.00000000000E+00 0. -1.
        -14    1    4    4    0    0 -0.10329411516E+02  0.61988643579E+02 -0.18735870018E+03  0.19761723409E+03  0.00000000000E+00 0.  1.
<mgrwt>
<rscale>  2 0.18039078E+03</rscale>
<asrwt>0</asrwt>
<pdfrwt beam="1">  1       21 0.13351924E-01 0.18042057E+03</pdfrwt>
<pdfrwt beam="2">  1       21 0.81124254E-01 0.18042057E+03</pdfrwt>
<totfact> 0.64909619E+04</totfact>
</mgrwt>
</event>
<event>
12    1  0.1029207E-001  0.1888677E+03  0.7546771E-02  0.1159502E+00
         21   -1    0    0  503  502  0.00000000000E+00  0.00000000000E+00  0.53107909243E+02  0.53107909243E+02  0.00000000000E+00 0.  1.
         21   -1    0    0  501  503 -0.00000000000E+00 -0.00000000000E+00 -0.11094604083E+04  0.11094604083E+04  0.00000000000E+00 0.  1.
          6    2    1    2  501    0  0.52224218866E+01  0.74436915264E+02 -0.89336483751E+03  0.91309687356E+03  0.17342733225E+03 0.  0.
         24    2    3    3    0    0  0.40677739723E+02 -0.62987914226E+01 -0.60266379681E+03  0.60928028586E+03  0.79526482865E+02 0.  0.
         -6    2    1    2    0  502 -0.52224218866E+01 -0.74436915264E+02 -0.16298766159E+03  0.24947144402E+03  0.17350186024E+03 0.  0.
        -24    2    5    5    0    0 -0.15605778675E+02 -0.31933514997E+02 -0.18110669719E+03  0.20188213236E+03  0.81813629018E+02 0.  0.
          5    1    3    3  501    0 -0.35455317837E+02  0.80735706686E+02 -0.29070104070E+03  0.30381658770E+03  0.47000000000E+01 0. -1.
        -11    1    4    4    0    0 -0.81120832212E+01 -0.21987287285E+02 -0.38302959060E+03  0.38374589767E+03  0.00000000000E+00 0.  1.
         12    1    4    4    0    0  0.48789822944E+02  0.15688495863E+02 -0.21963420620E+03  0.22553438820E+03  0.00000000000E+00 0. -1.
         -5    1    5    5    0  502  0.10383356788E+02 -0.42503400267E+02  0.18119035603E+02  0.47589311653E+02  0.47000000000E+01 0.  1.
         11    1    6    6    0    0  0.25158753889E+02 -0.24107285898E+02 -0.32719145923E+02  0.47798186582E+02  0.00000000000E+00 0. -1.
        -12    1    6    6    0    0 -0.40764532563E+02 -0.78262290991E+01 -0.14838755127E+03  0.15408394578E+03  0.00000000000E+00 0.  1.
<mgrwt>
<rscale>  2 0.18885062E+03</rscale>
<asrwt>0</asrwt>
<pdfrwt beam="1">  1       21 0.81704476E-02 0.18886774E+03</pdfrwt>
<pdfrwt beam="2">  1       21 0.17068622E+00 0.18886774E+03</pdfrwt>
<totfact> 0.24473564E+04</totfact>
</mgrwt>
</event>
<event>
12    1  0.1029207E-001  0.2105315E+03  0.7546771E-02  0.1141246E+00
         21   -1    0    0  503  502  0.00000000000E+00  0.00000000000E+00  0.16431718202E+03  0.16431718202E+03  0.00000000000E+00 0.  1.
         21   -1    0    0  501  503 -0.00000000000E+00 -0.00000000000E+00 -0.30907180850E+03  0.30907180850E+03  0.00000000000E+00 0.  1.
          6    2    1    2  501    0 -0.73125717884E+02 -0.94293220265E+02 -0.15742657290E+03  0.26247643243E+03  0.17283567260E+03 0.  0.
         24    2    3    3    0    0 -0.10897695561E+03 -0.10121916196E+03 -0.10555915502E+03  0.19887140942E+03  0.79283079372E+02 0.  0.
         -6    2    1    2    0  502  0.73125717884E+02  0.94293220265E+02  0.12671946413E+02  0.21091255809E+03  0.17345012808E+03 0.  0.
        -24    2    5    5    0    0  0.46948357167E+02  0.13287896024E+03 -0.51785550011E+00  0.16222812097E+03  0.80353772424E+02 0.  0.
          5    1    3    3  501    0  0.35851237726E+02  0.69259416916E+01 -0.51867417874E+02  0.63605023007E+02  0.47000000000E+01 0. -1.
        -13    1    4    4    0    0 -0.39869803552E+02 -0.71619818403E+02 -0.90674492781E+02  0.12223282401E+03  0.00000000000E+00 0.  1.
         14    1    4    4    0    0 -0.69107152058E+02 -0.29599343554E+02 -0.14884662241E+02  0.76638585415E+02  0.00000000000E+00 0. -1.
         -5    1    5    5    0  502  0.26177360717E+02 -0.38585739976E+02  0.13189801913E+02  0.48684437124E+02  0.47000000000E+01 0.  1.
         11    1    6    6    0    0  0.27065966724E+02  0.11442036102E+03 -0.30825436586E+02  0.12155160678E+03  0.00000000000E+00 0. -1.
        -12    1    6    6    0    0  0.19882390444E+02  0.18458599222E+02  0.30307581086E+02  0.40676514185E+02  0.00000000000E+00 0.  1.
<mgrwt>
<rscale>  2 0.21040494E+03</rscale>
<asrwt>0</asrwt>
<pdfrwt beam="1">  1       21 0.25279567E-01 0.21053154E+03</pdfrwt>
<pdfrwt beam="2">  1       21 0.47549509E-01 0.21053154E+03</pdfrwt>
<totfact> 0.62209448E+04</totfact>
</mgrwt>
</event>
<event>
12    1  0.1029207E-001  0.1764386E+03  0.7546771E-02  0.1171540E+00
         21   -1    0    0  503  502  0.00000000000E+00  0.00000000000E+00  0.51093768255E+03  0.51093768255E+03  0.00000000000E+00 0. -1.
         21   -1    0    0  501  503 -0.00000000000E+00 -0.00000000000E+00 -0.62501754035E+02  0.62501754035E+02  0.00000000000E+00 0.  1.
          6    2    1    2  501    0 -0.34187960083E+02 -0.74476915353E+01  0.17466625888E+03  0.24827176428E+03  0.17293432923E+03 0.  0.
         24    2    3    3    0    0 -0.47035491942E+02  0.51634444374E+02  0.14693139454E+03  0.18158540467E+03  0.80659600423E+02 0.  0.
         -6    2    1    2    0  502  0.34187960083E+02  0.74476915353E+01  0.27376966963E+03  0.32516767230E+03  0.17192992285E+03 0.  0.
        -24    2    5    5    0    0 -0.39769871030E+01 -0.24946486920E+02  0.59740074656E+02  0.10531157500E+03  0.82966907099E+02 0.  0.
          5    1    3    3  501    0  0.12847531858E+02 -0.59082135909E+02  0.27734864336E+02  0.66686359611E+02  0.47000000000E+01 0. -1.
        -11    1    4    4    0    0 -0.21561750616E+02  0.67358788142E+01 -0.32111180150E+01  0.22816494734E+02  0.00000000000E+00 0.  1.
         12    1    4    4    0    0 -0.25473741325E+02  0.44898565560E+02  0.15014251256E+03  0.15876890994E+03  0.00000000000E+00 0. -1.
         -5    1    5    5    0  502  0.38164947186E+02  0.32394178456E+02  0.21402959498E+03  0.21985609729E+03  0.47000000000E+01 0.  1.
         13    1    6    6    0    0  0.70983913087E+01 -0.23980061884E+02  0.79115007798E+02  0.82973580048E+02  0.00000000000E+00 0. -1.
        -14    1    6    6    0    0 -0.11075378412E+02 -0.96642503684E+00 -0.19374933143E+02  0.22337994955E+02  0.00000000000E+00 0.  1.
<mgrwt>
<rscale>  2 0.17619196E+03</rscale>
<asrwt>0</asrwt>
<pdfrwt beam="1">  1       21 0.78605794E-01 0.17643856E+03</pdfrwt>
<pdfrwt beam="2">  1       21 0.96156548E-02 0.17643856E+03</pdfrwt>
<totfact> 0.12517535E+05</totfact>
</mgrwt>
</event>
<event>
12    1  0.1029207E-001  0.2113950E+03  0.7546771E-02  0.1140531E+00
         21   -1    0    0  503  502  0.00000000000E+00  0.00000000000E+00  0.19956472138E+03  0.19956472138E+03  0.00000000000E+00 0. -1.
         21   -1    0    0  501  503 -0.00000000000E+00 -0.00000000000E+00 -0.23565387862E+03  0.23565387862E+03  0.00000000000E+00 0. -1.
          6    2    1    2  501    0 -0.84691948949E+02 -0.87756043602E+02 -0.67293961718E+02  0.22153291948E+03  0.17226290293E+03 0.  0.
         24    2    3    3    0    0  0.17788533991E+02 -0.15546654818E+02 -0.57792261200E+02  0.95720290843E+02  0.72555483644E+02 0.  0.
         -6    2    1    2    0  502  0.84691948949E+02  0.87756043602E+02  0.31204804478E+02  0.21368568052E+03  0.17266725466E+03 0.  0.
        -24    2    5    5    0    0  0.52354566755E+02  0.10945335596E+03 -0.22674884314E+02  0.14704042176E+03  0.79910559130E+02 0.  0.
          5    1    3    3  501    0 -0.10248048294E+03 -0.72209388784E+02 -0.95017005182E+01  0.12581262864E+03  0.47000000000E+01 0. -1.
        -11    1    4    4    0    0 -0.11379140441E+02 -0.26769061640E+02 -0.57532048076E+02  0.64467077288E+02  0.00000000000E+00 0.  1.
         12    1    4    4    0    0  0.29167674432E+02  0.11222406822E+02 -0.26021312436E+00  0.31253213555E+02  0.00000000000E+00 0. -1.
         -5    1    5    5    0  502  0.32337382194E+02 -0.21697312363E+02  0.53879688791E+02  0.66645258760E+02  0.47000000000E+01 0.  1.
         11    1    6    6    0    0  0.32019051651E+02  0.37131043000E+02  0.27960724454E+02  0.56442325739E+02  0.00000000000E+00 0. -1.
        -12    1    6    6    0    0  0.20335515104E+02  0.72322312965E+02 -0.50635608768E+02  0.90598096020E+02  0.00000000000E+00 0.  1.
<mgrwt>
<rscale>  2 0.21131238E+03</rscale>
<asrwt>0</asrwt>
<pdfrwt beam="1">  1       21 0.30702265E-01 0.21139496E+03</pdfrwt>
<pdfrwt beam="2">  1       21 0.36254443E-01 0.21139496E+03</pdfrwt>
<totfact> 0.74127282E+04</totfact>
</mgrwt>
</event>
<event>
12    1  0.1029207E-001  0.2645070E+03  0.7546771E-02  0.1105454E+00
         21   -1    0    0  503  502  0.00000000000E+00  0.00000000000E+00  0.94275766062E+02  0.94275766062E+02  0.00000000000E+00 0. -1.
         21   -1    0    0  501  503 -0.00000000000E+00 -0.00000000000E+00 -0.15316488023E+04  0.15316488023E+04  0.00000000000E+00 0.  1.
          6    2    1    2  501    0 -0.12116142536E+03 -0.15319418685E+03 -0.13134620987E+04  0.13398308328E+04  0.17836879239E+03 0.  0.
         24    2    3    3    0    0 -0.15020976436E+03 -0.15940800672E+03 -0.11946020245E+04  0.12172248591E+04  0.81169420563E+02 0.  0.
         -6    2    1    2    0  502  0.12116142536E+03  0.15319418685E+03 -0.12391093760E+03  0.28609373556E+03  0.16836613433E+03 0.  0.
        -24    2    5    5    0    0  0.11686501560E+03  0.46101091047E+02 -0.81313570330E+02  0.17066403399E+03  0.82046165738E+02 0.  0.
          5    1    3    3  501    0  0.29048339003E+02  0.62138198718E+01 -0.11886007418E+03  0.12260597371E+03  0.47000000000E+01 0. -1.
        -11    1    4    4    0    0 -0.12895300461E+03 -0.94148766587E+02 -0.94338340654E+03  0.95679941439E+03  0.00000000000E+00 0.  1.
         12    1    4    4    0    0 -0.21256759745E+02 -0.65259240131E+02 -0.25121861795E+03  0.26042544473E+03  0.00000000000E+00 0. -1.
         -5    1    5    5    0  502  0.42964097576E+01  0.10709309580E+03 -0.42597367267E+02  0.11542970156E+03  0.47000000000E+01 0.  1.
         11    1    6    6    0    0  0.11019573455E+02  0.36372948072E+02 -0.43697234537E+02  0.57912612243E+02  0.00000000000E+00 0. -1.
        -12    1    6    6    0    0  0.10584544214E+03  0.97281429750E+01 -0.37616335793E+02  0.11275142175E+03  0.00000000000E+00 0.  1.
<mgrwt>
<rscale>  2 0.26283133E+03</rscale>
<asrwt>0</asrwt>
<pdfrwt beam="1">  1       21 0.14503965E-01 0.26450704E+03</pdfrwt>
<pdfrwt beam="2">  1       21 0.23563825E+00 0.26450704E+03</pdfrwt>
<totfact> 0.31594357E+03</totfact>
</mgrwt>
</event>
<event>
12    1  0.1029207E-001  0.1897545E+03  0.7546771E-02  0.1159054E+00
         21   -1    0    0  503  502  0.00000000000E+00  0.00000000000E+00  0.74274578320E+03  0.74274578320E+03  0.00000000000E+00 0. -1.
         21   -1    0    0  501  503 -0.00000000000E+00 -0.00000000000E+00 -0.71614528804E+02  0.71614528804E+02  0.00000000000E+00 0. -1.
          6    2    1    2  501    0 -0.69938683955E+02  0.25375269436E+02  0.10107593041E+03  0.21355266767E+03  0.17278042236E+03 0.  0.
         24    2    3    3    0    0 -0.49084987408E+01  0.66848632897E+02  0.88533290972E+02  0.13526874423E+03  0.77244135537E+02 0.  0.
         -6    2    1    2    0  502  0.69938683955E+02 -0.25375269436E+02  0.57005532399E+03  0.60080764433E+03  0.17456067504E+03 0.  0.
        -24    2    5    5    0    0  0.64516405663E+02  0.24477587145E+02  0.51684302157E+03  0.52753863629E+03  0.80054887167E+02 0.  0.
          5    1    3    3  501    0 -0.65030185214E+02 -0.41473363461E+02  0.12542639438E+02  0.78283923444E+02  0.47000000000E+01 0. -1.
        -13    1    4    4    0    0 -0.16371645297E+02  0.63137200429E+01  0.68151638274E+02  0.70374282448E+02  0.00000000000E+00 0.  1.
         14    1    4    4    0    0  0.11463146556E+02  0.60534912854E+02  0.20381652697E+02  0.64894461781E+02  0.00000000000E+00 0. -1.
         -5    1    5    5    0  502  0.54222782918E+01 -0.49852856581E+02  0.53212302419E+02  0.73269008045E+02  0.47000000000E+01 0. -1.
         13    1    6    6    0    0  0.26436729074E+02  0.35695814818E+02  0.42714790138E+03  0.42945130282E+03  0.00000000000E+00 0. -1.
        -14    1    6    6    0    0  0.38079676589E+02 -0.11218227673E+02  0.89695120190E+02  0.98087333469E+02  0.00000000000E+00 0.  1.
<mgrwt>
<rscale>  2 0.18934402E+03</rscale>
<asrwt>0</asrwt>
<pdfrwt beam="1">  1       21 0.11426858E+00 0.18975445E+03</pdfrwt>
<pdfrwt beam="2">  1       21 0.11017620E-01 0.18975445E+03</pdfrwt>
<totfact> 0.40755833E+04</totfact>
</mgrwt>
</event>
<event>
12    1  0.1029207E-001  0.1897203E+03  0.7546771E-02  0.1158850E+00
         21   -1    0    0  501  502  0.00000000000E+00  0.00000000000E+00  0.50285759366E+02  0.50285759366E+02  0.00000000000E+00 0. -1.
         21   -1    0    0  502  503 -0.00000000000E+00 -0.00000000000E+00 -0.16191808181E+04  0.16191808181E+04  0.00000000000E+00 0. -1.
         -6    2    1    2    0  503 -0.36828505981E+02 -0.66678033608E+02 -0.14092795743E+04  0.14219925082E+04  0.17375694458E+03 0.  0.
        -24    2    3    3    0    0  0.32804891767E+00 -0.10717005880E+03 -0.10525272155E+04  0.10610014430E+04  0.80156056847E+02 0.  0.
          6    2    1    2  501    0  0.36828505981E+02  0.66678033608E+02 -0.15961548442E+03  0.24747406926E+03  0.17310116427E+03 0.  0.
         24    2    5    5    0    0 -0.34777035334E+02  0.66921684023E+02 -0.12234247273E+03  0.16661134414E+03  0.84283482275E+02 0.  0.
          5    1    5    5  501    0  0.71605541316E+02 -0.24365041496E+00 -0.37273011684E+02  0.80862725112E+02  0.47000000000E+01 0. -1.
        -11    1    6    6    0    0 -0.41822159043E+02  0.82041167678E+02 -0.83369527536E+02  0.12421885647E+03  0.00000000000E+00 0.  1.
         12    1    6    6    0    0  0.70451237089E+01 -0.15119483655E+02 -0.38972945195E+02  0.42392487675E+02  0.00000000000E+00 0. -1.
         -5    1    3    3    0  503 -0.37156554899E+02  0.40492025189E+02 -0.35675235883E+03  0.36099106527E+03  0.47000000000E+01 0.  1.
         13    1    4    4    0    0  0.13499702242E+02 -0.18856690152E+02 -0.55774697330E+03  0.55822889834E+03  0.00000000000E+00 0. -1.
        -14    1    4    4    0    0 -0.13171653324E+02 -0.88313368645E+02 -0.49478024222E+03  0.50277254462E+03  0.00000000000E+00 0.  1.
<mgrwt>
<rscale>  2 0.18956997E+03</rscale>
<asrwt>0</asrwt>
<pdfrwt beam="1">  1       21 0.77362713E-02 0.18972025E+03</pdfrwt>
<pdfrwt beam="2">  1       21 0.24910472E+00 0.18972025E+03</pdfrwt>
<totfact> 0.85861961E+03</totfact>
</mgrwt>
</event>
<event>
12    1  0.1029207E-001  0.1849324E+03  0.7546771E-02  0.1163208E+00
         21   -1    0    0  501  502  0.00000000000E+00  0.00000000000E+00  0.43415800566E+03  0.43415800566E+03  0.00000000000E+00 0.  1.
         21   -1    0    0  502  503 -0.00000000000E+00 -0.00000000000E+00 -0.87944117414E+02  0.87944117414E+02  0.00000000000E+00 0.  1.
         -6    2    1    2    0  503 -0.41146173263E+02  0.51458043524E+02  0.88187504058E+02  0.20488299619E+03  0.17279776745E+03 0.  0.
        -24    2    3    3    0    0  0.16161693456E+02 -0.27890356551E+02  0.51418608554E+02  0.10021971772E+03  0.79756167100E+02 0.  0.
          6    2    1    2  501    0  0.41146173263E+02 -0.51458043524E+02  0.25802638418E+03  0.31721912688E+03  0.17236421238E+03 0.  0.
         24    2    5    5    0    0  0.79604218183E+02 -0.67444604428E+02  0.23566179852E+03  0.26971274794E+03  0.79516519673E+02 0.  0.
          5    1    5    5  501    0 -0.38458044919E+02  0.15986560904E+02  0.22364585664E+02  0.47506378945E+02  0.47000000000E+01 0. -1.
        -11    1    6    6    0    0  0.89634774140E+02 -0.36973156979E+02  0.15407200624E+03  0.18204282513E+03  0.00000000000E+00 0.  1.
         12    1    6    6    0    0 -0.10030555957E+02 -0.30471447449E+02  0.81589792276E+02  0.87669922814E+02  0.00000000000E+00 0. -1.
         -5    1    3    3    0  503 -0.57307866719E+02  0.79348400075E+02  0.36768895504E+02  0.10466327846E+03  0.47000000000E+01 0.  1.
         11    1    4    4    0    0  0.16411382058E+02  0.20847443238E+02 -0.35353130563E+01  0.26766542343E+02  0.00000000000E+00 0. -1.
        -12    1    4    4    0    0 -0.24968860173E+00 -0.48737799789E+02  0.54953921611E+02  0.73453175378E+02  0.00000000000E+00 0.  1.
<mgrwt>
<rscale>  2 0.18483109E+03</rscale>
<asrwt>0</asrwt>
<pdfrwt beam="1">  1       21 0.66793538E-01 0.18493244E+03</pdfrwt>
<pdfrwt beam="2">  1       21 0.13529864E-01 0.18493244E+03</pdfrwt>
<totfact> 0.97433012E+04</totfact>
</mgrwt>
</event>
<event>
12    1  0.1029207E-001  0.1887293E+03  0.7546771E-02  0.1160970E+00
         21   -1    0    0  503  502  0.00000000000E+00  0.00000000000E+00  0.27360420966E+03  0.27360420966E+03  0.00000000000E+00 0.  1.
         21   -1    0    0  501  503 -0.00000000000E+00 -0.00000000000E+00 -0.41763442072E+03  0.41763442072E+03  0.00000000000E+00 0. -1.
          6    2    1    2  501    0  0.52950161135E+02  0.49922450166E+02 -0.36039264707E+03  0.40412984631E+03  0.16775607895E+03 0.  0.
         24    2    3    3    0    0  0.58599445069E+02  0.93223093369E+02 -0.30798316258E+03  0.33575072541E+03  0.75831926531E+02 0.  0.
         -6    2    1    2    0  502 -0.52950161135E+02 -0.49922450166E+02  0.21636243600E+03  0.28710878407E+03  0.17413437220E+03 0.  0.
        -24    2    5    5    0    0  0.19251426366E+02 -0.39834680089E+02  0.44191984991E+02  0.10008047994E+03  0.78139310036E+02 0.  0.
          5    1    3    3  501    0 -0.56492839336E+01 -0.43300643203E+02 -0.52409484486E+02  0.68379120899E+02  0.47000000000E+01 0. -1.
        -13    1    4    4    0    0  0.21259389367E+02  0.36422539787E+01 -0.12934458431E+02  0.25150106664E+02  0.00000000000E+00 0.  1.
         14    1    4    4    0    0  0.37340055702E+02  0.89580839391E+02 -0.29504870415E+03  0.31060061875E+03  0.00000000000E+00 0. -1.
         -5    1    5    5    0  502 -0.72201587502E+02 -0.10087770077E+02  0.17217045101E+03  0.18702830413E+03  0.47000000000E+01 0.  1.
         13    1    6    6    0    0 -0.13794824767E+02 -0.13264983637E+01 -0.16122003002E+02  0.21259721754E+02  0.00000000000E+00 0. -1.
        -14    1    6    6    0    0  0.33046251133E+02 -0.38508181725E+02  0.60313987992E+02  0.78820758188E+02  0.00000000000E+00 0.  1.
<mgrwt>
<rscale>  2 0.18724475E+03</rscale>
<asrwt>0</asrwt>
<pdfrwt beam="1">  1       21 0.42092955E-01 0.18872930E+03</pdfrwt>
<pdfrwt beam="2">  1       21 0.64251449E-01 0.18872930E+03</pdfrwt>
<totfact> 0.12172023E+04</totfact>
</mgrwt>
</event>
<event>
12    1  0.1029207E-001  0.2015273E+03  0.7546771E-02  0.1148756E+00
         21   -1    0    0  501  502  0.00000000000E+00  0.00000000000E+00  0.16764457706E+03  0.16764457706E+03  0.00000000000E+00 0.  1.
         21   -1    0    0  502  503 -0.00000000000E+00 -0.00000000000E+00 -0.29234527000E+03  0.29234527000E+03  0.00000000000E+00 0.  1.
         -6    2    1    2    0  503  0.10676847058E+02 -0.10020863310E+03  0.34280940923E+02  0.20442216413E+03  0.17452069524E+03 0.  0.
        -24    2    3    3    0    0 -0.28678587643E+02 -0.70663210748E+02 -0.37023133606E+02  0.11765729067E+03  0.81589061051E+02 0.  0.
          6    2    1    2  501    0 -0.10676847058E+02  0.10020863310E+03 -0.15898163386E+03  0.25556768292E+03  0.17286964869E+03 0.  0.
         24    2    5    5    0    0 -0.72599225010E+02  0.69913297134E+02 -0.12437400182E+03  0.17828918353E+03  0.78483272407E+02 0.  0.
          5    1    5    5  501    0  0.61922377952E+02  0.30295335965E+02 -0.34607632047E+02  0.77278499393E+02  0.47000000000E+01 0. -1.
        -11    1    6    6    0    0 -0.76185072590E+02  0.81204889043E+02 -0.94118246030E+02  0.14579658270E+03  0.00000000000E+00 0.  1.
         12    1    6    6    0    0  0.35858475796E+01 -0.11291591909E+02 -0.30255755788E+02  0.32492600835E+02  0.00000000000E+00 0. -1.
         -5    1    3    3    0  503  0.39355434701E+02 -0.29545422351E+02  0.71304074529E+02  0.86764873462E+02  0.47000000000E+01 0.  1.
         13    1    4    4    0    0 -0.37179168705E+02 -0.13146275215E+02  0.12410005404E+02  0.41341545348E+02  0.00000000000E+00 0. -1.
        -14    1    4    4    0    0  0.85005810621E+01 -0.57516935534E+02 -0.49433139010E+02  0.76315745321E+02  0.00000000000E+00 0.  1.
<mgrwt>
<rscale>  2 0.20116929E+03</rscale>
<asrwt>0</asrwt>
<pdfrwt beam="1">  1       21 0.25791473E-01 0.20152726E+03</pdfrwt>
<pdfrwt beam="2">  1       21 0.44976195E-01 0.20152726E+03</pdfrwt>
<totfact> 0.67424913E+04</totfact>
</mgrwt>
</event>
<event>
12    1  0.1029207E-001  0.1907665E+03  0.7546771E-02  0.1157817E+00
         21   -1    0    0  501  502  0.00000000000E+00  0.00000000000E+00  0.49101545779E+03  0.49101545779E+03  0.00000000000E+00 0. -1.
         21   -1    0    0  502  503 -0.00000000000E+00 -0.00000000000E+00 -0.78149524860E+02  0.78149524860E+02  0.00000000000E+00 0.  1.
         -6    2    1    2    0  503  0.58323594244E+01  0.74944403238E+02  0.14105493430E+03  0.23709107985E+03  0.17511426459E+03 0.  0.
        -24    2    3    3    0    0 -0.45124829181E+02  0.17916799068E+02  0.12420133772E+03  0.15863780442E+03  0.85922749040E+02 0.  0.
          6    2    1    2  501    0 -0.58323594244E+01 -0.74944403238E+02  0.27181099863E+03  0.33207390280E+03  0.17533162279E+03 0.  0.
         24    2    5    5    0    0  0.12189994981E+02  0.18199942708E+02  0.18492223099E+03  0.20333998193E+03  0.81676697071E+02 0.  0.
          5    1    5    5  501    0 -0.18022354406E+02 -0.93144345946E+02  0.86888767641E+02  0.12873392087E+03  0.47000000000E+01 0. -1.
        -13    1    6    6    0    0 -0.11316232486E+02 -0.29384709033E+02  0.68436777050E+02  0.75333330576E+02  0.00000000000E+00 0.  1.
         14    1    6    6    0    0  0.23506227467E+02  0.47584651742E+02  0.11648545394E+03  0.12800665136E+03  0.00000000000E+00 0. -1.
         -5    1    3    3    0  503  0.50957188605E+02  0.57027604169E+02  0.16853596575E+02  0.78453275428E+02  0.47000000000E+01 0.  1.
         11    1    4    4    0    0 -0.50597682698E+02  0.33919578236E+02  0.40278030028E+02  0.73027275624E+02  0.00000000000E+00 0. -1.
        -12    1    4    4    0    0  0.54728535173E+01 -0.16002779168E+02  0.83923307697E+02  0.85610528800E+02  0.00000000000E+00 0.  1.
<mgrwt>
<rscale>  2 0.19071654E+03</rscale>
<asrwt>0</asrwt>
<pdfrwt beam="1">  1       21 0.75540838E-01 0.19076650E+03</pdfrwt>
<pdfrwt beam="2">  1       21 0.12023004E-01 0.19076650E+03</pdfrwt>
<totfact> 0.91572207E+04</totfact>
</mgrwt>
</event>
<event>
12    1  0.1029207E-001  0.3118573E+03  0.7546771E-02  0.1079600E+00
         21   -1    0    0  501  502  0.00000000000E+00  0.00000000000E+00  0.10576235984E+03  0.10576235984E+03  0.00000000000E+00 0.  1.
         21   -1    0    0  502  503 -0.00000000000E+00 -0.00000000000E+00 -0.11985369037E+04  0.11985369037E+04  0.00000000000E+00 0. -1.
         -6    2    1    2    0  503 -0.33994358798E+02 -0.25589292479E+03 -0.86218762006E+03  0.91645222886E+03  0.17285945218E+03 0.  0.
        -24    2    3    3    0    0 -0.82628030520E+01 -0.66229000496E+02 -0.17920454406E+03  0.20714095076E+03  0.79615013961E+02 0.  0.
          6    2    1    2  501    0  0.33994358798E+02  0.25589292479E+03 -0.23058692375E+03  0.38784703463E+03  0.17498053458E+03 0.  0.
         24    2    5    5    0    0  0.81605801473E+02  0.23015896654E+03 -0.17992186260E+03  0.31356295490E+03  0.79480773333E+02 0.  0.
          5    1    5    5  501    0 -0.47611442676E+02  0.25733958246E+02 -0.50665061150E+02  0.74284079734E+02  0.47000000000E+01 0. -1.
        -11    1    6    6    0    0  0.65368336247E+02  0.70786145351E+02 -0.74412993279E+02  0.12174149386E+03  0.00000000000E+00 0.  1.
         12    1    6    6    0    0  0.16237465226E+02  0.15937282119E+03 -0.10550886932E+03  0.19182146104E+03  0.00000000000E+00 0. -1.
         -5    1    3    3    0  503 -0.25731555746E+02 -0.18966392429E+03 -0.68298307600E+03  0.70931127810E+03  0.47000000000E+01 0.  1.
         11    1    4    4    0    0  0.25297583625E+02 -0.52347288118E+02 -0.14887259310E+03  0.15982257440E+03  0.00000000000E+00 0. -1.
        -12    1    4    4    0    0 -0.33560386677E+02 -0.13881712377E+02 -0.30331950964E+02  0.47318376364E+02  0.00000000000E+00 0.  1.
<mgrwt>
<rscale>  2 0.31156061E+03</rscale>
<asrwt>0</asrwt>
<pdfrwt beam="1">  1       21 0.16271132E-01 0.31185733E+03</pdfrwt>
<pdfrwt beam="2">  1       21 0.18439029E+00 0.31185733E+03</pdfrwt>
<totfact> 0.52840864E+03</totfact>
</mgrwt>
</event>
<event>
12    1  0.1029207E-001  0.2045011E+03  0.7546771E-02  0.1146023E+00
         21   -1    0    0  501  502  0.00000000000E+00  0.00000000000E+00  0.53867895754E+03  0.53867895754E+03  0.00000000000E+00 0. -1.
         21   -1    0    0  502  503 -0.00000000000E+00 -0.00000000000E+00 -0.96034505388E+02  0.96034505388E+02  0.00000000000E+00 0.  1.
         -6    2    1    2    0  503  0.90998955255E+02  0.57340637502E+02  0.82283754575E+02  0.22043435269E+03  0.17393081674E+03 0.  0.
        -24    2    3    3    0    0  0.14537852739E+02  0.24079402378E+02  0.10366310120E+03  0.13422660117E+03  0.80495808156E+02 0.  0.
          6    2    1    2  501    0 -0.90998955255E+02 -0.57340637502E+02  0.36036069758E+03  0.41427911024E+03  0.17377741585E+03 0.  0.
         24    2    5    5    0    0 -0.56283889800E+02  0.21154797630E+01  0.31949378932E+03  0.33407711625E+03  0.79742627755E+02 0.  0.
          5    1    5    5  501    0 -0.34715065454E+02 -0.59456117265E+02  0.40866908254E+02  0.80201993990E+02  0.47000000000E+01 0. -1.
        -13    1    6    6    0    0 -0.90507757982E+01  0.12063420351E+02  0.49819164472E+01  0.15882762499E+02  0.00000000000E+00 0.  1.
         14    1    6    6    0    0 -0.47233114002E+02 -0.99479405876E+01  0.31451187288E+03  0.31819435375E+03  0.00000000000E+00 0. -1.
         -5    1    3    3    0  503  0.76461102515E+02  0.33261235124E+02 -0.21379346620E+02  0.86207751518E+02  0.47000000000E+01 0.  1.
         13    1    4    4    0    0  0.45288349410E+02  0.27473537353E+02  0.76549513203E+02  0.93089515084E+02  0.00000000000E+00 0. -1.
        -14    1    4    4    0    0 -0.30750496671E+02 -0.33941349741E+01  0.27113587993E+02  0.41137086085E+02  0.00000000000E+00 0.  1.
<mgrwt>
<rscale>  2 0.20446845E+03</rscale>
<asrwt>0</asrwt>
<pdfrwt beam="1">  1       21 0.82873684E-01 0.20450107E+03</pdfrwt>
<pdfrwt beam="2">  1       21 0.14774540E-01 0.20450107E+03</pdfrwt>
<totfact> 0.50893023E+04</totfact>
</mgrwt>
</event>
<event>
12    1  0.1029207E-001  0.1835574E+03  0.7546771E-02  0.1165202E+00
         21   -1    0    0  501  502  0.00000000000E+00  0.00000000000E+00  0.66473128740E+03  0.66473128740E+03  0.00000000000E+00 0.  1.
         21   -1    0    0  502  503 -0.00000000000E+00 -0.00000000000E+00 -0.56454104086E+02  0.56454104086E+02  0.00000000000E+00 0.  1.
         -6    2    1    2    0  503  0.47338043042E+02 -0.28170670747E+02  0.18249674565E+03  0.25884045746E+03  0.17509666827E+03 0.  0.
        -24    2    3    3    0    0 -0.19045857939E+02 -0.66543186419E+02  0.10409558135E+03  0.14907659805E+03  0.81223159677E+02 0.  0.
          6    2    1    2  501    0 -0.47338043042E+02  0.28170670747E+02  0.42578043766E+03  0.46234493402E+03  0.17157907771E+03 0.  0.
         24    2    5    5    0    0 -0.45518368532E+02  0.94678568318E+01  0.43126775827E+03  0.44221269244E+03  0.86015253568E+02 0.  0.
          5    1    5    5  501    0 -0.18196745105E+01  0.18702813915E+02 -0.54873206046E+01  0.20132241581E+02  0.47000000000E+01 0. -1.
        -13    1    6    6    0    0 -0.60768074314E+02  0.28772892732E+02  0.23565613815E+03  0.24506010214E+03  0.00000000000E+00 0.  1.
         14    1    6    6    0    0  0.15249705782E+02 -0.19305035900E+02  0.19561162012E+03  0.19715259030E+03  0.00000000000E+00 0. -1.
         -5    1    3    3    0  503  0.66383900981E+02  0.38372515672E+02  0.78401164302E+02  0.10976385941E+03  0.47000000000E+01 0.  1.
         11    1    4    4    0    0  0.19374360170E+02 -0.54245601276E+02  0.88980381043E+02  0.10599744950E+03  0.00000000000E+00 0. -1.
        -12    1    4    4    0    0 -0.38420218110E+02 -0.12297585142E+02  0.15115200304E+02  0.43079148554E+02  0.00000000000E+00 0.  1.
<mgrwt>
<rscale>  2 0.18271351E+03</rscale>
<asrwt>0</asrwt>
<pdfrwt beam="1">  1       21 0.10226635E+00 0.18355740E+03</pdfrwt>
<pdfrwt beam="2">  1       21 0.86852473E-02 0.18355740E+03</pdfrwt>
<totfact> 0.81237585E+04</totfact>
</mgrwt>
</event>
<event>
12    1  0.1029207E-001  0.2127963E+03  0.7546771E-02  0.1139563E+00
         21   -1    0    0  503  502  0.00000000000E+00  0.00000000000E+00  0.12922710745E+03  0.12922710745E+03  0.00000000000E+00 0. -1.
         21   -1    0    0  501  503 -0.00000000000E+00 -0.00000000000E+00 -0.57669554514E+03  0.57669554514E+03  0.00000000000E+00 0.  1.
          6    2    1    2  501    0 -0.58960698058E+02 -0.11011117052E+03 -0.44530854445E+03  0.49311543186E+03  0.17106225648E+03 0.  0.
         24    2    3    3    0    0 -0.63254346428E+02 -0.14373115852E+03 -0.35418570079E+03  0.39577992114E+03  0.80836112373E+02 0.  0.
         -6    2    1    2    0  502  0.58960698058E+02  0.11011117052E+03 -0.21598932417E+01  0.21280722072E+03  0.17228294827E+03 0.  0.
        -24    2    5    5    0    0  0.10354424931E+02  0.82250387788E+02 -0.61954054173E+02  0.13073271382E+03  0.79877388717E+02 0.  0.
          5    1    3    3  501    0  0.42936483704E+01  0.33619988007E+02 -0.91122843664E+02  0.97335510721E+02  0.47000000000E+01 0. -1.
        -13    1    4    4    0    0  0.15028056971E+01 -0.88025922539E+02 -0.14240849586E+03  0.16742461335E+03  0.00000000000E+00 0.  1.
         14    1    4    4    0    0 -0.64757152125E+02 -0.55705235984E+02 -0.21177720493E+03  0.22835530778E+03  0.00000000000E+00 0. -1.
         -5    1    5    5    0  502  0.48606273127E+02  0.27860782729E+02  0.59794160932E+02  0.82074506901E+02  0.47000000000E+01 0.  1.
         13    1    6    6    0    0 -0.71751941689E+01 -0.13106852785E+02 -0.20305193428E+02  0.25210590660E+02  0.00000000000E+00 0. -1.
        -14    1    6    6    0    0  0.17529619100E+02  0.95357240573E+02 -0.41648860745E+02  0.10552212316E+03  0.00000000000E+00 0.  1.
<mgrwt>
<rscale>  2 0.21254906E+03</rscale>
<asrwt>0</asrwt>
<pdfrwt beam="1">  1       21 0.19881093E-01 0.21279626E+03</pdfrwt>
<pdfrwt beam="2">  1       21 0.88722392E-01 0.21279626E+03</pdfrwt>
<totfact> 0.25052955E+04</totfact>
</mgrwt>
</event>
<event>
12    1  0.1029207E-001  0.1811262E+03  0.7546771E-02  0.1167232E+00
         21   -1    0    0  503  502  0.00000000000E+00  0.00000000000E+00  0.77652639782E+02  0.77652639782E+02  0.00000000000E+00 0. -1.
         21   -1    0    0  501  503 -0.00000000000E+00 -0.00000000000E+00 -0.48129144635E+03  0.48129144635E+03  0.00000000000E+00 0.  1.
          6    2    1    2  501    0 -0.31295934858E+02 -0.41398109584E+02 -0.30250748311E+03  0.35149713071E+03  0.17130737445E+03 0.  0.
         24    2    3    3    0    0 -0.25668190626E+02 -0.47092393020E+02 -0.31850399777E+03  0.33300186509E+03  0.81048726485E+02 0.  0.
         -6    2    1    2    0  502  0.31295934858E+02  0.41398109584E+02 -0.10113132346E+03  0.20744695542E+03  0.17353229012E+03 0.  0.
        -24    2    5    5    0    0  0.57751358514E+02  0.14551455777E+02 -0.12562585015E+03  0.16225067129E+03  0.83644855398E+02 0.  0.
          5    1    3    3  501    0 -0.56277442324E+01  0.56942834362E+01  0.15996514662E+02  0.18495265620E+02  0.47000000000E+01 0. -1.
        -13    1    4    4    0    0 -0.42591988360E+02 -0.57347402384E+02 -0.28733854781E+03  0.29608485792E+03  0.00000000000E+00 0.  1.
         14    1    4    4    0    0  0.16923797734E+02  0.10255009365E+02 -0.31165449964E+02  0.36917007169E+02  0.00000000000E+00 0. -1.
         -5    1    5    5    0  502 -0.26455423656E+02  0.26846653806E+02  0.24494526689E+02  0.45196284130E+02  0.47000000000E+01 0.  1.
         13    1    6    6    0    0  0.13938967017E+02  0.38246030341E+02 -0.19753128377E+02  0.45246433218E+02  0.00000000000E+00 0. -1.
        -14    1    6    6    0    0  0.43812391497E+02 -0.23694574563E+02 -0.10587272177E+03  0.11700423808E+03  0.00000000000E+00 0.  1.
<mgrwt>
<rscale>  2 0.18059119E+03</rscale>
<asrwt>0</asrwt>
<pdfrwt beam="1">  1       21 0.11946560E-01 0.18112618E+03</pdfrwt>
<pdfrwt beam="2">  1       21 0.74044837E-01 0.18112618E+03</pdfrwt>
<totfact> 0.97214400E+04</totfact>
</mgrwt>
</event>
<event>
12    1  0.1029207E-001  0.2466959E+03  0.7546771E-02  0.1115552E+00
         21   -1    0    0  503  502  0.00000000000E+00  0.00000000000E+00  0.33570872430E+03  0.33570872430E+03  0.00000000000E+00 0.  1.
         21   -1    0    0  501  503 -0.00000000000E+00 -0.00000000000E+00 -0.21607232996E+03  0.21607232996E+03  0.00000000000E+00 0.  1.
          6    2    1    2  501    0 -0.30111793072E+02 -0.17275742509E+03 -0.51992092548E+02  0.25125618090E+03  0.17226329483E+03 0.  0.
         24    2    3    3    0    0 -0.17051529423E+02 -0.15519753371E+03  0.19771334334E+02  0.17608304933E+03  0.78976613473E+02 0.  0.
         -6    2    1    2    0  502  0.30111793072E+02  0.17275742509E+03  0.17162848689E+03  0.30052487336E+03  0.17351372853E+03 0.  0.
        -24    2    5    5    0    0 -0.37163349250E+02  0.51331921712E+02  0.10088550374E+03  0.14465070196E+03  0.82035723913E+02 0.  0.
          5    1    3    3  501    0 -0.13060263649E+02 -0.17559891388E+02 -0.71763426882E+02  0.75173131570E+02  0.47000000000E+01 0. -1.
        -13    1    4    4    0    0 -0.33020857922E+02 -0.15396144268E+03  0.24557469793E+02  0.15936615768E+03  0.00000000000E+00 0.  1.
         14    1    4    4    0    0  0.15969328499E+02 -0.12360910207E+01 -0.47861354592E+01  0.16716891647E+02  0.00000000000E+00 0. -1.
         -5    1    5    5    0  502  0.67275142322E+02  0.12142550338E+03  0.70742983153E+02  0.15587417141E+03  0.47000000000E+01 0.  1.
         13    1    6    6    0    0 -0.22436946054E+01  0.49002201173E+02  0.14046963949E+02  0.51025161259E+02  0.00000000000E+00 0. -1.
        -14    1    6    6    0    0 -0.34919654645E+02  0.23297205387E+01  0.86838539789E+02  0.93625540698E+02  0.00000000000E+00 0.  1.
<mgrwt>
<rscale>  2 0.24647612E+03</rscale>
<asrwt>0</asrwt>
<pdfrwt beam="1">  1       21 0.51647496E-01 0.24669589E+03</pdfrwt>
<pdfrwt beam="2">  1       21 0.33241897E-01 0.24669589E+03</pdfrwt>
<totfact> 0.30196438E+04</totfact>
</mgrwt>
</event>
<event>
12    1  0.1029207E-001  0.2114119E+03  0.7546771E-02  0.1140701E+00
         21   -1    0    0  501  502  0.00000000000E+00  0.00000000000E+00  0.77694597916E+03  0.77694597916E+03  0.00000000000E+00 0.  1.
         21   -1    0    0  502  503 -0.00000000000E+00 -0.00000000000E+00 -0.13284095422E+03  0.13284095422E+03  0.00000000000E+00 0. -1.
         -6    2    1    2    0  503  0.10699710575E+03 -0.54280433557E+02 -0.21655577607E+02  0.21126552053E+03  0.17253814075E+03 0.  0.
        -24    2    3    3    0    0  0.14145213167E+03 -0.51653089871E+02 -0.57287621192E+01  0.17292748201E+03  0.84819502905E+02 0.  0.
          6    2    1    2  501    0 -0.10699710575E+03  0.54280433557E+02  0.66576060255E+03  0.69852141285E+03  0.17406963604E+03 0.  0.
         24    2    5    5    0    0 -0.10721642001E+03  0.96502796022E+02  0.56040232487E+03  0.58492021274E+03  0.85280356400E+02 0.  0.
          5    1    5    5  501    0  0.21931425730E+00 -0.42222362465E+02  0.10535827768E+03  0.11360120012E+03  0.47000000000E+01 0. -1.
        -11    1    6    6    0    0 -0.11979675353E+03  0.76796508151E+02  0.44589686564E+03  0.46805232678E+03  0.00000000000E+00 0.  1.
         12    1    6    6    0    0  0.12580333523E+02  0.19706287871E+02  0.11450545923E+03  0.11686788595E+03  0.00000000000E+00 0. -1.
         -5    1    3    3    0  503 -0.34455025913E+02 -0.26273436859E+01 -0.15926815488E+02  0.38338038514E+02  0.47000000000E+01 0.  1.
         13    1    4    4    0    0  0.69956003923E+02 -0.17082226947E+02 -0.44397650527E+02  0.84597850650E+02  0.00000000000E+00 0. -1.
        -14    1    4    4    0    0  0.71496127745E+02 -0.34570862925E+02  0.38668888408E+02  0.88329631362E+02  0.00000000000E+00 0.  1.
<mgrwt>
<rscale>  2 0.21109638E+03</rscale>
<asrwt>0</asrwt>
<pdfrwt beam="1">  1       21 0.11953015E+00 0.21141188E+03</pdfrwt>
<pdfrwt beam="2">  1       21 0.20437070E-01 0.21141188E+03</pdfrwt>
<totfact> 0.11669298E+04</totfact>
</mgrwt>
</event>
<event>
12    1  0.1029207E-001  0.1779690E+03  0.7546771E-02  0.1169802E+00
         21   -1    0    0  503  502  0.00000000000E+00  0.00000000000E+00  0.76458926909E+03  0.76458926909E+03  0.00000000000E+00 0.  1.
         21   -1    0    0  501  503 -0.00000000000E+00 -0.00000000000E+00 -0.65550009595E+02  0.65550009595E+02  0.00000000000E+00 0.  1.
          6    2    1    2  501    0  0.87867803739E+01 -0.29270302284E+02  0.97569980919E+02  0.20289271299E+03  0.17524723593E+03 0.  0.
         24    2    3    3    0    0  0.36118813901E+02  0.42109363669E+02  0.36806661342E+02  0.10513603662E+03  0.81370072210E+02 0.  0.
         -6    2    1    2    0  502 -0.87867803739E+01  0.29270302284E+02  0.60146927857E+03  0.62724656569E+03  0.17532542029E+03 0.  0.
        -24    2    5    5    0    0  0.29746119119E+02  0.69298955996E+02  0.49298857454E+03  0.50527431226E+03  0.81100056058E+02 0.  0.
          5    1    3    3  501    0 -0.27332033527E+02 -0.71379665953E+02  0.60763319577E+02  0.97756676367E+02  0.47000000000E+01 0. -1.
        -13    1    4    4    0    0  0.27758266938E+02  0.39348012172E+02 -0.16656139237E+02  0.50953060944E+02  0.00000000000E+00 0.  1.
         14    1    4    4    0    0  0.83605469628E+01  0.27613514969E+01  0.53462800580E+02  0.54182975679E+02  0.00000000000E+00 0. -1.
         -5    1    5    5    0  502 -0.38532899493E+02 -0.40028653711E+02  0.10848070403E+03  0.12197225344E+03  0.47000000000E+01 0.  1.
         11    1    6    6    0    0 -0.82310377592E+01  0.42502739179E+02  0.92867256102E+02  0.10246248131E+03  0.00000000000E+00 0. -1.
        -12    1    6    6    0    0  0.37977156878E+02  0.26796216817E+02  0.40012131844E+03  0.40281183095E+03  0.00000000000E+00 0.  1.
<mgrwt>
<rscale>  2 0.17794973E+03</rscale>
<asrwt>0</asrwt>
<pdfrwt beam="1">  1       21 0.11762911E+00 0.17796899E+03</pdfrwt>
<pdfrwt beam="2">  1       21 0.10084617E-01 0.17796899E+03</pdfrwt>
<totfact> 0.44699688E+04</totfact>
</mgrwt>
</event>
<event>
12    1  0.1029207E-001  0.2028884E+03  0.7546771E-02  0.1147680E+00
         21   -1    0    0  503  502  0.00000000000E+00  0.00000000000E+00  0.78015162765E+02  0.78015162765E+02  0.00000000000E+00 0. -1.
         21   -1    0    0  501  503 -0.00000000000E+00 -0.00000000000E+00 -0.53618932341E+03  0.53618932341E+03  0.00000000000E+00 0.  1.
          6    2    1    2  501    0  0.10386291799E+03  0.11671872106E+02 -0.27592764040E+03  0.34148212951E+03  0.17190184323E+03 0.  0.
         24    2    3    3    0    0  0.26618139049E+02 -0.16443884651E+00 -0.23983363799E+03  0.25527469862E+03  0.83285325716E+02 0.  0.
         -6    2    1    2    0  502 -0.10386291799E+03 -0.11671872106E+02 -0.18224652024E+03  0.27272235667E+03  0.17389638108E+03 0.  0.
        -24    2    5    5    0    0 -0.65138320069E+02 -0.47061430553E+02 -0.37398379822E+02  0.11859549621E+03  0.78793869816E+02 0.  0.
          5    1    3    3  501    0  0.77244778936E+02  0.11836310953E+02 -0.36094002414E+02  0.86207430887E+02  0.47000000000E+01 0. -1.
        -13    1    4    4    0    0  0.27973477762E+01 -0.35350170822E+02 -0.53693113673E+02  0.64346019206E+02  0.00000000000E+00 0.  1.
         14    1    4    4    0    0  0.23820791273E+02  0.35185731976E+02 -0.18614052431E+03  0.19092867942E+03  0.00000000000E+00 0. -1.
         -5    1    5    5    0  502 -0.38724597916E+02  0.35389558446E+02 -0.14484814042E+03  0.15412686046E+03  0.47000000000E+01 0.  1.
         11    1    6    6    0    0 -0.10365263237E+01 -0.53564378291E+01  0.21428799386E+02  0.22112423118E+02  0.00000000000E+00 0. -1.
        -12    1    6    6    0    0 -0.64101793746E+02 -0.41704992723E+02 -0.58827179208E+02  0.96483073091E+02  0.00000000000E+00 0.  1.
<mgrwt>
<rscale>  2 0.20246029E+03</rscale>
<asrwt>0</asrwt>
<pdfrwt beam="1">  1       21 0.12002333E-01 0.20288837E+03</pdfrwt>
<pdfrwt beam="2">  1       21 0.82490662E-01 0.20288837E+03</pdfrwt>
<totfact> 0.74914866E+04</totfact>
</mgrwt>
</event>
<event>
12    1  0.1029207E-001  0.2018325E+03  0.7546771E-02  0.1148264E+00
         21   -1    0    0  503  502  0.00000000000E+00  0.00000000000E+00  0.71572704347E+02  0.71572704347E+02  0.00000000000E+00 0.  1.
         21   -1    0    0  501  503 -0.00000000000E+00 -0.00000000000E+00 -0.56846089635E+03  0.56846089635E+03  0.00000000000E+00 0. -1.
          6    2    1    2  501    0  0.84675085965E+02  0.59900939348E+02 -0.25354433887E+03  0.32406959906E+03  0.17314265953E+03 0.  0.
         24    2    3    3    0    0  0.28266878515E+02  0.48963210489E+02 -0.24694353875E+03  0.26604218880E+03  0.81246061358E+02 0.  0.
         -6    2    1    2    0  502 -0.84675085965E+02 -0.59900939348E+02 -0.24334385314E+03  0.31596400163E+03  0.17279764683E+03 0.  0.
        -24    2    5    5    0    0 -0.48852059821E+02 -0.10682245341E+03 -0.18323909177E+03  0.23158633858E+03  0.79108199081E+02 0.  0.
          5    1    3    3  501    0  0.56408207449E+02  0.10937728859E+02 -0.66008001150E+01  0.58027410268E+02  0.47000000000E+01 0. -1.
        -11    1    4    4    0    0 -0.15079452262E+02  0.47544516245E+02 -0.17563952246E+03  0.18258453591E+03  0.00000000000E+00 0.  1.
         12    1    4    4    0    0  0.43346330777E+02  0.14186942440E+01 -0.71304016293E+02  0.83457652882E+02  0.00000000000E+00 0. -1.
         -5    1    5    5    0  502 -0.35823026144E+02  0.46921514061E+02 -0.60104761369E+02  0.84377663058E+02  0.47000000000E+01 0.  1.
         13    1    6    6    0    0 -0.21595483319E+02  0.80051311863E+01 -0.38101740594E+02  0.44521788614E+02  0.00000000000E+00 0. -1.
        -14    1    6    6    0    0 -0.27256576501E+02 -0.11482758460E+03 -0.14513735117E+03  0.18706454996E+03  0.00000000000E+00 0.  1.
<mgrwt>
<rscale>  2 0.20175852E+03</rscale>
<asrwt>0</asrwt>
<pdfrwt beam="1">  1       21 0.11011185E-01 0.20183254E+03</pdfrwt>
<pdfrwt beam="2">  1       21 0.87455523E-01 0.20183254E+03</pdfrwt>
<totfact> 0.76467381E+04</totfact>
</mgrwt>
</event>
<event>
12    1  0.1029207E-001  0.2658838E+03  0.7546771E-02  0.1103956E+00
         21   -1    0    0  503  502  0.00000000000E+00  0.00000000000E+00  0.14140177726E+03  0.14140177726E+03  0.00000000000E+00 0. -1.
         21   -1    0    0  501  503 -0.00000000000E+00 -0.00000000000E+00 -0.52618043435E+03  0.52618043435E+03  0.00000000000E+00 0. -1.
          6    2    1    2  501    0  0.15618103574E+03  0.12492517377E+03 -0.27283188332E+03  0.38096119563E+03  0.17520097333E+03 0.  0.
         24    2    3    3    0    0  0.41845443830E+02  0.37996192493E+01 -0.56775710025E+02  0.10811254243E+03  0.81849632291E+02 0.  0.
         -6    2    1    2    0  502 -0.15618103574E+03 -0.12492517377E+03 -0.11194677377E+03  0.28662101598E+03  0.17210668690E+03 0.  0.
        -24    2    5    5    0    0 -0.19052300274E+02 -0.81534295592E+02 -0.28992592327E+02  0.12051699851E+03  0.81688095927E+02 0.  0.
          5    1    3    3  501    0  0.11433559191E+03  0.12112555452E+03 -0.21605617329E+03  0.27284865320E+03  0.47000000000E+01 0. -1.
        -13    1    4    4    0    0  0.14961673187E+02 -0.23994712355E+02 -0.62898253407E+02  0.68962222754E+02  0.00000000000E+00 0.  1.
         14    1    4    4    0    0  0.26883770643E+02  0.27794331604E+02  0.61225433825E+01  0.39150319677E+02  0.00000000000E+00 0. -1.
         -5    1    5    5    0  502 -0.13712873547E+03 -0.43390878178E+02 -0.82954181447E+02  0.16610401747E+03  0.47000000000E+01 0.  1.
         13    1    6    6    0    0 -0.16516205604E+02 -0.95251727855E+02 -0.38042246068E+02  0.10388883093E+03  0.00000000000E+00 0. -1.
        -14    1    6    6    0    0 -0.25360946707E+01  0.13717432263E+02  0.90496537411E+01  0.16628167575E+02  0.00000000000E+00 0.  1.
<mgrwt>
<rscale>  2 0.26537517E+03</rscale>
<asrwt>0</asrwt>
<pdfrwt beam="1">  1       21 0.21754119E-01 0.26588380E+03</pdfrwt>
<pdfrwt beam="2">  1       21 0.80950836E-01 0.26588380E+03</pdfrwt>
<totfact> 0.25433328E+04</totfact>
</mgrwt>
</event>
<event>
12    1  0.1029207E-001  0.1740400E+03  0.7546771E-02  0.1173843E+00
         21   -1    0    0  503  502  0.00000000000E+00  0.00000000000E+00  0.30403697799E+03  0.30403697799E+03  0.00000000000E+00 0. -1.
         21   -1    0    0  501  503 -0.00000000000E+00 -0.00000000000E+00 -0.32325401475E+03  0.32325401475E+03  0.00000000000E+00 0. -1.
          6    2    1    2  501    0 -0.18211671919E+02  0.79546631128E+01 -0.27066738874E+03  0.32148518318E+03  0.17232801867E+03 0.  0.
         24    2    3    3    0    0 -0.58405959210E+01  0.70854458755E+02 -0.18812264914E+03  0.21686610343E+03  0.81156076854E+02 0.  0.
         -6    2    1    2    0  502  0.18211671919E+02 -0.79546631128E+01  0.25145035197E+03  0.30580580957E+03  0.17290162520E+03 0.  0.
        -24    2    5    5    0    0  0.13657732921E+02  0.30090904002E+02  0.48802487931E+02  0.99513661536E+02  0.80182852479E+02 0.  0.
          5    1    3    3  501    0 -0.12371075998E+02 -0.62899795642E+02 -0.82544739596E+02  0.10461907975E+03  0.47000000000E+01 0. -1.
        -13    1    4    4    0    0 -0.65937290540E+01 -0.10439025599E+02 -0.83311938107E+02  0.84221906589E+02  0.00000000000E+00 0.  1.
         14    1    4    4    0    0  0.75313313300E+00  0.81293484354E+02 -0.10481071103E+03  0.13264419684E+03  0.00000000000E+00 0. -1.
         -5    1    5    5    0  502  0.45539389985E+01 -0.38045567115E+02  0.20264786404E+03  0.20629214803E+03  0.47000000000E+01 0.  1.
         11    1    6    6    0    0  0.33208610721E+02  0.10670626870E+02  0.60294078751E+02  0.69656658233E+02  0.00000000000E+00 0. -1.
        -12    1    6    6    0    0 -0.19550877800E+02  0.19420277133E+02 -0.11491590819E+02  0.29857003303E+02  0.00000000000E+00 0.  1.
<mgrwt>
<rscale>  2 0.17389734E+03</rscale>
<asrwt>0</asrwt>
<pdfrwt beam="1">  1       21 0.46774920E-01 0.17403998E+03</pdfrwt>
<pdfrwt beam="2">  1       21 0.49731387E-01 0.17403998E+03</pdfrwt>
<totfact> 0.17059820E+04</totfact>
</mgrwt>
</event>
<event>
12    1  0.1029207E-001  0.2087808E+03  0.7546771E-02  0.1142606E+00
         21   -1    0    0  503  502  0.00000000000E+00  0.00000000000E+00  0.19111284177E+03  0.19111284177E+03  0.00000000000E+00 0.  1.
         21   -1    0    0  501  503 -0.00000000000E+00 -0.00000000000E+00 -0.24548690683E+03  0.24548690683E+03  0.00000000000E+00 0.  1.
          6    2    1    2  501    0  0.75218277078E+02  0.87282069069E+02 -0.85935812363E+02  0.22544679357E+03  0.17368173219E+03 0.  0.
         24    2    3    3    0    0  0.44432790854E+02  0.50273283961E+02  0.29409136738E+02  0.10037104204E+03  0.68613211356E+02 0.  0.
         -6    2    1    2    0  502 -0.75218277078E+02 -0.87282069069E+02  0.31561747302E+02  0.21115295503E+03  0.17410766134E+03 0.  0.
        -24    2    5    5    0    0 -0.34500106269E+02 -0.12518832715E+03  0.20222827307E+02  0.15418353391E+03  0.80630172992E+02 0.  0.
          5    1    3    3  501    0  0.30785486224E+02  0.37008785108E+02 -0.11534494910E+03  0.12507575153E+03  0.47000000000E+01 0. -1.
        -11    1    4    4    0    0  0.58738662211E+02  0.46978231452E+02  0.37024250203E+02  0.83833047015E+02  0.00000000000E+00 0.  1.
         12    1    4    4    0    0 -0.14305871356E+02  0.32950525090E+01 -0.76151134644E+01  0.16537995023E+02  0.00000000000E+00 0. -1.
         -5    1    5    5    0  502 -0.40718170810E+02  0.37906258084E+02  0.11338919995E+02  0.56969421119E+02  0.47000000000E+01 0.  1.
         13    1    6    6    0    0  0.24825041873E+02 -0.48820399722E+02 -0.25717496005E+01  0.54829992057E+02  0.00000000000E+00 0. -1.
        -14    1    6    6    0    0 -0.59325148142E+02 -0.76367927431E+02  0.22794576908E+02  0.99353541852E+02  0.00000000000E+00 0.  1.
<mgrwt>
<rscale>  2 0.20869199E+03</rscale>
<asrwt>0</asrwt>
<pdfrwt beam="1">  1       21 0.29401976E-01 0.20878081E+03</pdfrwt>
<pdfrwt beam="2">  1       21 0.37767216E-01 0.20878081E+03</pdfrwt>
<totfact> 0.74406421E+04</totfact>
</mgrwt>
</event>
<event>
12    1  0.1029207E-001  0.1728738E+03  0.7546771E-02  0.1175073E+00
         21   -1    0    0  503  502  0.00000000000E+00  0.00000000000E+00  0.17632037768E+03  0.17632037768E+03  0.00000000000E+00 0. -1.
         21   -1    0    0  501  503 -0.00000000000E+00 -0.00000000000E+00 -0.90235468621E+03  0.90235468621E+03  0.00000000000E+00 0. -1.
          6    2    1    2  501    0  0.70492659324E+01 -0.69555471489E+01 -0.84916355026E+03  0.86643424221E+03  0.17184728456E+03 0.  0.
         24    2    3    3    0    0 -0.59097584257E+02 -0.31128366528E+02 -0.46477077446E+03  0.47561506782E+03  0.75738499332E+02 0.  0.
         -6    2    1    2    0  502 -0.70492659324E+01  0.69555471489E+01  0.12312924173E+03  0.21224082167E+03  0.17258993142E+03 0.  0.
        -24    2    5    5    0    0  0.20799213649E+02 -0.31016750851E+02  0.13771294254E+03  0.16272105229E+03  0.78221737329E+02 0.  0.
          5    1    3    3  501    0  0.66146850190E+02  0.24172819379E+02 -0.38439277580E+03  0.39081917439E+03  0.47000000000E+01 0. -1.
        -13    1    4    4    0    0 -0.35737455893E+02 -0.38088835453E+02 -0.13206985826E+03  0.14202243696E+03  0.00000000000E+00 0.  1.
         14    1    4    4    0    0 -0.23360128365E+02  0.69604689243E+01 -0.33270091620E+03  0.33359263086E+03  0.00000000000E+00 0. -1.
         -5    1    5    5    0  502 -0.27848479581E+02  0.37972297999E+02 -0.14583700816E+02  0.49519769384E+02  0.47000000000E+01 0.  1.
         11    1    6    6    0    0  0.39976173700E+02 -0.36738500979E+02  0.53725246484E+02  0.76382026863E+02  0.00000000000E+00 0. -1.
        -12    1    6    6    0    0 -0.19176960051E+02  0.57217501283E+01  0.83987696060E+02  0.86339025422E+02  0.00000000000E+00 0.  1.
<mgrwt>
<rscale>  2 0.17268816E+03</rscale>
<asrwt>0</asrwt>
<pdfrwt beam="1">  1       21 0.27126211E-01 0.17287382E+03</pdfrwt>
<pdfrwt beam="2">  1       21 0.13882380E+00 0.17287382E+03</pdfrwt>
<totfact> 0.48184436E+03</totfact>
</mgrwt>
</event>
<event>
12    1  0.1029207E-001  0.2395162E+03  0.7546771E-02  0.1120200E+00
         21   -1    0    0  501  502  0.00000000000E+00  0.00000000000E+00  0.21287327244E+03  0.21287327244E+03  0.00000000000E+00 0.  1.
         21   -1    0    0  502  503 -0.00000000000E+00 -0.00000000000E+00 -0.30327539177E+03  0.30327539177E+03  0.00000000000E+00 0. -1.
         -6    2    1    2    0  503  0.22661659416E+02  0.16287242172E+03 -0.13201600872E+03  0.27304430111E+03  0.17344736161E+03 0.  0.
        -24    2    3    3    0    0  0.65555965564E+02  0.57053983505E+02 -0.96232402073E+02  0.15329447910E+03  0.81766621920E+02 0.  0.
          6    2    1    2  501    0 -0.22661659416E+02 -0.16287242172E+03  0.41613889381E+02  0.24310436309E+03  0.17414660203E+03 0.  0.
         24    2    5    5    0    0  0.43785120071E+02 -0.11704794748E+03  0.59216882513E+02  0.16035768757E+03  0.81182449073E+02 0.  0.
          5    1    5    5  501    0 -0.66446779487E+02 -0.45824474242E+02 -0.17602993132E+02  0.82746675528E+02  0.47000000000E+01 0. -1.
        -13    1    6    6    0    0  0.43134173626E+02 -0.17472028104E+02  0.34002949099E+02  0.57637047530E+02  0.00000000000E+00 0.  1.
         14    1    6    6    0    0  0.65094644449E+00 -0.99575919377E+02  0.25213933414E+02  0.10272064004E+03  0.00000000000E+00 0. -1.
         -5    1    3    3    0  503 -0.42894306148E+02  0.10581843822E+03 -0.35783606642E+02  0.11974982201E+03  0.47000000000E+01 0.  1.
         13    1    4    4    0    0  0.49648010523E+02  0.44499647914E+02 -0.13381948604E+02  0.68001618818E+02  0.00000000000E+00 0. -1.
        -14    1    4    4    0    0  0.15907955040E+02  0.12554335590E+02 -0.82850453470E+02  0.85292860286E+02  0.00000000000E+00 0.  1.
<mgrwt>
<rscale>  2 0.23938913E+03</rscale>
<asrwt>0</asrwt>
<pdfrwt beam="1">  1       21 0.32749734E-01 0.23951621E+03</pdfrwt>
<pdfrwt beam="2">  1       21 0.46657752E-01 0.23951621E+03</pdfrwt>
<totfact> 0.38588867E+04</totfact>
</mgrwt>
</event>
<event>
12    1  0.1029207E-001  0.2091762E+03  0.7546771E-02  0.1142306E+00
         21   -1    0    0  503  502  0.00000000000E+00  0.00000000000E+00  0.20981698006E+04  0.20981698006E+04  0.00000000000E+00 0. -1.
         21   -1    0    0  501  503 -0.00000000000E+00 -0.00000000000E+00 -0.22464829413E+02  0.22464829413E+02  0.00000000000E+00 0. -1.
          6    2    1    2  501    0  0.11235757822E+03  0.34339550033E+02  0.75113350230E+03  0.77971546434E+03  0.17306425676E+03 0.  0.
         24    2    3    3    0    0  0.29332276492E+02  0.76578613820E+02  0.42767590119E+03  0.44307879231E+03  0.81776972295E+02 0.  0.
         -6    2    1    2    0  502 -0.11235757822E+03 -0.34339550033E+02  0.13245714689E+04  0.13409191657E+04  0.17254333546E+03 0.  0.
        -24    2    5    5    0    0 -0.24734931227E+02  0.26676458476E+02  0.37878008806E+03  0.38910820356E+03  0.81285845676E+02 0.  0.
          5    1    3    3  501    0  0.83025301729E+02 -0.42239063787E+02  0.32345760111E+03  0.33663667203E+03  0.47000000000E+01 0. -1.
        -11    1    4    4    0    0 -0.83460073831E+01  0.88279992969E+01  0.46499121883E+01  0.13008116473E+02  0.00000000000E+00 0.  1.
         12    1    4    4    0    0  0.37678283875E+02  0.67750614523E+02  0.42302598900E+03  0.43007067584E+03  0.00000000000E+00 0. -1.
         -5    1    5    5    0  502 -0.87622646995E+02 -0.61016008509E+02  0.94579138084E+03  0.95181096213E+03  0.47000000000E+01 0.  1.
         11    1    6    6    0    0 -0.48302560444E+02  0.10157489693E+01  0.14730220508E+03  0.15502292963E+03  0.00000000000E+00 0. -1.
        -12    1    6    6    0    0  0.23567629217E+02  0.25660709507E+02  0.23147788298E+03  0.23408527392E+03  0.00000000000E+00 0.  1.
<mgrwt>
<rscale>  2 0.20906838E+03</rscale>
<asrwt>0</asrwt>
<pdfrwt beam="1">  1       21 0.32279520E+00 0.20917616E+03</pdfrwt>
<pdfrwt beam="2">  1       21 0.34561293E-02 0.20917616E+03</pdfrwt>
<totfact> 0.12392844E+04</totfact>
</mgrwt>
</event>
<event>
12    1  0.1029207E-001  0.2000309E+03  0.7546771E-02  0.1149848E+00
         21   -1    0    0  501  502  0.00000000000E+00  0.00000000000E+00  0.14426796755E+03  0.14426796755E+03  0.00000000000E+00 0. -1.
         21   -1    0    0  502  503 -0.00000000000E+00 -0.00000000000E+00 -0.28068956018E+03  0.28068956018E+03  0.00000000000E+00 0.  1.
         -6    2    1    2    0  503 -0.64759744186E+02  0.78843186679E+02 -0.94171856163E+02  0.22051341999E+03  0.17131187160E+03 0.  0.
        -24    2    3    3    0    0 -0.29052498427E+02  0.80069777473E+02 -0.18312034898E+02  0.13652940719E+03  0.10511770296E+03 0.  0.
          6    2    1    2  501    0  0.64759744186E+02 -0.78843186679E+02 -0.42249736462E+02  0.20444410774E+03  0.17205313251E+03 0.  0.
         24    2    5    5    0    0  0.54216177158E+02 -0.88798265469E+02 -0.83485922715E+02  0.16048067457E+03  0.89216712574E+02 0.  0.
          5    1    5    5  501    0  0.10543567027E+02  0.99550787903E+01  0.41236186253E+02  0.43963433170E+02  0.47000000000E+01 0. -1.
        -13    1    6    6    0    0  0.14856676089E+02  0.14616879920E+02 -0.32590745799E+02  0.38685019255E+02  0.00000000000E+00 0.  1.
         14    1    6    6    0    0  0.39359501069E+02 -0.10341514539E+03 -0.50895176916E+02  0.12179565531E+03  0.00000000000E+00 0. -1.
         -5    1    3    3    0  503 -0.35707245758E+02 -0.12265907942E+01 -0.75859821265E+02  0.83984012805E+02  0.47000000000E+01 0.  1.
         11    1    4    4    0    0 -0.15414391232E+02  0.50399454232E+02  0.42367117490E+02  0.67621602232E+02  0.00000000000E+00 0. -1.
        -12    1    4    4    0    0 -0.13638107195E+02  0.29670323241E+02 -0.60679152388E+02  0.68907804954E+02  0.00000000000E+00 0.  1.
<mgrwt>
<rscale>  2 0.19987138E+03</rscale>
<asrwt>0</asrwt>
<pdfrwt beam="1">  1       21 0.22195072E-01 0.20003088E+03</pdfrwt>
<pdfrwt beam="2">  1       21 0.43183009E-01 0.20003088E+03</pdfrwt>
<totfact> 0.97589700E+04</totfact>
</mgrwt>
</event>
<event>
12    1  0.1029207E-001  0.2916453E+03  0.7546771E-02  0.1089502E+00
         21   -1    0    0  501  502  0.00000000000E+00  0.00000000000E+00  0.10404963368E+04  0.10404963368E+04  0.00000000000E+00 0. -1.
         21   -1    0    0  502  503 -0.00000000000E+00 -0.00000000000E+00 -0.99912550624E+02  0.99912550624E+02  0.00000000000E+00 0. -1.
         -6    2    1    2    0  503  0.22846976177E+03  0.55495312840E+02  0.22699256305E+03  0.36952016637E+03  0.17245685803E+03 0.  0.
        -24    2    3    3    0    0  0.17620831743E+03  0.34002751407E+02  0.80181996567E+02  0.21213966824E+03  0.79803057786E+02 0.  0.
          6    2    1    2  501    0 -0.22846976177E+03 -0.55495312840E+02  0.71359122308E+03  0.77088872101E+03  0.17256542159E+03 0.  0.
         24    2    5    5    0    0 -0.95566483930E+02 -0.17114372852E+02  0.18003651291E+03  0.21967270477E+03  0.80106782672E+02 0.  0.
          5    1    5    5  501    0 -0.13290327784E+03 -0.38380939988E+02  0.53355471017E+03  0.55121601624E+03  0.47000000000E+01 0. -1.
        -13    1    6    6    0    0 -0.93989482001E+02 -0.40396910544E+02  0.14122503911E+03  0.17438590763E+03  0.00000000000E+00 0.  1.
         14    1    6    6    0    0 -0.15770019292E+01  0.23282537691E+02  0.38811473801E+02  0.45286797138E+02  0.00000000000E+00 0. -1.
         -5    1    3    3    0  503  0.52261444346E+02  0.21492561433E+02  0.14681056648E+03  0.15738049813E+03  0.47000000000E+01 0.  1.
         13    1    4    4    0    0  0.76326600086E+02  0.34042272750E+02  0.74724798895E+02  0.11210897281E+03  0.00000000000E+00 0. -1.
        -14    1    4    4    0    0  0.99881717341E+02 -0.39521342226E-01  0.54571976724E+01  0.10003069543E+03  0.00000000000E+00 0.  1.
<mgrwt>
<rscale>  2 0.29162925E+03</rscale>
<asrwt>0</asrwt>
<pdfrwt beam="1">  1       21 0.16007635E+00 0.29164531E+03</pdfrwt>
<pdfrwt beam="2">  1       21 0.15371162E-01 0.29164531E+03</pdfrwt>
<totfact> 0.88426373E+03</totfact>
</mgrwt>
</event>
<event>
12    1  0.1029207E-001  0.2067327E+03  0.7546771E-02  0.1144369E+00
         21   -1    0    0  503  502  0.00000000000E+00  0.00000000000E+00  0.58670647842E+03  0.58670647842E+03  0.00000000000E+00 0.  1.
         21   -1    0    0  501  503 -0.00000000000E+00 -0.00000000000E+00 -0.89279989557E+02  0.89279989557E+02  0.00000000000E+00 0.  1.
          6    2    1    2  501    0  0.19496815962E+02 -0.11169659370E+03  0.10270836994E+03  0.23084065656E+03  0.17286452669E+03 0.  0.
         24    2    3    3    0    0 -0.15647584507E+02 -0.78293064991E+02 -0.56000477938E+01  0.11208153915E+03  0.78461837584E+02 0.  0.
         -6    2    1    2    0  502 -0.19496815962E+02  0.11169659370E+03  0.39471811892E+03  0.44514581142E+03  0.17174441809E+03 0.  0.
        -24    2    5    5    0    0  0.51852968725E+02  0.38301915850E+02  0.19965231582E+03  0.22480442164E+03  0.80747839927E+02 0.  0.
          5    1    3    3  501    0  0.35144400469E+02 -0.33403528707E+02  0.10830841774E+03  0.11875911741E+03  0.47000000000E+01 0. -1.
        -11    1    4    4    0    0 -0.47412931008E+01 -0.91200348838E+02  0.61020043239E+01  0.91527143216E+02  0.00000000000E+00 0.  1.
         12    1    4    4    0    0 -0.10906291407E+02  0.12907283848E+02 -0.11702052118E+02  0.20554395937E+02  0.00000000000E+00 0. -1.
         -5    1    5    5    0  502 -0.71349784686E+02  0.73394677847E+02  0.19506580311E+03  0.22034138978E+03  0.47000000000E+01 0.  1.
         11    1    6    6    0    0 -0.14030515012E+01 -0.22265660072E+02  0.51433118573E+02  0.56063302241E+02  0.00000000000E+00 0. -1.
        -12    1    6    6    0    0  0.53256020226E+02  0.60567575922E+02  0.14821919725E+03  0.16874111940E+03  0.00000000000E+00 0.  1.
<mgrwt>
<rscale>  2 0.20649836E+03</rscale>
<asrwt>0</asrwt>
<pdfrwt beam="1">  1       21 0.90262533E-01 0.20673268E+03</pdfrwt>
<pdfrwt beam="2">  1       21 0.13735383E-01 0.20673268E+03</pdfrwt>
<totfact> 0.47686366E+04</totfact>
</mgrwt>
</event>
<event>
12    1  0.1029207E-001  0.2685626E+03  0.7546771E-02  0.1102194E+00
         21   -1    0    0  503  502  0.00000000000E+00  0.00000000000E+00  0.87598843421E+02  0.87598843421E+02  0.00000000000E+00 0. -1.
         21   -1    0    0  501  503 -0.00000000000E+00 -0.00000000000E+00 -0.85409710358E+03  0.85409710358E+03  0.00000000000E+00 0. -1.
          6    2    1    2  501    0  0.17999206021E+03 -0.98478048346E+02 -0.47485321800E+03  0.54523322639E+03  0.17233288943E+03 0.  0.
         24    2    3    3    0    0  0.22528730204E+02 -0.66953828797E+02 -0.20350256412E+03  0.22988937585E+03  0.80283701034E+02 0.  0.
         -6    2    1    2    0  502 -0.17999206021E+03  0.98478048346E+02 -0.29164504216E+03  0.39646272061E+03  0.17329394239E+03 0.  0.
        -24    2    5    5    0    0 -0.12871337401E+03  0.12912306676E+03 -0.26079311579E+03  0.32906426237E+03  0.83847125815E+02 0.  0.
          5    1    3    3  501    0  0.15746333000E+03 -0.31524219549E+02 -0.27135065388E+03  0.31534385054E+03  0.47000000000E+01 0. -1.
        -13    1    4    4    0    0  0.49892273136E+01  0.13234038919E+02 -0.82303900480E+02  0.83510264097E+02  0.00000000000E+00 0.  1.
         14    1    4    4    0    0  0.17539502890E+02 -0.80187867716E+02 -0.12119866364E+03  0.14637911175E+03  0.00000000000E+00 0. -1.
         -5    1    5    5    0  502 -0.51278686195E+02 -0.30645018416E+02 -0.30851926372E+02  0.67398458235E+02  0.47000000000E+01 0.  1.
         11    1    6    6    0    0 -0.83528091723E+02  0.57468458619E+02 -0.20179066437E+03  0.22582966605E+03  0.00000000000E+00 0. -1.
        -12    1    6    6    0    0 -0.45185282291E+02  0.71654608143E+02 -0.59002451423E+02  0.10323459632E+03  0.00000000000E+00 0.  1.
<mgrwt>
<rscale>  2 0.26840766E+03</rscale>
<asrwt>0</asrwt>
<pdfrwt beam="1">  1       21 0.13476745E-01 0.26856258E+03</pdfrwt>
<pdfrwt beam="2">  1       21 0.13139956E+00 0.26856258E+03</pdfrwt>
<totfact> 0.19189382E+04</totfact>
</mgrwt>
</event>
<event>
12    1  0.1029207E-001  0.1845869E+03  0.7546771E-02  0.1164540E+00
         21   -1    0    0  503  502  0.00000000000E+00  0.00000000000E+00  0.36253907292E+03  0.36253907292E+03  0.00000000000E+00 0.  1.
         21   -1    0    0  501  503 -0.00000000000E+00 -0.00000000000E+00 -0.18034672416E+03  0.18034672416E+03  0.00000000000E+00 0.  1.
          6    2    1    2  501    0 -0.61641543876E+02 -0.54138178138E+01 -0.98688976782E+02  0.20931280753E+03  0.17390614682E+03 0.  0.
         24    2    3    3    0    0 -0.30503235108E+02 -0.34472164334E+02  0.86039595354E+01  0.93779929271E+02  0.81251889507E+02 0.  0.
         -6    2    1    2    0  502  0.61641543876E+02  0.54138178138E+01  0.28088132554E+03  0.33357298955E+03  0.16896044201E+03 0.  0.
        -24    2    5    5    0    0  0.14505785199E+02 -0.31834451382E+02  0.64599617463E+02  0.10905332326E+03  0.80595698630E+02 0.  0.
          5    1    3    3  501    0 -0.31138308768E+02  0.29058346520E+02 -0.10729293632E+03  0.11553287826E+03  0.47000000000E+01 0. -1.
        -11    1    4    4    0    0 -0.13805876219E+02 -0.28574506687E+02 -0.34683042443E+02  0.47010829430E+02  0.00000000000E+00 0.  1.
         12    1    4    4    0    0 -0.16697358889E+02 -0.58976576478E+01  0.43287001979E+02  0.46769099841E+02  0.00000000000E+00 0. -1.
         -5    1    5    5    0  502  0.47135758677E+02  0.37248269196E+02  0.21628170808E+03  0.22451966629E+03  0.47000000000E+01 0.  1.
         13    1    6    6    0    0  0.40473436999E+02 -0.41118287771E+02  0.55385839429E+02  0.79977521224E+02  0.00000000000E+00 0. -1.
        -14    1    6    6    0    0 -0.25967651801E+02  0.92838363894E+01  0.92137780341E+01  0.29075802032E+02  0.00000000000E+00 0.  1.
<mgrwt>
<rscale>  2 0.18341281E+03</rscale>
<asrwt>0</asrwt>
<pdfrwt beam="1">  1       21 0.55775242E-01 0.18458694E+03</pdfrwt>
<pdfrwt beam="2">  1       21 0.27745650E-01 0.18458694E+03</pdfrwt>
<totfact> 0.37703039E+04</totfact>
</mgrwt>
</event>
<event>
12    1  0.1029207E-001  0.1791329E+03  0.7546771E-02  0.1169149E+00
         21   -1    0    0  503  502  0.00000000000E+00  0.00000000000E+00  0.19464520115E+02  0.19464520115E+02  0.00000000000E+00 0.  1.
         21   -1    0    0  501  503 -0.00000000000E+00 -0.00000000000E+00 -0.17260906420E+04  0.17260906420E+04  0.00000000000E+00 0.  1.
          6    2    1    2  501    0 -0.66632592282E+00 -0.33382653777E+02 -0.10642147414E+04  0.10791856315E+04  0.17599365259E+03 0.  0.
         24    2    3    3    0    0  0.52416338182E+02 -0.28047487212E+02 -0.38697906805E+03  0.39983558877E+03  0.81126844457E+02 0.  0.
         -6    2    1    2    0  502  0.66632592282E+00  0.33382653777E+02 -0.64241138041E+03  0.66636953059E+03  0.17389975289E+03 0.  0.
        -24    2    5    5    0    0  0.46049498531E+02 -0.30302223066E+02 -0.32995197580E+03  0.34423855501E+03  0.81197877978E+02 0.  0.
          5    1    3    3  501    0 -0.53082664105E+02 -0.53351665641E+01 -0.67723567340E+03  0.67935004273E+03  0.47000000000E+01 0. -1.
        -13    1    4    4    0    0  0.35627483807E+01 -0.16050512503E+02 -0.29107368852E+03  0.29153765499E+03  0.00000000000E+00 0.  1.
         14    1    4    4    0    0  0.48853589801E+02 -0.11996974709E+02 -0.95905379526E+02  0.10829793378E+03  0.00000000000E+00 0. -1.
         -5    1    5    5    0  502 -0.45383172609E+02  0.63684876842E+02 -0.31245940462E+03  0.32213097558E+03  0.47000000000E+01 0.  1.
         13    1    6    6    0    0  0.40371059227E+02 -0.35048480705E+02 -0.33222299887E+03  0.33649716106E+03  0.00000000000E+00 0. -1.
        -14    1    6    6    0    0  0.56784393041E+01  0.47462576390E+01  0.22710230760E+01  0.77413939518E+01  0.00000000000E+00 0.  1.
<mgrwt>
<rscale>  2 0.17861652E+03</rscale>
<asrwt>0</asrwt>
<pdfrwt beam="1">  1       21 0.29945399E-02 0.17913294E+03</pdfrwt>
<pdfrwt beam="2">  1       21 0.26555255E+00 0.17913294E+03</pdfrwt>
<totfact> 0.34643044E+04</totfact>
</mgrwt>
</event>
<event>
12    1  0.1029207E-001  0.1982896E+03  0.7546771E-02  0.1151469E+00
         21   -1    0    0  501  502  0.00000000000E+00  0.00000000000E+00  0.86802239371E+02  0.86802239371E+02  0.00000000000E+00 0.  1.
         21   -1    0    0  502  503 -0.00000000000E+00 -0.00000000000E+00 -0.45900900337E+03  0.45900900337E+03  0.00000000000E+00 0.  1.
         -6    2    1    2    0  503  0.26367574162E+02  0.90772054744E+02 -0.22493737100E+03  0.29985928453E+03  0.17430993877E+03 0.  0.
        -24    2    3    3    0    0 -0.48507698163E+02  0.24527687116E+02 -0.12765625802E+03  0.16028734039E+03  0.80257753894E+02 0.  0.
          6    2    1    2  501    0 -0.26367574162E+02 -0.90772054744E+02 -0.14726939300E+03  0.24595195821E+03  0.17282730324E+03 0.  0.
         24    2    5    5    0    0  0.78875587389E+01 -0.94142811534E+02 -0.36480196222E+02  0.12984376620E+03  0.81262022845E+02 0.  0.
          5    1    5    5  501    0 -0.34255132901E+02  0.33707567900E+01 -0.11078919677E+03  0.11610819202E+03  0.47000000000E+01 0. -1.
        -11    1    6    6    0    0  0.44230305421E+02 -0.58424546062E+02 -0.26471888433E+02  0.77913467240E+02  0.00000000000E+00 0.  1.
         12    1    6    6    0    0 -0.36342746682E+02 -0.35718265472E+02 -0.10008307790E+02  0.51930298955E+02  0.00000000000E+00 0. -1.
         -5    1    3    3    0  503  0.74875272325E+02  0.66244367628E+02 -0.97281112976E+02  0.13957194414E+03  0.47000000000E+01 0.  1.
         13    1    4    4    0    0 -0.34547090798E+02 -0.26801146542E+02 -0.58989664230E+02  0.73427402409E+02  0.00000000000E+00 0. -1.
        -14    1    4    4    0    0 -0.13960607366E+02  0.51328833658E+02 -0.68666593792E+02  0.86859937979E+02  0.00000000000E+00 0.  1.
<mgrwt>
<rscale>  2 0.19796329E+03</rscale>
<asrwt>0</asrwt>
<pdfrwt beam="1">  1       21 0.13354191E-01 0.19828961E+03</pdfrwt>
<pdfrwt beam="2">  1       21 0.70616769E-01 0.19828961E+03</pdfrwt>
<totfact> 0.87798742E+04</totfact>
</mgrwt>
</event>
<event>
12    1  0.1029207E-001  0.1777504E+03  0.7546771E-02  0.1170195E+00
         21   -1    0    0  503  502  0.00000000000E+00  0.00000000000E+00  0.64030246700E+02  0.64030246700E+02  0.00000000000E+00 0.  1.
         21   -1    0    0  501  503 -0.00000000000E+00 -0.00000000000E+00 -0.99373791970E+03  0.99373791970E+03  0.00000000000E+00 0.  1.
          6    2    1    2  501    0 -0.92691917618E+00 -0.30524014138E+02 -0.84043098259E+03  0.85885732812E+03  0.17429600959E+03 0.  0.
         24    2    3    3    0    0  0.59129047871E+02  0.56362446680E+01 -0.35614615169E+03  0.36950247637E+03  0.78511063710E+02 0.  0.
         -6    2    1    2    0  502  0.92691917618E+00  0.30524014138E+02 -0.89276690410E+02  0.19891083827E+03  0.17510745134E+03 0.  0.
        -24    2    5    5    0    0 -0.16382698945E+02  0.58141017487E+02  0.37967571933E+01  0.10018354518E+03  0.79834557805E+02 0.  0.
          5    1    3    3  501    0 -0.60055967047E+02 -0.36160258806E+02 -0.48428483090E+03  0.48935485176E+03  0.47000000000E+01 0. -1.
        -13    1    4    4    0    0 -0.17643125388E+02 -0.12730912663E+01 -0.34764063426E+02  0.39005650113E+02  0.00000000000E+00 0.  1.
         14    1    4    4    0    0  0.76772173259E+02  0.69093359343E+01 -0.32138208826E+03  0.33049682626E+03  0.00000000000E+00 0. -1.
         -5    1    5    5    0  502  0.17309618122E+02 -0.27617003349E+02 -0.93073447603E+02  0.98727293097E+02  0.47000000000E+01 0.  1.
         11    1    6    6    0    0 -0.28867796330E+02 -0.90394641532E+01 -0.68830977732E+01  0.31023194743E+02  0.00000000000E+00 0. -1.
        -12    1    6    6    0    0  0.12485097384E+02  0.67180481640E+02  0.10679854966E+02  0.69160350434E+02  0.00000000000E+00 0.  1.
<mgrwt>
<rscale>  2 0.17755020E+03</rscale>
<asrwt>0</asrwt>
<pdfrwt beam="1">  1       21 0.98508069E-02 0.17775037E+03</pdfrwt>
<pdfrwt beam="2">  1       21 0.15288276E+00 0.17775037E+03</pdfrwt>
<totfact> 0.23921504E+04</totfact>
</mgrwt>
</event>
<event>
12    1  0.1029207E-001  0.1792899E+03  0.7546771E-02  0.1168638E+00
         21   -1    0    0  501  502  0.00000000000E+00  0.00000000000E+00  0.44185720479E+02  0.44185720479E+02  0.00000000000E+00 0.  1.
         21   -1    0    0  502  503 -0.00000000000E+00 -0.00000000000E+00 -0.72572767367E+03  0.72572767367E+03  0.00000000000E+00 0.  1.
         -6    2    1    2    0  503 -0.12385600959E+01 -0.48344700791E+02 -0.32972188073E+03  0.37531506116E+03  0.17264452604E+03 0.  0.
        -24    2    3    3    0    0 -0.56120631760E+02 -0.40269500382E+02 -0.16229718409E+03  0.19887705591E+03  0.91872462861E+02 0.  0.
          6    2    1    2  501    0  0.12385600959E+01  0.48344700791E+02 -0.35182007246E+03  0.39459833299E+03  0.17202248948E+03 0.  0.
         24    2    5    5    0    0  0.76562183353E+01 -0.25503118933E+01 -0.68195032857E+02  0.10633327832E+03  0.81185477781E+02 0.  0.
          5    1    5    5  501    0 -0.64176582394E+01  0.50895012684E+02 -0.28362503960E+03  0.28826505467E+03  0.47000000000E+01 0. -1.
        -13    1    6    6    0    0  0.68902430125E+01  0.28884636297E+02  0.16454351438E+01  0.29740630787E+02  0.00000000000E+00 0.  1.
         14    1    6    6    0    0  0.76597532287E+00 -0.31434948191E+02 -0.69840468000E+02  0.76592647535E+02  0.00000000000E+00 0. -1.
         -5    1    3    3    0  503  0.54882071665E+02 -0.80752004084E+01 -0.16742469664E+03  0.17643800525E+03  0.47000000000E+01 0.  1.
         11    1    4    4    0    0  0.18178435943E+02 -0.26931150219E+02 -0.21023434785E+02  0.38700480561E+02  0.00000000000E+00 0. -1.
        -12    1    4    4    0    0 -0.74299067703E+02 -0.13338350163E+02 -0.14127374931E+03  0.16017657535E+03  0.00000000000E+00 0.  1.
<mgrwt>
<rscale>  2 0.17914001E+03</rscale>
<asrwt>0</asrwt>
<pdfrwt beam="1">  1       21 0.67978031E-02 0.17928992E+03</pdfrwt>
<pdfrwt beam="2">  1       21 0.11165041E+00 0.17928992E+03</pdfrwt>
<totfact> 0.10080343E+05</totfact>
</mgrwt>
</event>
<event>
12    1  0.1029207E-001  0.2243102E+03  0.7546771E-02  0.1130823E+00
         21   -1    0    0  503  502  0.00000000000E+00  0.00000000000E+00  0.13669416715E+03  0.13669416715E+03  0.00000000000E+00 0.  1.
         21   -1    0    0  501  503 -0.00000000000E+00 -0.00000000000E+00 -0.36996664775E+03  0.36996664775E+03  0.00000000000E+00 0. -1.
          6    2    1    2  501    0 -0.44048642117E-01  0.14286928140E+03 -0.94366449014E+02  0.24335182699E+03  0.17292614462E+03 0.  0.
         24    2    3    3    0    0  0.27586869519E+02  0.92010790062E+02  0.66817230133E+01  0.12680622712E+03  0.82511532262E+02 0.  0.
         -6    2    1    2    0  502  0.44048642117E-01 -0.14286928140E+03 -0.13890603159E+03  0.26330898790E+03  0.17211944687E+03 0.  0.
        -24    2    5    5    0    0 -0.24859112522E+02 -0.48967053725E+02 -0.13360897258E+03  0.16590290681E+03  0.81588412844E+02 0.  0.
          5    1    3    3  501    0 -0.27630918161E+02  0.50858491341E+02 -0.10104817203E+03  0.11654559987E+03  0.47000000000E+01 0. -1.
        -13    1    4    4    0    0 -0.21057486439E+02  0.59549427661E+02 -0.14145262463E+02  0.64727432516E+02  0.00000000000E+00 0.  1.
         14    1    4    4    0    0  0.48644355958E+02  0.32461362401E+02  0.20826985476E+02  0.62078794604E+02  0.00000000000E+00 0. -1.
         -5    1    5    5    0  502  0.24903161164E+02 -0.93902227678E+02 -0.52970590107E+01  0.97406081088E+02  0.47000000000E+01 0.  1.
         13    1    6    6    0    0  0.73067646923E+01 -0.62137057260E+02 -0.96957163066E+02  0.11539104889E+03  0.00000000000E+00 0. -1.
        -14    1    6    6    0    0 -0.32165877214E+02  0.13170003535E+02 -0.36651809509E+02  0.50511857918E+02  0.00000000000E+00 0.  1.
<mgrwt>
<rscale>  2 0.22415475E+03</rscale>
<asrwt>0</asrwt>
<pdfrwt beam="1">  1       21 0.21029872E-01 0.22431024E+03</pdfrwt>
<pdfrwt beam="2">  1       21 0.56917945E-01 0.22431024E+03</pdfrwt>
<totfact> 0.60079711E+04</totfact>
</mgrwt>
</event>
<event>
12    1  0.1029207E-001  0.2753887E+03  0.7546771E-02  0.1098448E+00
         21   -1    0    0  503  502  0.00000000000E+00  0.00000000000E+00  0.10399717045E+03  0.10399717045E+03  0.00000000000E+00 0.  1.
         21   -1    0    0  501  503 -0.00000000000E+00 -0.00000000000E+00 -0.74650218534E+03  0.74650218534E+03  0.00000000000E+00 0. -1.
          6    2    1    2  501    0  0.21155202514E+03 -0.22121449682E+02 -0.39394686672E+03  0.48065902121E+03  0.17491524517E+03 0.  0.
         24    2    3    3    0    0  0.16511095279E+03 -0.20149696431E+02 -0.16603348750E+03  0.24800636285E+03  0.79198485121E+02 0.  0.
         -6    2    1    2    0  502 -0.21155202514E+03  0.22121449682E+02 -0.24855814816E+03  0.36984033458E+03  0.17250247008E+03 0.  0.
        -24    2    5    5    0    0 -0.24128810368E+02  0.20192502257E+01 -0.75728386098E+02  0.11405961499E+03  0.81783436271E+02 0.  0.
          5    1    3    3  501    0  0.46441072352E+02 -0.19717532508E+01 -0.22791337922E+03  0.23265265836E+03  0.47000000000E+01 0. -1.
        -11    1    4    4    0    0  0.16741038253E+03 -0.33367355583E+02 -0.15606945581E+03  0.23129481540E+03  0.00000000000E+00 0.  1.
         12    1    4    4    0    0 -0.22994297355E+01  0.13217659151E+02 -0.99640316921E+01  0.16711547448E+02  0.00000000000E+00 0. -1.
         -5    1    5    5    0  502 -0.18742321478E+03  0.20102199457E+02 -0.17282976206E+03  0.25578071959E+03  0.47000000000E+01 0.  1.
         13    1    6    6    0    0 -0.37573531661E+02  0.17325302706E+02 -0.82744699264E+02  0.92512818851E+02  0.00000000000E+00 0. -1.
        -14    1    6    6    0    0  0.13444721294E+02 -0.15306052481E+02  0.70163131663E+01  0.21546796134E+02  0.00000000000E+00 0.  1.
<mgrwt>
<rscale>  2 0.27500641E+03</rscale>
<asrwt>0</asrwt>
<pdfrwt beam="1">  1       21 0.15999565E-01 0.27538874E+03</pdfrwt>
<pdfrwt beam="2">  1       21 0.11484649E+00 0.27538874E+03</pdfrwt>
<totfact> 0.19600692E+04</totfact>
</mgrwt>
</event>
<event>
12    1  0.1029207E-001  0.2578371E+03  0.7546771E-02  0.1108560E+00
         21   -1    0    0  501  502  0.00000000000E+00  0.00000000000E+00  0.10635237430E+03  0.10635237430E+03  0.00000000000E+00 0. -1.
         21   -1    0    0  502  503 -0.00000000000E+00 -0.00000000000E+00 -0.65872172496E+03  0.65872172496E+03  0.00000000000E+00 0. -1.
         -6    2    1    2    0  503 -0.13572365307E+03 -0.13342150741E+03 -0.36521224422E+03  0.44705698955E+03  0.17394757813E+03 0.  0.
        -24    2    3    3    0    0 -0.11446701768E+03 -0.46280733986E+02 -0.13498969348E+03  0.19993379798E+03  0.80664129302E+02 0.  0.
          6    2    1    2  501    0  0.13572365307E+03  0.13342150741E+03 -0.18715710644E+03  0.31801710971E+03  0.17287247016E+03 0.  0.
         24    2    5    5    0    0  0.16028717689E+03  0.90434715535E+02 -0.11758460916E+03  0.23249720937E+03  0.79739546052E+02 0.  0.
          5    1    5    5  501    0 -0.24563523819E+02  0.42986791873E+02 -0.69572497275E+02  0.85519900345E+02  0.47000000000E+01 0. -1.
        -11    1    6    6    0    0  0.25300692337E+02  0.53581849187E+02 -0.22802475050E+02  0.63490884884E+02  0.00000000000E+00 0.  1.
         12    1    6    6    0    0  0.13498648455E+03  0.36852866349E+02 -0.94782134112E+02  0.16900632448E+03  0.00000000000E+00 0. -1.
         -5    1    3    3    0  503 -0.21256635387E+02 -0.87140773423E+02 -0.23022255074E+03  0.24712319157E+03  0.47000000000E+01 0.  1.
         11    1    4    4    0    0 -0.21846072034E+02 -0.38332604868E+02 -0.11924184930E+02  0.45703672123E+02  0.00000000000E+00 0. -1.
        -12    1    4    4    0    0 -0.92620945646E+02 -0.79481291185E+01 -0.12306550855E+03  0.15423012586E+03  0.00000000000E+00 0.  1.
<mgrwt>
<rscale>  2 0.25765588E+03</rscale>
<asrwt>0</asrwt>
<pdfrwt beam="1">  1       21 0.16361904E-01 0.25783710E+03</pdfrwt>
<pdfrwt beam="2">  1       21 0.10134180E+00 0.25783710E+03</pdfrwt>
<totfact> 0.25715149E+04</totfact>
</mgrwt>
</event>
<event>
12    1  0.1029207E-001  0.2083257E+03  0.7546771E-02  0.1143022E+00
         21   -1    0    0  503  502  0.00000000000E+00  0.00000000000E+00  0.57796401584E+02  0.57796401584E+02  0.00000000000E+00 0. -1.
         21   -1    0    0  501  503 -0.00000000000E+00 -0.00000000000E+00 -0.93788966898E+03  0.93788966898E+03  0.00000000000E+00 0. -1.
          6    2    1    2  501    0  0.78274931780E+01  0.10958627355E+03 -0.66312876805E+03  0.69489847427E+03  0.17627735397E+03 0.  0.
         24    2    3    3    0    0 -0.68055285467E+02  0.35896433122E+02 -0.38316129278E+03  0.39557880253E+03  0.61236728667E+02 0.  0.
         -6    2    1    2    0  502 -0.78274931780E+01 -0.10958627355E+03 -0.21696449934E+03  0.30078759629E+03  0.17700046076E+03 0.  0.
        -24    2    5    5    0    0  0.27340477841E+01 -0.38672577967E+02 -0.19448535549E+02  0.90609233180E+02  0.79553405324E+02 0.  0.
          5    1    3    3  501    0  0.75882778645E+02  0.73689840425E+02 -0.27996747527E+03  0.29931967173E+03  0.47000000000E+01 0. -1.
        -13    1    4    4    0    0 -0.41291346391E+02  0.49422234126E+01 -0.85055012788E+02  0.94677114761E+02  0.00000000000E+00 0.  1.
         14    1    4    4    0    0 -0.26763939076E+02  0.30954209709E+02 -0.29810627999E+03  0.30090168777E+03  0.00000000000E+00 0. -1.
         -5    1    5    5    0  502 -0.10561540962E+02 -0.70913695579E+02 -0.19751596379E+03  0.21017836311E+03  0.47000000000E+01 0.  1.
         13    1    6    6    0    0 -0.29981039888E+02 -0.65859019886E+01 -0.30711377598E+02  0.43421487443E+02  0.00000000000E+00 0. -1.
        -14    1    6    6    0    0  0.32715087672E+02 -0.32086675979E+02  0.11262842049E+02  0.47187745737E+02  0.00000000000E+00 0.  1.
<mgrwt>
<rscale>  2 0.20817199E+03</rscale>
<asrwt>0</asrwt>
<pdfrwt beam="1">  1       21 0.88917543E-02 0.20832567E+03</pdfrwt>
<pdfrwt beam="2">  1       21 0.14429071E+00 0.20832567E+03</pdfrwt>
<totfact> 0.32702280E+04</totfact>
</mgrwt>
</event>
<event>
12    1  0.1029207E-001  0.2298559E+03  0.7546771E-02  0.1127453E+00
         21   -1    0    0  503  502  0.00000000000E+00  0.00000000000E+00  0.39476912758E+03  0.39476912758E+03  0.00000000000E+00 0. -1.
         21   -1    0    0  501  503 -0.00000000000E+00 -0.00000000000E+00 -0.15633306432E+03  0.15633306432E+03  0.00000000000E+00 0. -1.
          6    2    1    2  501    0 -0.15018395821E+03 -0.18394190808E+02  0.85438287949E+01  0.22601119295E+03  0.16767377485E+03 0.  0.
         24    2    3    3    0    0 -0.10539023212E+03  0.17101048104E+02  0.67911157026E+02  0.14347053907E+03  0.67618957844E+02 0.  0.
         -6    2    1    2    0  502  0.15018395821E+03  0.18394190808E+02  0.22989223447E+03  0.32509099895E+03  0.17303222408E+03 0.  0.
        -24    2    5    5    0    0  0.53582751132E+02  0.50439735221E+02  0.54708620645E+02  0.12243340921E+03  0.81127235933E+02 0.  0.
          5    1    3    3  501    0 -0.44793726094E+02 -0.35495238912E+02 -0.59367328231E+02  0.82540653887E+02  0.47000000000E+01 0. -1.
        -13    1    4    4    0    0 -0.75710036818E+02 -0.19388061061E+02  0.51759773064E+02  0.93738896379E+02  0.00000000000E+00 0.  1.
         14    1    4    4    0    0 -0.29680195297E+02  0.36489109165E+02  0.16151383962E+02  0.49731642687E+02  0.00000000000E+00 0. -1.
         -5    1    5    5    0  502  0.96601207077E+02 -0.32045544413E+02  0.17518361382E+03  0.20265758973E+03  0.47000000000E+01 0.  1.
         11    1    6    6    0    0  0.67744437088E+02  0.56061662169E+02  0.29078565360E+02  0.92616314356E+02  0.00000000000E+00 0. -1.
        -12    1    6    6    0    0 -0.14161685955E+02 -0.56219269485E+01  0.25630055285E+02  0.29817094855E+02  0.00000000000E+00 0.  1.
<mgrwt>
<rscale>  2 0.22884770E+03</rscale>
<asrwt>0</asrwt>
<pdfrwt beam="1">  1       21 0.60733712E-01 0.22985586E+03</pdfrwt>
<pdfrwt beam="2">  1       21 0.24051241E-01 0.22985586E+03</pdfrwt>
<totfact> 0.40415401E+04</totfact>
</mgrwt>
</event>
<event>
12    1  0.1029207E-001  0.2497271E+03  0.7546771E-02  0.1113667E+00
         21   -1    0    0  503  502  0.00000000000E+00  0.00000000000E+00  0.23059238749E+03  0.23059238749E+03  0.00000000000E+00 0. -1.
         21   -1    0    0  501  503 -0.00000000000E+00 -0.00000000000E+00 -0.29129472338E+03  0.29129472338E+03  0.00000000000E+00 0.  1.
          6    2    1    2  501    0 -0.17582619955E+03 -0.26455604534E+02 -0.10235905826E+03  0.26989074361E+03  0.17535360054E+03 0.  0.
         24    2    3    3    0    0 -0.13308631012E+03 -0.77051347821E+02 -0.37107238472E+02  0.17679661183E+03  0.78938068540E+02 0.  0.
         -6    2    1    2    0  502  0.17582619955E+03  0.26455604534E+02  0.41656722365E+02  0.25199636726E+03  0.17364370169E+03 0.  0.
        -24    2    5    5    0    0  0.10639992832E+03  0.12858479315E+02  0.90543669639E+02  0.16587486841E+03  0.88487460249E+02 0.  0.
          5    1    3    3  501    0 -0.42739889421E+02  0.50595743287E+02 -0.65251819787E+02  0.93094131781E+02  0.47000000000E+01 0. -1.
        -11    1    4    4    0    0 -0.32659579886E+02  0.15559130903E+02 -0.98601904222E+01  0.37496107371E+02  0.00000000000E+00 0.  1.
         12    1    4    4    0    0 -0.10042673024E+03 -0.92610478724E+02 -0.27247048050E+02  0.13930050446E+03  0.00000000000E+00 0. -1.
         -5    1    5    5    0  502  0.69426271229E+02  0.13597125219E+02 -0.48886947274E+02  0.86121498854E+02  0.47000000000E+01 0.  1.
         13    1    6    6    0    0  0.88774961201E+01 -0.28672167838E+02  0.35332643271E+02  0.46360530912E+02  0.00000000000E+00 0. -1.
        -14    1    6    6    0    0  0.97522432196E+02  0.41530647153E+02  0.55211026368E+02  0.11951433750E+03  0.00000000000E+00 0.  1.
<mgrwt>
<rscale>  2 0.24942717E+03</rscale>
<asrwt>0</asrwt>
<pdfrwt beam="1">  1       21 0.35475752E-01 0.24972712E+03</pdfrwt>
<pdfrwt beam="2">  1       21 0.44814573E-01 0.24972712E+03</pdfrwt>
<totfact> 0.35620409E+04</totfact>
</mgrwt>
</event>
<event>
12    1  0.1029207E-001  0.1829481E+03  0.7546771E-02  0.1165076E+00
         21   -1    0    0  503  502  0.00000000000E+00  0.00000000000E+00  0.11963025801E+03  0.11963025801E+03  0.00000000000E+00 0. -1.
         21   -1    0    0  501  503 -0.00000000000E+00 -0.00000000000E+00 -0.33703025833E+03  0.33703025833E+03  0.00000000000E+00 0.  1.
          6    2    1    2  501    0 -0.27316635055E+02  0.51528409991E+02 -0.20341494786E+03  0.27358295259E+03  0.17340304309E+03 0.  0.
         24    2    3    3    0    0  0.30125048239E+02 -0.14886370206E+02 -0.14039039469E+03  0.16539490191E+03  0.80727245147E+02 0.  0.
         -6    2    1    2    0  502  0.27316635055E+02 -0.51528409991E+02 -0.13985052465E+02  0.18307756375E+03  0.17297524987E+03 0.  0.
        -24    2    5    5    0    0  0.18666468128E+02 -0.13715530707E+02 -0.74021464101E+02  0.11144586720E+03  0.80027816127E+02 0.  0.
          5    1    3    3  501    0 -0.57441683294E+02  0.66414780197E+02 -0.63024553170E+02  0.10818805068E+03  0.47000000000E+01 0. -1.
        -11    1    4    4    0    0 -0.20281006680E+02 -0.19963523885E+02 -0.20010411327E+02  0.34789051142E+02  0.00000000000E+00 0.  1.
         12    1    4    4    0    0  0.50406054919E+02  0.50771536793E+01 -0.12037998336E+03  0.13060585077E+03  0.00000000000E+00 0. -1.
         -5    1    5    5    0  502  0.86501669266E+01 -0.37812879284E+02  0.60036411636E+02  0.71631696544E+02  0.47000000000E+01 0.  1.
         13    1    6    6    0    0  0.26729157519E+02  0.10903711901E+01  0.78319733486E+01  0.27874299589E+02  0.00000000000E+00 0. -1.
        -14    1    6    6    0    0 -0.80626893910E+01 -0.14805901897E+02 -0.81853437450E+02  0.83571567615E+02  0.00000000000E+00 0.  1.
<mgrwt>
<rscale>  2 0.18284662E+03</rscale>
<asrwt>0</asrwt>
<pdfrwt beam="1">  1       21 0.18404655E-01 0.18294806E+03</pdfrwt>
<pdfrwt beam="2">  1       21 0.51850809E-01 0.18294806E+03</pdfrwt>
<totfact> 0.95510093E+04</totfact>
</mgrwt>
</event>
<event>
12    1  0.1029207E-001  0.2154088E+03  0.7546771E-02  0.1138370E+00
         21   -1    0    0  501  502  0.00000000000E+00  0.00000000000E+00  0.21532941769E+03  0.21532941769E+03  0.00000000000E+00 0. -1.
         21   -1    0    0  502  503 -0.00000000000E+00 -0.00000000000E+00 -0.21679905491E+03  0.21679905491E+03  0.00000000000E+00 0.  1.
         -6    2    1    2    0  503  0.44477073509E+02 -0.11992510885E+03 -0.38215668115E+02  0.21877249479E+03  0.17332260496E+03 0.  0.
        -24    2    3    3    0    0  0.29431267643E+02 -0.19132016643E+01  0.17643937361E+02  0.87259864089E+02  0.80206704829E+02 0.  0.
          6    2    1    2  501    0 -0.44477073509E+02  0.11992510885E+03  0.36746030898E+02  0.21335597780E+03  0.16676408689E+03 0.  0.
         24    2    5    5    0    0  0.29593626308E+02  0.71460056378E+02  0.53854404008E+02  0.12307798318E+03  0.79155358237E+02 0.  0.
          5    1    5    5  501    0 -0.74070699817E+02  0.48465052467E+02 -0.17108373110E+02  0.90277994619E+02  0.47000000000E+01 0. -1.
        -11    1    6    6    0    0  0.19899766048E+02  0.83485958184E+02  0.23443535020E+02  0.88969125189E+02  0.00000000000E+00 0.  1.
         12    1    6    6    0    0  0.96938602596E+01 -0.12025901806E+02  0.30410868988E+02  0.34108857993E+02  0.00000000000E+00 0. -1.
         -5    1    3    3    0  503  0.15045805866E+02 -0.11801190718E+03 -0.55859605476E+02  0.13151263070E+03  0.47000000000E+01 0.  1.
         11    1    4    4    0    0  0.45126331864E+02 -0.16864151801E+02 -0.12838628010E+02  0.49855950624E+02  0.00000000000E+00 0. -1.
        -12    1    4    4    0    0 -0.15695064221E+02  0.14950950137E+02  0.30482565370E+02  0.37403913464E+02  0.00000000000E+00 0.  1.
<mgrwt>
<rscale>  2 0.21408645E+03</rscale>
<asrwt>0</asrwt>
<pdfrwt beam="1">  1       21 0.33127603E-01 0.21540884E+03</pdfrwt>
<pdfrwt beam="2">  1       21 0.33353701E-01 0.21540884E+03</pdfrwt>
<totfact> 0.75212472E+04</totfact>
</mgrwt>
</event>
<event>
12    1  0.1029207E-001  0.2456386E+03  0.7546771E-02  0.1116872E+00
         21   -1    0    0  503  502  0.00000000000E+00  0.00000000000E+00  0.57567161108E+03  0.57567161108E+03  0.00000000000E+00 0.  1.
         21   -1    0    0  501  503 -0.00000000000E+00 -0.00000000000E+00 -0.16605192180E+03  0.16605192180E+03  0.00000000000E+00 0. -1.
          6    2    1    2  501    0  0.15252133004E+03  0.69822129928E+02 -0.25336933742E+02  0.24219815569E+03  0.17285861408E+03 0.  0.
         24    2    3    3    0    0  0.61076384338E+02 -0.30146009313E+02 -0.14900691256E+02  0.10623193887E+03  0.80150406335E+02 0.  0.
         -6    2    1    2    0  502 -0.15252133004E+03 -0.69822129928E+02  0.43495662302E+03  0.49952537720E+03  0.17944484559E+03 0.  0.
        -24    2    5    5    0    0 -0.10489610152E+03 -0.84640804847E+02  0.17481625607E+03  0.23460490604E+03  0.79444827359E+02 0.  0.
          5    1    3    3  501    0  0.91444945702E+02  0.99968139241E+02 -0.10436242487E+02  0.13596621682E+03  0.47000000000E+01 0. -1.
        -11    1    4    4    0    0  0.30233068880E+02 -0.13518020893E+01  0.31385477070E+02  0.43599472402E+02  0.00000000000E+00 0.  1.
         12    1    4    4    0    0  0.30843315458E+02 -0.28794207223E+02 -0.46286168326E+02  0.62632466472E+02  0.00000000000E+00 0. -1.
         -5    1    5    5    0  502 -0.47625228517E+02  0.14818674919E+02  0.26014036696E+03  0.26492047116E+03  0.47000000000E+01 0.  1.
         13    1    6    6    0    0 -0.85567811989E+02 -0.10008065596E+03  0.14918583104E+03  0.19898341722E+03  0.00000000000E+00 0. -1.
        -14    1    6    6    0    0 -0.19328289533E+02  0.15439851114E+02  0.25630425025E+02  0.35621488819E+02  0.00000000000E+00 0.  1.
<mgrwt>
<rscale>  2 0.24443750E+03</rscale>
<asrwt>0</asrwt>
<pdfrwt beam="1">  1       21 0.88564863E-01 0.24563863E+03</pdfrwt>
<pdfrwt beam="2">  1       21 0.25546450E-01 0.24563863E+03</pdfrwt>
<totfact> 0.15358115E+04</totfact>
</mgrwt>
</event>
<event>
12    1  0.1029207E-001  0.2190805E+03  0.7546771E-02  0.1135107E+00
         21   -1    0    0  503  502  0.00000000000E+00  0.00000000000E+00  0.93599696930E+03  0.93599696930E+03  0.00000000000E+00 0. -1.
         21   -1    0    0  501  503 -0.00000000000E+00 -0.00000000000E+00 -0.11902392380E+03  0.11902392380E+03  0.00000000000E+00 0.  1.
          6    2    1    2  501    0  0.37386862739E+02 -0.12382972443E+03  0.97076866066E+01  0.21929543437E+03  0.17681818402E+03 0.  0.
         24    2    3    3    0    0 -0.38678428423E+02 -0.60172600622E+02 -0.25983231157E+02  0.11377723906E+03  0.84577592405E+02 0.  0.
         -6    2    1    2    0  502 -0.37386862739E+02  0.12382972443E+03  0.80726535889E+03  0.83572545872E+03  0.17328619258E+03 0.  0.
        -24    2    5    5    0    0 -0.83120361516E+01 -0.13733243217E+01  0.38393477105E+03  0.39328673352E+03  0.84838495861E+02 0.  0.
          5    1    3    3  501    0  0.76065291162E+02 -0.63657123803E+02  0.35690917763E+02  0.10551819531E+03  0.47000000000E+01 0. -1.
        -11    1    4    4    0    0  0.80838510097E+01 -0.13970794931E+02 -0.42952866676E+02  0.45885515295E+02  0.00000000000E+00 0.  1.
         12    1    4    4    0    0 -0.46762279432E+02 -0.46201805690E+02  0.16969635520E+02  0.67891723770E+02  0.00000000000E+00 0. -1.
         -5    1    5    5    0  502 -0.29074826588E+02  0.12520304875E+03  0.42333058784E+03  0.44243872520E+03  0.47000000000E+01 0.  1.
         11    1    6    6    0    0  0.12432645616E+02  0.15406987012E+02  0.34782860646E+03  0.34839156907E+03  0.00000000000E+00 0. -1.
        -12    1    6    6    0    0 -0.20744681767E+02 -0.16780311334E+02  0.36106164588E+02  0.44895164454E+02  0.00000000000E+00 0.  1.
<mgrwt>
<rscale>  2 0.21836683E+03</rscale>
<asrwt>0</asrwt>
<pdfrwt beam="1">  1       21 0.14399953E+00 0.21908046E+03</pdfrwt>
<pdfrwt beam="2">  1       21 0.18311374E-01 0.21908046E+03</pdfrwt>
<totfact> 0.88718710E+03</totfact>
</mgrwt>
</event>
<event>
12    1  0.1029207E-001  0.2475647E+03  0.7546771E-02  0.1115083E+00
         21   -1    0    0  501  502  0.00000000000E+00  0.00000000000E+00  0.11117773035E+04  0.11117773035E+04  0.00000000000E+00 0. -1.
         21   -1    0    0  502  503 -0.00000000000E+00 -0.00000000000E+00 -0.54851289376E+02  0.54851289376E+02  0.00000000000E+00 0. -1.
         -6    2    1    2    0  503  0.45000013652E+02  0.16977321403E+03  0.51070929017E+03  0.56692782423E+03  0.17243907153E+03 0.  0.
        -24    2    3    3    0    0 -0.14093352806E+02  0.11189210542E+03  0.18786904128E+03  0.23362591155E+03  0.81042112680E+02 0.  0.
          6    2    1    2  501    0 -0.45000013652E+02 -0.16977321403E+03  0.54621672397E+03  0.59970076866E+03  0.17447165087E+03 0.  0.
         24    2    5    5    0    0  0.34628825518E+02 -0.13265166627E+03  0.37115047888E+03  0.40376955240E+03  0.80508094941E+02 0.  0.
          5    1    5    5  501    0 -0.79628839170E+02 -0.37121547758E+02  0.17506624509E+03  0.19593121626E+03  0.47000000000E+01 0. -1.
        -11    1    6    6    0    0  0.14807129995E+02  0.35467272084E+01  0.83631387762E+02  0.85006113849E+02  0.00000000000E+00 0.  1.
         12    1    6    6    0    0  0.19821695523E+02 -0.13619839348E+03  0.28751909112E+03  0.31876343855E+03  0.00000000000E+00 0. -1.
         -5    1    3    3    0  503  0.59093366458E+02  0.57881108610E+02  0.32284024889E+03  0.33330191268E+03  0.47000000000E+01 0.  1.
         13    1    4    4    0    0 -0.46456584432E+01 -0.13740124410E+01  0.68972005964E+02  0.69141938498E+02  0.00000000000E+00 0. -1.
        -14    1    4    4    0    0 -0.94476943631E+01  0.11326611786E+03  0.11889703532E+03  0.16448397305E+03  0.00000000000E+00 0.  1.
<mgrwt>
<rscale>  2 0.24720691E+03</rscale>
<asrwt>0</asrwt>
<pdfrwt beam="1">  1       21 0.17104265E+00 0.24756474E+03</pdfrwt>
<pdfrwt beam="2">  1       21 0.84386607E-02 0.24756474E+03</pdfrwt>
<totfact> 0.22157256E+04</totfact>
</mgrwt>
</event>
<event>
12    1  0.1029207E-001  0.2014481E+03  0.7546771E-02  0.1149878E+00
         21   -1    0    0  501  502  0.00000000000E+00  0.00000000000E+00  0.44798931521E+02  0.44798931521E+02  0.00000000000E+00 0.  1.
         21   -1    0    0  502  503 -0.00000000000E+00 -0.00000000000E+00 -0.87771078640E+03  0.87771078640E+03  0.00000000000E+00 0.  1.
         -6    2    1    2    0  503 -0.95992573470E+02  0.38270870439E+02 -0.43159403467E+03  0.47629271728E+03  0.17292226023E+03 0.  0.
        -24    2    3    3    0    0 -0.89379480857E+02  0.85998302193E+02 -0.36442876738E+03  0.39349837046E+03  0.81536749239E+02 0.  0.
          6    2    1    2  501    0  0.95992573470E+02 -0.38270870439E+02 -0.40131782020E+03  0.44621700064E+03  0.16545206303E+03 0.  0.
         24    2    5    5    0    0  0.91727943009E+02  0.29390655450E+02 -0.28877075557E+03  0.31474380597E+03  0.79983048007E+02 0.  0.
          5    1    5    5  501    0  0.42646304603E+01 -0.67661525889E+02 -0.11254706463E+03  0.13147319467E+03  0.47000000000E+01 0. -1.
        -13    1    6    6    0    0  0.85782813520E+02  0.67643907303E+01 -0.14137674022E+03  0.16550477562E+03  0.00000000000E+00 0.  1.
         14    1    6    6    0    0  0.59451294893E+01  0.22626264720E+02 -0.14739401535E+03  0.14923903035E+03  0.00000000000E+00 0. -1.
         -5    1    3    3    0  503 -0.66130926128E+01 -0.47727431754E+02 -0.67165267289E+02  0.82794346823E+02  0.47000000000E+01 0.  1.
         11    1    4    4    0    0 -0.13508657596E+02 -0.70015881717E+01 -0.12242189490E+03  0.12336379703E+03  0.00000000000E+00 0. -1.
        -12    1    4    4    0    0 -0.75870823261E+02  0.92999890365E+02 -0.24200687248E+03  0.27013457342E+03  0.00000000000E+00 0.  1.
<mgrwt>
<rscale>  2 0.19983516E+03</rscale>
<asrwt>0</asrwt>
<pdfrwt beam="1">  1       21 0.68921437E-02 0.20144811E+03</pdfrwt>
<pdfrwt beam="2">  1       21 0.13503242E+00 0.20144811E+03</pdfrwt>
<totfact> 0.60717962E+04</totfact>
</mgrwt>
</event>
<event>
12    1  0.1029207E-001  0.2228096E+03  0.7546771E-02  0.1131848E+00
         21   -1    0    0  501  502  0.00000000000E+00  0.00000000000E+00  0.96302270079E+02  0.96302270079E+02  0.00000000000E+00 0.  1.
         21   -1    0    0  502  503 -0.00000000000E+00 -0.00000000000E+00 -0.86310097351E+03  0.86310097351E+03  0.00000000000E+00 0. -1.
         -6    2    1    2    0  503 -0.14224883370E+03 -0.77323368471E+01 -0.78860314918E+02  0.23635371575E+03  0.17131727863E+03 0.  0.
        -24    2    3    3    0    0 -0.48464029175E+02 -0.55740663704E+01  0.24959705771E+02  0.96350378693E+02  0.79250086577E+02 0.  0.
          6    2    1    2  501    0  0.14224883370E+03  0.77323368471E+01 -0.68793838851E+03  0.72304952784E+03  0.17101717341E+03 0.  0.
         24    2    5    5    0    0  0.92929725396E+02  0.65451632594E+02 -0.53139857811E+03  0.54900730944E+03  0.78132751967E+02 0.  0.
          5    1    5    5  501    0  0.49319108300E+02 -0.57719295747E+02 -0.15653981041E+03  0.17404221841E+03  0.47000000000E+01 0. -1.
        -13    1    6    6    0    0 -0.51031795595E+01  0.10484398550E+02 -0.92055947387E+01  0.14856245457E+02  0.00000000000E+00 0.  1.
         14    1    6    6    0    0  0.98032904956E+02  0.54967234044E+02 -0.52219298337E+03  0.53415106398E+03  0.00000000000E+00 0. -1.
         -5    1    3    3    0  503 -0.93784804521E+02 -0.21582704767E+01 -0.10382002069E+03  0.14000333705E+03  0.47000000000E+01 0.  1.
         13    1    4    4    0    0  0.96697696726E+01 -0.24602759488E+02 -0.69854895585E+01  0.27342225299E+02  0.00000000000E+00 0. -1.
        -14    1    4    4    0    0 -0.58133798848E+02  0.19028693118E+02  0.31945195329E+02  0.69008153394E+02  0.00000000000E+00 0.  1.
<mgrwt>
<rscale>  2 0.22275194E+03</rscale>
<asrwt>0</asrwt>
<pdfrwt beam="1">  1       21 0.14815734E-01 0.22280963E+03</pdfrwt>
<pdfrwt beam="2">  1       21 0.13278476E+00 0.22280963E+03</pdfrwt>
<totfact> 0.16116950E+04</totfact>
</mgrwt>
</event>
<event>
12    1  0.1029207E-001  0.2089323E+03  0.7546771E-02  0.1142890E+00
         21   -1    0    0  501  502  0.00000000000E+00  0.00000000000E+00  0.13103390434E+04  0.13103390434E+04  0.00000000000E+00 0.  1.
         21   -1    0    0  502  503 -0.00000000000E+00 -0.00000000000E+00 -0.49456973530E+02  0.49456973530E+02  0.00000000000E+00 0.  1.
         -6    2    1    2    0  503  0.33072975680E+02 -0.11173646074E+03  0.23989385344E+03  0.31812223133E+03  0.17341809238E+03 0.  0.
        -24    2    3    3    0    0 -0.20597501068E+02 -0.33490875326E+02  0.43868124649E+02  0.10028957064E+03  0.81164584878E+02 0.  0.
          6    2    1    2  501    0 -0.33072975680E+02  0.11173646074E+03  0.10209882164E+04  0.10416737856E+04  0.17055344955E+03 0.  0.
         24    2    5    5    0    0  0.54578948817E+01  0.13323641042E+03  0.68100597598E+03  0.69880808356E+03  0.82352101648E+02 0.  0.
          5    1    5    5  501    0 -0.38530870562E+02 -0.21499949672E+02  0.33998224047E+03  0.34286570207E+03  0.47000000000E+01 0. -1.
        -13    1    6    6    0    0 -0.38024665377E+02  0.69480265987E+02  0.36826757911E+03  0.37668872078E+03  0.00000000000E+00 0.  1.
         14    1    6    6    0    0  0.43482560259E+02  0.63756144430E+02  0.31273839687E+03  0.32211936278E+03  0.00000000000E+00 0. -1.
         -5    1    3    3    0  503  0.53670476748E+02 -0.78245585419E+02  0.19602572880E+03  0.21783266069E+03  0.47000000000E+01 0.  1.
         11    1    4    4    0    0 -0.33518281541E+02  0.16718649882E+01  0.52063075093E+02  0.61942183672E+02  0.00000000000E+00 0. -1.
        -12    1    4    4    0    0  0.12920780473E+02 -0.35162740314E+02 -0.81949504438E+01  0.38347386967E+02  0.00000000000E+00 0.  1.
<mgrwt>
<rscale>  2 0.20833685E+03</rscale>
<asrwt>0</asrwt>
<pdfrwt beam="1">  1       21 0.20159060E+00 0.20893227E+03</pdfrwt>
<pdfrwt beam="2">  1       21 0.76087661E-02 0.20893227E+03</pdfrwt>
<totfact> 0.16958222E+04</totfact>
</mgrwt>
</event>
<event>
12    1  0.1029207E-001  0.1790343E+03  0.7546771E-02  0.1172956E+00
         21   -1    0    0  501  502  0.00000000000E+00  0.00000000000E+00  0.84716786078E+03  0.84716786078E+03  0.00000000000E+00 0.  1.
         21   -1    0    0  502  503 -0.00000000000E+00 -0.00000000000E+00 -0.36625824511E+02  0.36625824511E+02  0.00000000000E+00 0.  1.
         -6    2    1    2    0  503 -0.36811138989E+02 -0.28182766441E+02  0.27918145910E+03  0.32308222725E+03  0.15585413111E+03 0.  0.
        -24    2    3    3    0    0 -0.42673086136E+02  0.20579181416E+02  0.97691711028E+02  0.13500588999E+03  0.80239796486E+02 0.  0.
          6    2    1    2  501    0  0.36811138989E+02  0.28182766441E+02  0.53136057717E+03  0.56071145804E+03  0.17292758001E+03 0.  0.
         24    2    5    5    0    0  0.71839161706E+02  0.61474591227E+02  0.44031570542E+03  0.45752925683E+03  0.80716230718E+02 0.  0.
          5    1    5    5  501    0 -0.35028022717E+02 -0.33291824786E+02  0.91044871749E+02  0.10318220120E+03  0.47000000000E+01 0. -1.
        -11    1    6    6    0    0  0.86274078110E+01  0.60070631098E+02  0.23410210795E+03  0.24184025685E+03  0.00000000000E+00 0.  1.
         12    1    6    6    0    0  0.63211753895E+02  0.14039601289E+01  0.20621359747E+03  0.21568899999E+03  0.00000000000E+00 0. -1.
         -5    1    3    3    0  503  0.58619471465E+01 -0.48761947857E+02  0.18148974807E+03  0.18807633726E+03  0.47000000000E+01 0.  1.
         13    1    4    4    0    0 -0.14429510678E+02  0.14402923835E+02  0.10352403859E+03  0.10551247111E+03  0.00000000000E+00 0. -1.
        -14    1    4    4    0    0 -0.28243575458E+02  0.61762575803E+01 -0.58323275643E+01  0.29493418879E+02  0.00000000000E+00 0.  1.
<mgrwt>
<rscale>  2 0.17477709E+03</rscale>
<asrwt>0</asrwt>
<pdfrwt beam="1">  1       21 0.13033350E+00 0.17903429E+03</pdfrwt>
<pdfrwt beam="2">  1       21 0.56347429E-02 0.17903429E+03</pdfrwt>
<totfact> 0.94859874E+04</totfact>
</mgrwt>
</event>
<event>
12    1  0.1029207E-001  0.1851178E+03  0.7546771E-02  0.1164395E+00
         21   -1    0    0  503  502  0.00000000000E+00  0.00000000000E+00  0.77075855996E+03  0.77075855996E+03  0.00000000000E+00 0. -1.
         21   -1    0    0  501  503 -0.00000000000E+00 -0.00000000000E+00 -0.71860731357E+02  0.71860731357E+02  0.00000000000E+00 0. -1.
          6    2    1    2  501    0 -0.65228156131E+02  0.29523446422E+01  0.85999139259E+02  0.20411868443E+03  0.17321996620E+03 0.  0.
         24    2    3    3    0    0 -0.64085228319E+02 -0.44158156480E+02  0.86742877060E+01  0.11344383528E+03  0.82081674108E+02 0.  0.
         -6    2    1    2    0  502  0.65228156131E+02 -0.29523446422E+01  0.61289868934E+03  0.63850060689E+03  0.16665771180E+03 0.  0.
        -24    2    5    5    0    0  0.10518289201E+03  0.13453919711E+02  0.47054958706E+03  0.48966881139E+03  0.84345611856E+02 0.  0.
          5    1    3    3  501    0 -0.11429278116E+01  0.47110501122E+02  0.77324851553E+02  0.90674849146E+02  0.47000000000E+01 0. -1.
        -11    1    4    4    0    0 -0.10034620520E+02  0.14985352170E+02 -0.21290702352E+02  0.27902480092E+02  0.00000000000E+00 0.  1.
         12    1    4    4    0    0 -0.54050607799E+02 -0.59143508650E+02  0.29964990058E+02  0.85541355192E+02  0.00000000000E+00 0. -1.
         -5    1    5    5    0  502 -0.39954735880E+02 -0.16406264354E+02  0.14234910228E+03  0.14883179549E+03  0.47000000000E+01 0.  1.
         11    1    6    6    0    0 -0.10597299397E+02  0.16086347416E+02  0.54623807323E+02  0.57920925875E+02  0.00000000000E+00 0. -1.
        -12    1    6    6    0    0  0.11578019141E+03 -0.26324277049E+01  0.41592577974E+03  0.43174788552E+03  0.00000000000E+00 0.  1.
<mgrwt>
<rscale>  2 0.18356700E+03</rscale>
<asrwt>0</asrwt>
<pdfrwt beam="1">  1       21 0.11857823E+00 0.18511776E+03</pdfrwt>
<pdfrwt beam="2">  1       21 0.11055498E-01 0.18511776E+03</pdfrwt>
<totfact> 0.37098778E+04</totfact>
</mgrwt>
</event>
<event>
12    1  0.1029207E-001  0.1966138E+03  0.7546771E-02  0.1152912E+00
         21   -1    0    0  503  502  0.00000000000E+00  0.00000000000E+00  0.63663229869E+03  0.63663229869E+03  0.00000000000E+00 0.  1.
         21   -1    0    0  501  503 -0.00000000000E+00 -0.00000000000E+00 -0.33705064640E+03  0.33705064640E+03  0.00000000000E+00 0. -1.
          6    2    1    2  501    0 -0.75129793363E+02  0.51773586109E+02 -0.29125414515E+03  0.35140567206E+03  0.17416078554E+03 0.  0.
         24    2    3    3    0    0  0.20607692098E+02  0.56554451588E+02 -0.16475620012E+03  0.19262172169E+03  0.79595472377E+02 0.  0.
         -6    2    1    2    0  502  0.75129793363E+02 -0.51773586109E+02  0.59083579744E+03  0.62227727303E+03  0.17267621413E+03 0.  0.
        -24    2    5    5    0    0  0.10946530629E+03 -0.59277991599E+02  0.37102075109E+03  0.39962061323E+03  0.80893159257E+02 0.  0.
          5    1    3    3  501    0 -0.95737485461E+02 -0.47808654795E+01 -0.12649794503E+03  0.15878395037E+03  0.47000000000E+01 0. -1.
        -11    1    4    4    0    0  0.34142995982E+02 -0.65520398176E+01 -0.66966750982E+02  0.75453423630E+02  0.00000000000E+00 0.  1.
         12    1    4    4    0    0 -0.13535303884E+02  0.63106491406E+02 -0.97789449135E+02  0.11716829806E+03  0.00000000000E+00 0. -1.
         -5    1    5    5    0  502 -0.34335512928E+02  0.75044054898E+01  0.21981504635E+03  0.22265665980E+03  0.47000000000E+01 0.  1.
         11    1    6    6    0    0  0.21470614919E+02 -0.49171613862E+02  0.88033326279E+02  0.10309559375E+03  0.00000000000E+00 0. -1.
        -12    1    6    6    0    0  0.87994691372E+02 -0.10106377737E+02  0.28298742481E+03  0.29652501948E+03  0.00000000000E+00 0.  1.
<mgrwt>
<rscale>  2 0.19628448E+03</rscale>
<asrwt>0</asrwt>
<pdfrwt beam="1">  1       21 0.97943430E-01 0.19661376E+03</pdfrwt>
<pdfrwt beam="2">  1       21 0.51853946E-01 0.19661376E+03</pdfrwt>
<totfact> 0.30345509E+03</totfact>
</mgrwt>
</event>
<event>
12    1  0.1029207E-001  0.2210585E+03  0.7546771E-02  0.1133321E+00
         21   -1    0    0  503  502  0.00000000000E+00  0.00000000000E+00  0.14977189271E+04  0.14977189271E+04  0.00000000000E+00 0. -1.
         21   -1    0    0  501  503 -0.00000000000E+00 -0.00000000000E+00 -0.64935667600E+02  0.64935667600E+02  0.00000000000E+00 0. -1.
          6    2    1    2  501    0 -0.65996502168E+02 -0.12017388280E+03  0.16473440682E+03  0.27568874943E+03  0.17340577086E+03 0.  0.
         24    2    3    3    0    0  0.18316627286E+02 -0.10173817189E+03  0.12208823524E+03  0.17930739654E+03  0.80990436570E+02 0.  0.
         -6    2    1    2    0  502  0.65996502168E+02  0.12017388280E+03  0.12680488527E+04  0.12869658453E+04  0.17186009921E+03 0.  0.
        -24    2    5    5    0    0 -0.25208900811E+02  0.66908675847E+02  0.52608250335E+03  0.53750486474E+03  0.83883369623E+02 0.  0.
          5    1    3    3  501    0 -0.84313129455E+02 -0.18435710914E+02  0.42646171586E+02  0.96381352897E+02  0.47000000000E+01 0. -1.
        -13    1    4    4    0    0  0.69804135084E+01 -0.37897416719E+02  0.10559001228E+03  0.11240191751E+03  0.00000000000E+00 0.  1.
         14    1    4    4    0    0  0.11336213778E+02 -0.63840755168E+02  0.16498222958E+02  0.66905479029E+02  0.00000000000E+00 0. -1.
         -5    1    5    5    0  502  0.91205402980E+02  0.53265206954E+02  0.74196634937E+03  0.74946098057E+03  0.47000000000E+01 0.  1.
         11    1    6    6    0    0 -0.30273944863E+02  0.82009715044E+02  0.35190677339E+03  0.36260237486E+03  0.00000000000E+00 0. -1.
        -12    1    6    6    0    0  0.50650440516E+01 -0.15101039197E+02  0.17417572996E+03  0.17490248987E+03  0.00000000000E+00 0.  1.
<mgrwt>
<rscale>  2 0.22075528E+03</rscale>
<asrwt>0</asrwt>
<pdfrwt beam="1">  1       21 0.23041827E+00 0.22105850E+03</pdfrwt>
<pdfrwt beam="2">  1       21 0.99901039E-02 0.22105850E+03</pdfrwt>
<totfact> 0.68876591E+03</totfact>
</mgrwt>
</event>
<event>
12    1  0.1029207E-001  0.2062212E+03  0.7546771E-02  0.1144622E+00
         21   -1    0    0  501  502  0.00000000000E+00  0.00000000000E+00  0.10067101828E+03  0.10067101828E+03  0.00000000000E+00 0.  1.
         21   -1    0    0  502  503 -0.00000000000E+00 -0.00000000000E+00 -0.47725420151E+03  0.47725420151E+03  0.00000000000E+00 0. -1.
         -6    2    1    2    0  503  0.37937864627E+02  0.10604532613E+03 -0.28642085505E+03  0.35285540735E+03  0.17258371744E+03 0.  0.
        -24    2    3    3    0    0  0.52828062238E+02  0.13487790168E+03 -0.26658724824E+03  0.31453442932E+03  0.82947536332E+02 0.  0.
          6    2    1    2  501    0 -0.37937864627E+02 -0.10604532613E+03 -0.90162328180E+02  0.22506981244E+03  0.17274918895E+03 0.  0.
         24    2    5    5    0    0 -0.32148375377E+02 -0.12394739880E+03 -0.22226783616E+02  0.15442046278E+03  0.83397684070E+02 0.  0.
          5    1    5    5  501    0 -0.57894892493E+01  0.17902072667E+02 -0.67935544563E+02  0.70649349655E+02  0.47000000000E+01 0. -1.
        -13    1    6    6    0    0 -0.21126501546E+02  0.63294778943E+01 -0.24270573546E+01  0.22187428093E+02  0.00000000000E+00 0.  1.
         14    1    6    6    0    0 -0.11021873832E+02 -0.13027687669E+03 -0.19799726262E+02  0.13223303469E+03  0.00000000000E+00 0. -1.
         -5    1    3    3    0  503 -0.14890197611E+02 -0.28832575553E+02 -0.19833606808E+02  0.38320978027E+02  0.47000000000E+01 0.  1.
         13    1    4    4    0    0 -0.17105470322E+02  0.62480457683E+02 -0.84458774474E+02  0.10644101321E+03  0.00000000000E+00 0. -1.
        -14    1    4    4    0    0  0.69933532560E+02  0.72397444001E+02 -0.18212847377E+03  0.20809341612E+03  0.00000000000E+00 0.  1.
<mgrwt>
<rscale>  2 0.20618652E+03</rscale>
<asrwt>0</asrwt>
<pdfrwt beam="1">  1       21 0.15487849E-01 0.20622118E+03</pdfrwt>
<pdfrwt beam="2">  1       21 0.73423722E-01 0.20622118E+03</pdfrwt>
<totfact> 0.61293576E+04</totfact>
</mgrwt>
</event>
<event>
12    1  0.1029207E-001  0.2689614E+03  0.7546771E-02  0.1101999E+00
         21   -1    0    0  503  502  0.00000000000E+00  0.00000000000E+00  0.10598481126E+04  0.10598481126E+04  0.00000000000E+00 0.  1.
         21   -1    0    0  501  503 -0.00000000000E+00 -0.00000000000E+00 -0.84177339847E+02  0.84177339847E+02  0.00000000000E+00 0. -1.
          6    2    1    2  501    0 -0.62762180594E+02 -0.19567405958E+03  0.23674185416E+03  0.35766918647E+03  0.17220079132E+03 0.  0.
         24    2    3    3    0    0 -0.62728961039E+02 -0.13605469777E+03  0.24567830031E+03  0.29720085197E+03  0.74328432176E+02 0.  0.
         -6    2    1    2    0  502  0.62762180594E+02  0.19567405958E+03  0.73892891855E+03  0.78635626594E+03  0.17353040482E+03 0.  0.
        -24    2    5    5    0    0  0.10085529733E+03  0.18520339999E+03  0.57783408392E+03  0.62042147151E+03  0.80984463985E+02 0.  0.
          5    1    3    3  501    0 -0.33219555002E-01 -0.59619361816E+02 -0.89364461561E+01  0.60468334496E+02  0.47000000000E+01 0. -1.
        -11    1    4    4    0    0 -0.18461776651E+02 -0.89928523128E+02  0.19531625317E+03  0.21581569735E+03  0.00000000000E+00 0.  1.
         12    1    4    4    0    0 -0.44267184389E+02 -0.46126174639E+02  0.50362047141E+02  0.81385154621E+02  0.00000000000E+00 0. -1.
         -5    1    5    5    0  502 -0.38093116739E+02  0.10470659594E+02  0.16109483464E+03  0.16593479443E+03  0.47000000000E+01 0.  1.
         11    1    6    6    0    0  0.11544790697E+02  0.46479965683E+02  0.59026503222E+02  0.76011824638E+02  0.00000000000E+00 0. -1.
        -12    1    6    6    0    0  0.89310506636E+02  0.13872343431E+03  0.51880758069E+03  0.54440964687E+03  0.00000000000E+00 0.  1.
<mgrwt>
<rscale>  2 0.26874715E+03</rscale>
<asrwt>0</asrwt>
<pdfrwt beam="1">  1       21 0.16305355E+00 0.26896139E+03</pdfrwt>
<pdfrwt beam="2">  1       21 0.12950361E-01 0.26896139E+03</pdfrwt>
<totfact> 0.11640918E+04</totfact>
</mgrwt>
</event>
<event>
12    1  0.1029207E-001  0.1808004E+03  0.7546771E-02  0.1167232E+00
         21   -1    0    0  503  502  0.00000000000E+00  0.00000000000E+00  0.93867695464E+03  0.93867695464E+03  0.00000000000E+00 0. -1.
         21   -1    0    0  501  503 -0.00000000000E+00 -0.00000000000E+00 -0.45639124198E+02  0.45639124198E+02  0.00000000000E+00 0. -1.
          6    2    1    2  501    0 -0.43574097335E+02 -0.28403809154E+02  0.20595668193E+03  0.27405646245E+03  0.17315689835E+03 0.  0.
         24    2    3    3    0    0 -0.74190739420E+02 -0.38748156477E+02  0.72475802133E+02  0.13663877958E+03  0.80073271099E+02 0.  0.
         -6    2    1    2    0  502  0.43574097335E+02  0.28403809154E+02  0.68708114851E+03  0.71025961638E+03  0.17228679490E+03 0.  0.
        -24    2    5    5    0    0 -0.13386806423E+02 -0.38792131763E+02  0.29982392372E+03  0.31308196447E+03  0.80261417664E+02 0.  0.
          5    1    3    3  501    0  0.30616642085E+02  0.10344347323E+02  0.13348087980E+03  0.13741768287E+03  0.47000000000E+01 0. -1.
        -11    1    4    4    0    0 -0.47996191494E+02 -0.54284632714E+02  0.18694229727E+02  0.74832679839E+02  0.00000000000E+00 0.  1.
         12    1    4    4    0    0 -0.26194547926E+02  0.15536476236E+02  0.53781572407E+02  0.61806099743E+02  0.00000000000E+00 0. -1.
         -5    1    5    5    0  502  0.56960903758E+02  0.67195940917E+02  0.38725722478E+03  0.39717765191E+03  0.47000000000E+01 0.  1.
         11    1    6    6    0    0  0.16298873357E+02 -0.91568904249E+01  0.23580537551E+03  0.23654529594E+03  0.00000000000E+00 0. -1.
        -12    1    6    6    0    0 -0.29685679780E+02 -0.29635241338E+02  0.64018548218E+02  0.76536668526E+02  0.00000000000E+00 0.  1.
<mgrwt>
<rscale>  2 0.18059177E+03</rscale>
<asrwt>0</asrwt>
<pdfrwt beam="1">  1       21 0.14441182E+00 0.18080041E+03</pdfrwt>
<pdfrwt beam="2">  1       21 0.70214044E-02 0.18080041E+03</pdfrwt>
<totfact> 0.50003754E+04</totfact>
</mgrwt>
</event>
<event>
12    1  0.1029207E-001  0.1852645E+03  0.7546771E-02  0.1162912E+00
         21   -1    0    0  501  502  0.00000000000E+00  0.00000000000E+00  0.34475461001E+03  0.34475461001E+03  0.00000000000E+00 0.  1.
         21   -1    0    0  502  503 -0.00000000000E+00 -0.00000000000E+00 -0.13989238878E+03  0.13989238878E+03  0.00000000000E+00 0.  1.
         -6    2    1    2    0  503  0.59071812283E+02  0.31567530029E+02 -0.27999393319E+02  0.18736834921E+03  0.17273373817E+03 0.  0.
        -24    2    3    3    0    0  0.63761052620E+02 -0.42150412386E+02 -0.24891107908E+02  0.11328680328E+03  0.79826082514E+02 0.  0.
          6    2    1    2  501    0 -0.59071812283E+02 -0.31567530029E+02  0.23286161454E+03  0.29727864958E+03  0.17223262180E+03 0.  0.
         24    2    5    5    0    0 -0.11422682281E+02 -0.71552172642E+02  0.20044589620E+03  0.22697872049E+03  0.78042239657E+02 0.  0.
          5    1    5    5  501    0 -0.47649130001E+02  0.39984642613E+02  0.32415718340E+02  0.70299929092E+02  0.47000000000E+01 0. -1.
        -13    1    6    6    0    0 -0.36985475929E+02 -0.65426947231E+02  0.11335442786E+03  0.13600675413E+03  0.00000000000E+00 0.  1.
         14    1    6    6    0    0  0.25562793647E+02 -0.61252254109E+01  0.87091468338E+02  0.90971966355E+02  0.00000000000E+00 0. -1.
         -5    1    3    3    0  503 -0.46892403373E+01  0.73717942414E+02 -0.31082854115E+01  0.74081545927E+02  0.47000000000E+01 0.  1.
         13    1    4    4    0    0  0.20882342041E+02 -0.59350811720E+02 -0.54166466935E+01  0.63150068269E+02  0.00000000000E+00 0. -1.
        -14    1    4    4    0    0  0.42878710579E+02  0.17200399335E+02 -0.19474461214E+02  0.50136735013E+02  0.00000000000E+00 0.  1.
<mgrwt>
<rscale>  2 0.18514760E+03</rscale>
<asrwt>0</asrwt>
<pdfrwt beam="1">  1       21 0.53039171E-01 0.18526449E+03</pdfrwt>
<pdfrwt beam="2">  1       21 0.21521906E-01 0.18526449E+03</pdfrwt>
<totfact> 0.67962717E+04</totfact>
</mgrwt>
</event>
<event>
12    1  0.1029207E-001  0.2647754E+03  0.7546771E-02  0.1104533E+00
         21   -1    0    0  501  502  0.00000000000E+00  0.00000000000E+00  0.20209682299E+04  0.20209682299E+04  0.00000000000E+00 0.  1.
         21   -1    0    0  502  503 -0.00000000000E+00 -0.00000000000E+00 -0.69008735863E+02  0.69008735863E+02  0.00000000000E+00 0.  1.
         -6    2    1    2    0  503 -0.19900215139E+03  0.22112526473E+02  0.23548962475E+03  0.35320558874E+03  0.17090349461E+03 0.  0.
        -24    2    3    3    0    0 -0.17987902290E+03  0.26470049330E+02  0.25622096576E+03  0.32428223229E+03  0.80328428915E+02 0.  0.
          6    2    1    2  501    0  0.19900215139E+03 -0.22112526473E+02  0.17164698693E+04  0.17367713770E+04  0.17324890700E+03 0.  0.
         24    2    5    5    0    0  0.47108560352E+02 -0.96781095638E+01  0.99472294170E+03  0.99909462179E+03  0.80021561367E+02 0.  0.
          5    1    5    5  501    0  0.15189359104E+03 -0.12434416910E+02  0.72174692759E+03  0.73767675524E+03  0.47000000000E+01 0. -1.
        -11    1    6    6    0    0  0.47893170571E+02  0.27187859312E+02  0.67781495933E+03  0.68004856780E+03  0.00000000000E+00 0.  1.
         12    1    6    6    0    0 -0.78461021922E+00 -0.36865968876E+02  0.31690798238E+03  0.31904605399E+03  0.00000000000E+00 0. -1.
         -5    1    3    3    0  503 -0.19123128493E+02 -0.43575228569E+01 -0.20731341007E+02  0.28923356457E+02  0.47000000000E+01 0.  1.
         11    1    4    4    0    0 -0.51573103151E+02  0.43559004382E+02  0.10939026757E+03  0.12854338750E+03  0.00000000000E+00 0. -1.
        -12    1    4    4    0    0 -0.12830591975E+03 -0.17088955052E+02  0.14683069819E+03  0.19573884479E+03  0.00000000000E+00 0.  1.
<mgrwt>
<rscale>  2 0.26439238E+03</rscale>
<asrwt>0</asrwt>
<pdfrwt beam="1">  1       21 0.31091814E+00 0.26477538E+03</pdfrwt>
<pdfrwt beam="2">  1       21 0.10616730E-01 0.26477538E+03</pdfrwt>
<totfact> 0.19910685E+03</totfact>
</mgrwt>
</event>
<event>
12    1  0.1029207E-001  0.2491661E+03  0.7546771E-02  0.1113886E+00
         21   -1    0    0  501  502  0.00000000000E+00  0.00000000000E+00  0.53879603247E+02  0.53879603247E+02  0.00000000000E+00 0.  1.
         21   -1    0    0  502  503 -0.00000000000E+00 -0.00000000000E+00 -0.11530127875E+04  0.11530127875E+04  0.00000000000E+00 0. -1.
         -6    2    1    2    0  503 -0.47740476154E+02  0.17121729564E+03 -0.52298895620E+03  0.57931096703E+03  0.17461166291E+03 0.  0.
        -24    2    3    3    0    0 -0.56685244859E+02  0.19398381790E+03 -0.49614172965E+03  0.54268874705E+03  0.86669035338E+02 0.  0.
          6    2    1    2  501    0  0.47740476154E+02 -0.17121729564E+03 -0.57614422801E+03  0.62758142367E+03  0.17413143450E+03 0.  0.
         24    2    5    5    0    0 -0.15537366998E+02 -0.19508517956E+02 -0.22206650565E+03  0.23718065250E+03  0.79492999330E+02 0.  0.
          5    1    5    5  501    0  0.63277843152E+02 -0.15170877769E+03 -0.35407772236E+03  0.39040077117E+03  0.47000000000E+01 0. -1.
        -13    1    6    6    0    0  0.16917457268E+02  0.22875069712E+02 -0.57164442946E+02  0.63853290534E+02  0.00000000000E+00 0.  1.
         14    1    6    6    0    0 -0.32454824266E+02 -0.42383587668E+02 -0.16490206270E+03  0.17332736196E+03  0.00000000000E+00 0. -1.
         -5    1    3    3    0  503  0.89447687043E+01 -0.22766522255E+02 -0.26847226548E+02  0.36622219978E+02  0.47000000000E+01 0.  1.
         13    1    4    4    0    0  0.77600556350E+00  0.14211112605E+03 -0.33600775038E+03  0.36482513982E+03  0.00000000000E+00 0. -1.
        -14    1    4    4    0    0 -0.57461250422E+02  0.51872691847E+02 -0.16013397927E+03  0.17786360723E+03  0.00000000000E+00 0.  1.
<mgrwt>
<rscale>  2 0.24908199E+03</rscale>
<asrwt>0</asrwt>
<pdfrwt beam="1">  1       21 0.82891703E-02 0.24916611E+03</pdfrwt>
<pdfrwt beam="2">  1       21 0.17738657E+00 0.24916611E+03</pdfrwt>
<totfact> 0.20619078E+04</totfact>
</mgrwt>
</event>
<event>
12    1  0.1029207E-001  0.1894725E+03  0.7546771E-02  0.1159143E+00
         21   -1    0    0  501  502  0.00000000000E+00  0.00000000000E+00  0.77424526910E+03  0.77424526910E+03  0.00000000000E+00 0. -1.
         21   -1    0    0  502  503 -0.00000000000E+00 -0.00000000000E+00 -0.85756854509E+02  0.85756854509E+02  0.00000000000E+00 0.  1.
         -6    2    1    2    0  503 -0.51776007650E+02  0.52976680320E+02  0.52448606462E+02  0.19659777675E+03  0.17439193180E+03 0.  0.
        -24    2    3    3    0    0 -0.57935602973E+02 -0.11426967861E+02 -0.17845527195E+02  0.10094671434E+03  0.79904108832E+02 0.  0.
          6    2    1    2  501    0  0.51776007650E+02 -0.52976680320E+02  0.63603980813E+03  0.66340434686E+03  0.17341109043E+03 0.  0.
         24    2    5    5    0    0  0.77199064654E+02 -0.67994948168E+02  0.31910362225E+03  0.34506095347E+03  0.81590019711E+02 0.  0.
          5    1    5    5  501    0 -0.25423057003E+02  0.15018267848E+02  0.31693618588E+03  0.31834339339E+03  0.47000000000E+01 0. -1.
        -11    1    6    6    0    0  0.25371427227E+02 -0.38198865895E+02  0.44053971739E+02  0.63589426017E+02  0.00000000000E+00 0.  1.
         12    1    6    6    0    0  0.51827637426E+02 -0.29796082272E+02  0.27504965051E+03  0.28147152745E+03  0.00000000000E+00 0. -1.
         -5    1    3    3    0  503  0.61595953228E+01  0.64403648181E+02  0.70294133657E+02  0.95651062410E+02  0.47000000000E+01 0.  1.
         13    1    4    4    0    0 -0.64465752735E+02  0.31473409814E+01  0.13342760623E+02  0.65907270403E+02  0.00000000000E+00 0. -1.
        -14    1    4    4    0    0  0.65301497622E+01 -0.14574308842E+02 -0.31188287818E+02  0.35039443934E+02  0.00000000000E+00 0.  1.
<mgrwt>
<rscale>  2 0.18924650E+03</rscale>
<asrwt>0</asrwt>
<pdfrwt beam="1">  1       21 0.11911465E+00 0.18947250E+03</pdfrwt>
<pdfrwt beam="2">  1       21 0.13193363E-01 0.18947250E+03</pdfrwt>
<totfact> 0.26674030E+04</totfact>
</mgrwt>
</event>
<event>
12    1  0.1029207E-001  0.3411503E+03  0.7546771E-02  0.1066314E+00
         21   -1    0    0  503  502  0.00000000000E+00  0.00000000000E+00  0.74812225173E+03  0.74812225173E+03  0.00000000000E+00 0.  1.
         21   -1    0    0  501  503 -0.00000000000E+00 -0.00000000000E+00 -0.15966858574E+03  0.15966858574E+03  0.00000000000E+00 0.  1.
          6    2    1    2  501    0 -0.22326411021E+03 -0.19147939248E+03  0.22122977355E+03  0.40660314909E+03  0.17283601330E+03 0.  0.
         24    2    3    3    0    0 -0.10782815044E+03 -0.16868507504E+03  0.10101957336E+03  0.23832473709E+03  0.80697964906E+02 0.  0.
         -6    2    1    2    0  502  0.22326411021E+03  0.19147939248E+03  0.36722389244E+03  0.50118768838E+03  0.17269768715E+03 0.  0.
        -24    2    5    5    0    0  0.15303637359E+03  0.51663818489E+02  0.23017854108E+03  0.29313998218E+03  0.82822742037E+02 0.  0.
          5    1    3    3  501    0 -0.11543595977E+03 -0.22794317448E+02  0.12021020019E+03  0.16827841200E+03  0.47000000000E+01 0. -1.
        -13    1    4    4    0    0 -0.14910732626E+02 -0.89999418938E+02  0.62637046567E+02  0.11065995192E+03  0.00000000000E+00 0.  1.
         14    1    4    4    0    0 -0.92917417819E+02 -0.78685656099E+02  0.38382526792E+02  0.12766478517E+03  0.00000000000E+00 0. -1.
         -5    1    5    5    0  502  0.70227736624E+02  0.13981557400E+03  0.13704535136E+03  0.20804770619E+03  0.47000000000E+01 0.  1.
         11    1    6    6    0    0  0.51018917852E+02 -0.19461344101E+02  0.48880130242E+02  0.73286704289E+02  0.00000000000E+00 0. -1.
        -12    1    6    6    0    0  0.10201745574E+03  0.71125162590E+02  0.18129841084E+03  0.21985327790E+03  0.00000000000E+00 0.  1.
<mgrwt>
<rscale>  2 0.34113276E+03</rscale>
<asrwt>0</asrwt>
<pdfrwt beam="1">  1       21 0.11509573E+00 0.34115027E+03</pdfrwt>
<pdfrwt beam="2">  1       21 0.24564398E-01 0.34115027E+03</pdfrwt>
<totfact> 0.84338902E+03</totfact>
</mgrwt>
</event>
<event>
12    1  0.1029207E-001  0.2188054E+03  0.7546771E-02  0.1135499E+00
         21   -1    0    0  503  502  0.00000000000E+00  0.00000000000E+00  0.76181017690E+02  0.76181017690E+02  0.00000000000E+00 0. -1.
         21   -1    0    0  501  503 -0.00000000000E+00 -0.00000000000E+00 -0.61775939640E+03  0.61775939640E+03  0.00000000000E+00 0.  1.
          6    2    1    2  501    0  0.12030899831E+03  0.45111716473E+02 -0.26677806016E+03  0.34503093857E+03  0.17710588118E+03 0.  0.
         24    2    3    3    0    0 -0.12337195928E+02  0.17689775775E+02 -0.99705244169E+02  0.12989751131E+03  0.80418238979E+02 0.  0.
         -6    2    1    2    0  502 -0.12030899831E+03 -0.45111716473E+02 -0.27480031855E+03  0.34890947553E+03  0.17237541877E+03 0.  0.
        -24    2    5    5    0    0 -0.77090448975E+02 -0.75162666591E+01 -0.61395225601E+02  0.12790023465E+03  0.81176749813E+02 0.  0.
          5    1    3    3  501    0  0.13264619424E+03  0.27421940698E+02 -0.16707281599E+03  0.21513342725E+03  0.47000000000E+01 0. -1.
        -13    1    4    4    0    0  0.22220969828E+02  0.29486706293E+02 -0.80669347506E+02  0.88717422050E+02  0.00000000000E+00 0.  1.
         14    1    4    4    0    0 -0.34558165756E+02 -0.11796930518E+02 -0.19035896663E+02  0.41180089264E+02  0.00000000000E+00 0. -1.
         -5    1    5    5    0  502 -0.43218549338E+02 -0.37595449813E+02 -0.21340509295E+03  0.22100924087E+03  0.47000000000E+01 0.  1.
         13    1    6    6    0    0  0.25433911796E+01  0.20387026945E+02  0.42642504230E+01  0.20982934447E+02  0.00000000000E+00 0. -1.
        -14    1    6    6    0    0 -0.79633840155E+02 -0.27903293604E+02 -0.65659476024E+02  0.10691730021E+03  0.00000000000E+00 0.  1.
<mgrwt>
<rscale>  2 0.21784639E+03</rscale>
<asrwt>0</asrwt>
<pdfrwt beam="1">  1       21 0.11720157E-01 0.21880543E+03</pdfrwt>
<pdfrwt beam="2">  1       21 0.95039905E-01 0.21880543E+03</pdfrwt>
<totfact> 0.55934411E+04</totfact>
</mgrwt>
</event>
<event>
12    1  0.1029207E-001  0.1743280E+03  0.7546771E-02  0.1173639E+00
         21   -1    0    0  503  502  0.00000000000E+00  0.00000000000E+00  0.29713394202E+02  0.29713394202E+02  0.00000000000E+00 0. -1.
         21   -1    0    0  501  503 -0.00000000000E+00 -0.00000000000E+00 -0.10289811026E+04  0.10289811026E+04  0.00000000000E+00 0. -1.
          6    2    1    2  501    0  0.12514727415E+02 -0.99160089479E+01 -0.44484783963E+03  0.47778641777E+03  0.17359526190E+03 0.  0.
         24    2    3    3    0    0 -0.33590574187E+02  0.42448270674E+02 -0.30644594818E+03  0.32272226920E+03  0.85500652195E+02 0.  0.
         -6    2    1    2    0  502 -0.12514727415E+02  0.99160089479E+01 -0.55441986881E+03  0.58090807907E+03  0.17267848667E+03 0.  0.
        -24    2    5    5    0    0 -0.44995448457E+02 -0.26201320995E+01 -0.53018314901E+03  0.53822716227E+03  0.81011426606E+02 0.  0.
          5    1    3    3  501    0  0.46105301602E+02 -0.52364279622E+02 -0.13840189144E+03  0.15506414857E+03  0.47000000000E+01 0. -1.
        -11    1    4    4    0    0 -0.26193562990E+01 -0.22052094308E+02 -0.30990444198E+02  0.38125628157E+02  0.00000000000E+00 0.  1.
         12    1    4    4    0    0 -0.30971217888E+02  0.64500364982E+02 -0.27545550398E+03  0.28459664105E+03  0.00000000000E+00 0. -1.
         -5    1    5    5    0  502  0.32480721041E+02  0.12536141047E+02 -0.24236719803E+02  0.42680916796E+02  0.47000000000E+01 0.  1.
         11    1    6    6    0    0 -0.15873580715E+02  0.35739140030E+01 -0.14831804347E+02  0.22016490325E+02  0.00000000000E+00 0. -1.
        -12    1    6    6    0    0 -0.29121867741E+02 -0.61940461025E+01 -0.51535134466E+03  0.51621067195E+03  0.00000000000E+00 0.  1.
<mgrwt>
<rscale>  2 0.17409935E+03</rscale>
<asrwt>0</asrwt>
<pdfrwt beam="1">  1       21 0.45712915E-02 0.17432803E+03</pdfrwt>
<pdfrwt beam="2">  1       21 0.15830478E+00 0.17432803E+03</pdfrwt>
<totfact> 0.81860141E+04</totfact>
</mgrwt>
</event>
<event>
12    1  0.1029207E-001  0.3023633E+03  0.7546771E-02  0.1084107E+00
         21   -1    0    0  503  502  0.00000000000E+00  0.00000000000E+00  0.44460724012E+02  0.44460724012E+02  0.00000000000E+00 0.  1.
         21   -1    0    0  501  503 -0.00000000000E+00 -0.00000000000E+00 -0.28552764337E+04  0.28552764337E+04  0.00000000000E+00 0. -1.
          6    2    1    2  501    0 -0.22257961163E+03  0.10908182876E+03 -0.21740606193E+04  0.21949859146E+04  0.17315617211E+03 0.  0.
         24    2    3    3    0    0 -0.20074328181E+03  0.27388605811E+02 -0.15236475138E+04  0.15390820300E+04  0.78890733943E+02 0.  0.
         -6    2    1    2    0  502  0.22257961163E+03 -0.10908182876E+03 -0.63675509043E+03  0.70475124318E+03  0.17255938307E+03 0.  0.
        -24    2    5    5    0    0  0.14438271340E+03 -0.30227808568E+02 -0.50530880940E+03  0.53260907463E+03  0.81088502166E+02 0.  0.
          5    1    3    3  501    0 -0.21836329816E+02  0.81693222951E+02 -0.65041310547E+03  0.65590388453E+03  0.47000000000E+01 0. -1.
        -11    1    4    4    0    0 -0.54305266936E+02  0.10797064060E+02 -0.20936703739E+03  0.21656452838E+03  0.00000000000E+00 0.  1.
         12    1    4    4    0    0 -0.14643801488E+03  0.16591541751E+02 -0.13142804764E+04  0.13225175016E+04  0.00000000000E+00 0. -1.
         -5    1    5    5    0  502  0.78196898234E+02 -0.78854020193E+02 -0.13144628104E+03  0.17214216855E+03  0.47000000000E+01 0.  1.
         13    1    6    6    0    0  0.88716917354E+02 -0.11039096982E+02 -0.16904935807E+03  0.19123346608E+03  0.00000000000E+00 0. -1.
        -14    1    6    6    0    0  0.55665796042E+02 -0.19188711586E+02 -0.33625945133E+03  0.34137560854E+03  0.00000000000E+00 0.  1.
<mgrwt>
<rscale>  2 0.30227796E+03</rscale>
<asrwt>0</asrwt>
<pdfrwt beam="1">  1       21 0.68401135E-02 0.30236334E+03</pdfrwt>
<pdfrwt beam="2">  1       21 0.43927316E+00 0.30236334E+03</pdfrwt>
<totfact> 0.67042797E+02</totfact>
</mgrwt>
</event>
<event>
12    1  0.1029207E-001  0.1920173E+03  0.7546771E-02  0.1156683E+00
         21   -1    0    0  503  502  0.00000000000E+00  0.00000000000E+00  0.99154261639E+03  0.99154261639E+03  0.00000000000E+00 0.  1.
         21   -1    0    0  501  503 -0.00000000000E+00 -0.00000000000E+00 -0.40336281426E+02  0.40336281426E+02  0.00000000000E+00 0.  1.
          6    2    1    2  501    0  0.82001246006E+02  0.73525196570E+01  0.33097179069E+03  0.38263945615E+03  0.17347150568E+03 0.  0.
         24    2    3    3    0    0  0.91660054438E+02  0.50727031486E+02  0.29926929318E+03  0.32785096096E+03  0.83362734249E+02 0.  0.
         -6    2    1    2    0  502 -0.82001246006E+02 -0.73525196570E+01  0.62023454428E+03  0.64923944167E+03  0.17332829777E+03 0.  0.
        -24    2    5    5    0    0 -0.15147107153E+02  0.56235943500E+02  0.34591342929E+03  0.35977937075E+03  0.79957356480E+02 0.  0.
          5    1    3    3  501    0 -0.96588084316E+01 -0.43374511829E+02  0.31702497506E+02  0.54788495187E+02  0.47000000000E+01 0. -1.
        -13    1    4    4    0    0  0.27696605776E+02 -0.15070842926E+02  0.30583021720E+02  0.43926683184E+02  0.00000000000E+00 0.  1.
         14    1    4    4    0    0  0.63963448663E+02  0.65797874412E+02  0.26868627146E+03  0.28392427778E+03  0.00000000000E+00 0. -1.
         -5    1    5    5    0  502 -0.66854138854E+02 -0.63588463157E+02  0.27432111499E+03  0.28946007092E+03  0.47000000000E+01 0.  1.
         11    1    6    6    0    0 -0.29246128601E+02  0.10588160660E+02  0.42712521071E+02  0.52837530606E+02  0.00000000000E+00 0. -1.
        -12    1    6    6    0    0  0.14099021448E+02  0.45647782840E+02  0.30320090822E+03  0.30694184014E+03  0.00000000000E+00 0.  1.
<mgrwt>
<rscale>  2 0.19198491E+03</rscale>
<asrwt>0</asrwt>
<pdfrwt beam="1">  1       21 0.15254500E+00 0.19201726E+03</pdfrwt>
<pdfrwt beam="2">  1       21 0.62055825E-02 0.19201726E+03</pdfrwt>
<totfact> 0.53236516E+04</totfact>
</mgrwt>
</event>
<event>
12    1  0.1029207E-001  0.1913643E+03  0.7546771E-02  0.1158025E+00
         21   -1    0    0  501  502  0.00000000000E+00  0.00000000000E+00  0.29847818568E+03  0.29847818568E+03  0.00000000000E+00 0. -1.
         21   -1    0    0  502  503 -0.00000000000E+00 -0.00000000000E+00 -0.14124654338E+03  0.14124654338E+03  0.00000000000E+00 0. -1.
         -6    2    1    2    0  503  0.77802026004E+02  0.15946146070E+02  0.16233984894E+03  0.24829225433E+03  0.17025681245E+03 0.  0.
        -24    2    3    3    0    0  0.59594327214E+02  0.64623296688E+02  0.15564991800E+03  0.19568207981E+03  0.79604805596E+02 0.  0.
          6    2    1    2  501    0 -0.77802026004E+02 -0.15946146070E+02 -0.51082066366E+01  0.19143247472E+03  0.17410589817E+03 0.  0.
         24    2    5    5    0    0 -0.62100798186E+02 -0.31162665309E+02 -0.66511689766E+02  0.12608303897E+03  0.81519979122E+02 0.  0.
          5    1    5    5  501    0 -0.15701227818E+02  0.15216519239E+02  0.61403483129E+02  0.65349435752E+02  0.47000000000E+01 0. -1.
        -11    1    6    6    0    0  0.20047489296E+02 -0.58613763201E+01 -0.95538924805E+01  0.22968117488E+02  0.00000000000E+00 0.  1.
         12    1    6    6    0    0 -0.82148287482E+02 -0.25301288989E+02 -0.56957797285E+02  0.10311492148E+03  0.00000000000E+00 0. -1.
         -5    1    3    3    0  503  0.18207698790E+02 -0.48677150618E+02  0.66899309371E+01  0.52610174525E+02  0.47000000000E+01 0.  1.
         13    1    4    4    0    0 -0.17970063897E+02  0.43194524785E+01  0.13517042047E+02  0.22897407973E+02  0.00000000000E+00 0. -1.
        -14    1    4    4    0    0  0.77564391111E+02  0.60303844210E+02  0.14213287595E+03  0.17278467184E+03  0.00000000000E+00 0.  1.
<mgrwt>
<rscale>  2 0.19048447E+03</rscale>
<asrwt>0</asrwt>
<pdfrwt beam="1">  1       21 0.45919721E-01 0.19136431E+03</pdfrwt>
<pdfrwt beam="2">  1       21 0.21730237E-01 0.19136431E+03</pdfrwt>
<totfact> 0.89855224E+04</totfact>
</mgrwt>
</event>
<event>
12    1  0.1029207E-001  0.2094989E+03  0.7546771E-02  0.1142593E+00
         21   -1    0    0  503  502  0.00000000000E+00  0.00000000000E+00  0.66458362573E+02  0.66458362573E+02  0.00000000000E+00 0.  1.
         21   -1    0    0  501  503 -0.00000000000E+00 -0.00000000000E+00 -0.67573634155E+03  0.67573634155E+03  0.00000000000E+00 0. -1.
          6    2    1    2  501    0  0.49311912080E+02  0.10516643065E+03 -0.23075642777E+03  0.30956513305E+03  0.17055908019E+03 0.  0.
         24    2    3    3    0    0  0.51385424769E+02  0.12621399017E+03 -0.23888407570E+03  0.28642538635E+03  0.80021666634E+02 0.  0.
         -6    2    1    2    0  502 -0.49311912080E+02 -0.10516643065E+03 -0.37852155121E+03  0.43262957108E+03  0.17435061867E+03 0.  0.
        -24    2    5    5    0    0 -0.35242602905E+02  0.11613517277E+02 -0.10817391854E+03  0.13776445922E+03  0.76814938192E+02 0.  0.
          5    1    3    3  501    0 -0.20735126887E+01 -0.21047559515E+02  0.81276479303E+01  0.23139746699E+02  0.47000000000E+01 0. -1.
        -11    1    4    4    0    0 -0.14972513607E+02  0.76046634815E+01 -0.82153173456E+01  0.18694879231E+02  0.00000000000E+00 0.  1.
         12    1    4    4    0    0  0.66357938376E+02  0.11860932668E+03 -0.23066875835E+03  0.26773050712E+03  0.00000000000E+00 0. -1.
         -5    1    5    5    0  502 -0.14069309176E+02 -0.11677994793E+03 -0.27034763267E+03  0.29486511186E+03  0.47000000000E+01 0.  1.
         13    1    6    6    0    0 -0.11171610152E+02 -0.28866885270E+02 -0.72024139211E+02  0.78393740615E+02  0.00000000000E+00 0. -1.
        -14    1    6    6    0    0 -0.24070992753E+02  0.40480402546E+02 -0.36149779330E+02  0.59370718608E+02  0.00000000000E+00 0.  1.
<mgrwt>
<rscale>  2 0.20870824E+03</rscale>
<asrwt>0</asrwt>
<pdfrwt beam="1">  1       21 0.10224363E-01 0.20949888E+03</pdfrwt>
<pdfrwt beam="2">  1       21 0.10395944E+00 0.20949888E+03</pdfrwt>
<totfact> 0.57898299E+04</totfact>
</mgrwt>
</event>
<event>
12    1  0.1029207E-001  0.1983030E+03  0.7546771E-02  0.1151396E+00
         21   -1    0    0  503  502  0.00000000000E+00  0.00000000000E+00  0.12573760148E+03  0.12573760148E+03  0.00000000000E+00 0.  1.
         21   -1    0    0  501  503 -0.00000000000E+00 -0.00000000000E+00 -0.47174374048E+03  0.47174374048E+03  0.00000000000E+00 0.  1.
          6    2    1    2  501    0  0.37491636313E+02 -0.90462370377E+02 -0.34701558055E+03  0.39917573798E+03  0.17126702369E+03 0.  0.
         24    2    3    3    0    0 -0.17154297756E+02 -0.10931367352E+03 -0.21805926793E+03  0.25777782320E+03  0.81583164049E+02 0.  0.
         -6    2    1    2    0  502 -0.37491636313E+02  0.90462370377E+02  0.10094415507E+01  0.19830560398E+03  0.17243848279E+03 0.  0.
        -24    2    5    5    0    0 -0.77768590016E+02  0.34090944804E+02  0.37353353403E+02  0.11992869060E+03  0.76009681679E+02 0.  0.
          5    1    3    3  501    0  0.54645934069E+02  0.18851303139E+02 -0.12895631261E+03  0.14139791478E+03  0.47000000000E+01 0. -1.
        -11    1    4    4    0    0 -0.21565463700E+02 -0.32618790097E+02 -0.15042931649E+03  0.15542854934E+03  0.00000000000E+00 0.  1.
         12    1    4    4    0    0  0.44111659443E+01 -0.76694883419E+02 -0.67629951444E+02  0.10234927386E+03  0.00000000000E+00 0. -1.
         -5    1    5    5    0  502  0.40276953703E+02  0.56371425574E+02 -0.36343911853E+02  0.78376913371E+02  0.47000000000E+01 0.  1.
         13    1    6    6    0    0 -0.37409182553E+02 -0.49682232184E+01 -0.17342109869E+02  0.41531662090E+02  0.00000000000E+00 0. -1.
        -14    1    6    6    0    0 -0.40359407463E+02  0.39059168022E+02  0.54695463272E+02  0.78397028515E+02  0.00000000000E+00 0.  1.
<mgrwt>
<rscale>  2 0.19804809E+03</rscale>
<asrwt>0</asrwt>
<pdfrwt beam="1">  1       21 0.19344246E-01 0.19830303E+03</pdfrwt>
<pdfrwt beam="2">  1       21 0.72575961E-01 0.19830303E+03</pdfrwt>
<totfact> 0.41895327E+04</totfact>
</mgrwt>
</event>
<event>
12    1  0.1029207E-001  0.2050284E+03  0.7546771E-02  0.1146371E+00
         21   -1    0    0  501  502  0.00000000000E+00  0.00000000000E+00  0.26977293723E+03  0.26977293723E+03  0.00000000000E+00 0. -1.
         21   -1    0    0  502  503 -0.00000000000E+00 -0.00000000000E+00 -0.15673358132E+03  0.15673358132E+03  0.00000000000E+00 0. -1.
         -6    2    1    2    0  503  0.70123775649E+02  0.83655708612E+02  0.23556769254E+02  0.20637727114E+03  0.17355412750E+03 0.  0.
        -24    2    3    3    0    0 -0.27598105808E+02  0.48874692571E+02 -0.82600301211E+01  0.97778542259E+02  0.79636826975E+02 0.  0.
          6    2    1    2  501    0 -0.70123775649E+02 -0.83655708612E+02  0.89482586655E+02  0.22012924740E+03  0.16892048648E+03 0.  0.
         24    2    5    5    0    0 -0.91223794561E+02 -0.15510494415E+02  0.83914175228E+02  0.14842096182E+03  0.80155080758E+02 0.  0.
          5    1    5    5  501    0  0.21100018913E+02 -0.68145214196E+02  0.55684114275E+01  0.71708285587E+02  0.47000000000E+01 0. -1.
        -13    1    6    6    0    0 -0.72702409852E+02 -0.40574531098E+01  0.12652958698E+02  0.73906702591E+02  0.00000000000E+00 0.  1.
         14    1    6    6    0    0 -0.18521384709E+02 -0.11453041306E+02  0.71261216530E+02  0.74514259226E+02  0.00000000000E+00 0. -1.
         -5    1    3    3    0  503  0.97721881457E+02  0.34781016041E+02  0.31816799375E+02  0.10859872888E+03  0.47000000000E+01 0.  1.
         11    1    4    4    0    0 -0.16643693233E+02  0.69370848038E+02  0.40981645656E+01  0.71457134247E+02  0.00000000000E+00 0. -1.
        -12    1    4    4    0    0 -0.10954412576E+02 -0.20496155467E+02 -0.12358194687E+02  0.26321408012E+02  0.00000000000E+00 0.  1.
<mgrwt>
<rscale>  2 0.20404457E+03</rscale>
<asrwt>0</asrwt>
<pdfrwt beam="1">  1       21 0.41503529E-01 0.20502843E+03</pdfrwt>
<pdfrwt beam="2">  1       21 0.24112859E-01 0.20502843E+03</pdfrwt>
<totfact> 0.90235613E+04</totfact>
</mgrwt>
</event>
<event>
12    1  0.1029207E-001  0.2353535E+03  0.7546771E-02  0.1123095E+00
         21   -1    0    0  503  502  0.00000000000E+00  0.00000000000E+00  0.43143190176E+03  0.43143190176E+03  0.00000000000E+00 0.  1.
         21   -1    0    0  501  503 -0.00000000000E+00 -0.00000000000E+00 -0.16602812064E+03  0.16602812064E+03  0.00000000000E+00 0. -1.
          6    2    1    2  501    0  0.15833509072E+03  0.11706361624E+02 -0.10746995431E+02  0.23462328436E+03  0.17241098515E+03 0.  0.
         24    2    3    3    0    0  0.17347425475E+03  0.43943239378E+02  0.25233648968E+01  0.19632703078E+03  0.80706940824E+02 0.  0.
         -6    2    1    2    0  502 -0.15833509072E+03 -0.11706361624E+02  0.27615077655E+03  0.36283673803E+03  0.17373602741E+03 0.  0.
        -24    2    5    5    0    0 -0.49478648432E+02  0.44373578742E+02  0.18084660074E+03  0.20759608399E+03  0.77288355854E+02 0.  0.
          5    1    3    3  501    0 -0.15139164035E+02 -0.32236877753E+02 -0.13270360328E+02  0.38296253579E+02  0.47000000000E+01 0. -1.
        -13    1    4    4    0    0  0.57545515372E+02  0.52197863299E+02  0.16010296789E+02  0.79324856607E+02  0.00000000000E+00 0.  1.
         14    1    4    4    0    0  0.11592873938E+03 -0.82546239216E+01 -0.13486931892E+02  0.11700217418E+03  0.00000000000E+00 0. -1.
         -5    1    5    5    0  502 -0.10885644228E+03 -0.56079940366E+02  0.95304175818E+02  0.15524065404E+03  0.47000000000E+01 0.  1.
         11    1    6    6    0    0  0.64652909031E+01  0.85499634899E+01 -0.37922688400E+01  0.11370275507E+02  0.00000000000E+00 0. -1.
        -12    1    6    6    0    0 -0.55943939335E+02  0.35823615252E+02  0.18463886958E+03  0.19622580849E+03  0.00000000000E+00 0.  1.
<mgrwt>
<rscale>  2 0.23510896E+03</rscale>
<asrwt>0</asrwt>
<pdfrwt beam="1">  1       21 0.66374138E-01 0.23535345E+03</pdfrwt>
<pdfrwt beam="2">  1       21 0.25542788E-01 0.23535345E+03</pdfrwt>
<totfact> 0.29604049E+04</totfact>
</mgrwt>
</event>
<event>
12    1  0.1029207E-001  0.2184328E+03  0.7546771E-02  0.1135528E+00
         21   -1    0    0  503  502  0.00000000000E+00  0.00000000000E+00  0.27394176547E+03  0.27394176547E+03  0.00000000000E+00 0. -1.
         21   -1    0    0  501  503 -0.00000000000E+00 -0.00000000000E+00 -0.17479499266E+03  0.17479499266E+03  0.00000000000E+00 0.  1.
          6    2    1    2  501    0  0.28397418189E+02  0.12655260747E+03  0.77225127691E+02  0.23168213668E+03  0.17575811871E+03 0.  0.
         24    2    3    3    0    0 -0.28745349445E+02  0.10701779966E+02  0.49302661426E+02  0.99438179359E+02  0.80724072502E+02 0.  0.
         -6    2    1    2    0  502 -0.28397418189E+02 -0.12655260747E+03  0.21921645119E+02  0.21705462145E+03  0.17265623172E+03 0.  0.
        -24    2    5    5    0    0  0.89453458359E+01 -0.38752566748E+02  0.67769506856E+02  0.11109498007E+03  0.78534119307E+02 0.  0.
          5    1    3    3  501    0  0.57142767634E+02  0.11585082750E+03  0.27922466265E+02  0.13224395732E+03  0.47000000000E+01 0. -1.
        -13    1    4    4    0    0 -0.36941559700E+02  0.32167708437E+01 -0.10559594462E+02  0.38555563580E+02  0.00000000000E+00 0.  1.
         14    1    4    4    0    0  0.81962102550E+01  0.74850091224E+01  0.59862255888E+02  0.60882615779E+02  0.00000000000E+00 0. -1.
         -5    1    5    5    0  502 -0.37342764025E+02 -0.87800040723E+02 -0.45847861737E+02  0.10595964138E+03  0.47000000000E+01 0.  1.
         11    1    6    6    0    0 -0.17845460853E+02 -0.26000897017E+02  0.74298711637E+02  0.80714346121E+02  0.00000000000E+00 0. -1.
        -12    1    6    6    0    0  0.26790806689E+02 -0.12751669732E+02 -0.65292047814E+01  0.30380633948E+02  0.00000000000E+00 0.  1.
<mgrwt>
<rscale>  2 0.21780813E+03</rscale>
<asrwt>0</asrwt>
<pdfrwt beam="1">  1       21 0.42144887E-01 0.21843281E+03</pdfrwt>
<pdfrwt beam="2">  1       21 0.26891537E-01 0.21843281E+03</pdfrwt>
<totfact> 0.70567146E+04</totfact>
</mgrwt>
</event>
<event>
12    1  0.1029207E-001  0.1997796E+03  0.7546771E-02  0.1150310E+00
         21   -1    0    0  501  502  0.00000000000E+00  0.00000000000E+00  0.22741613316E+03  0.22741613316E+03  0.00000000000E+00 0. -1.
         21   -1    0    0  502  503 -0.00000000000E+00 -0.00000000000E+00 -0.21856223446E+03  0.21856223446E+03  0.00000000000E+00 0. -1.
         -6    2    1    2    0  503  0.49559766560E+02 -0.83553265010E+02  0.10522998274E+03  0.22579910061E+03  0.17456965949E+03 0.  0.
        -24    2    3    3    0    0  0.12232858766E+02 -0.11321576984E+03  0.40091091561E+02  0.14493917616E+03  0.80203589637E+02 0.  0.
          6    2    1    2  501    0 -0.49559766560E+02  0.83553265010E+02 -0.96376084050E+02  0.22017926701E+03  0.17249127945E+03 0.  0.
         24    2    5    5    0    0 -0.59977751385E+02 -0.72605213178E+01 -0.76618773772E+02  0.12654102960E+03  0.80573878192E+02 0.  0.
          5    1    5    5  501    0  0.10417984825E+02  0.90813786328E+02 -0.19757310279E+02  0.93638237406E+02  0.47000000000E+01 0. -1.
        -11    1    6    6    0    0 -0.68667741167E+01  0.20302533673E+01  0.17033249954E+02  0.18477178342E+02  0.00000000000E+00 0.  1.
         12    1    6    6    0    0 -0.53110977269E+02 -0.92907746851E+01 -0.93652023725E+02  0.10806385126E+03  0.00000000000E+00 0. -1.
         -5    1    3    3    0  503  0.37326907794E+02  0.29662504828E+02  0.65138891180E+02  0.80859924452E+02  0.47000000000E+01 0.  1.
         13    1    4    4    0    0 -0.51378607777E+01 -0.74584727648E+02  0.62115174347E+02  0.97198632171E+02  0.00000000000E+00 0. -1.
        -14    1    4    4    0    0  0.17370719544E+02 -0.38631042190E+02 -0.22024082786E+02  0.47740543992E+02  0.00000000000E+00 0.  1.
<mgrwt>
<rscale>  2 0.19932466E+03</rscale>
<asrwt>0</asrwt>
<pdfrwt beam="1">  1       21 0.34987097E-01 0.19977959E+03</pdfrwt>
<pdfrwt beam="2">  1       21 0.33624959E-01 0.19977959E+03</pdfrwt>
<totfact> 0.66875561E+04</totfact>
</mgrwt>
</event>
<event>
12    1  0.1029207E-001  0.1819005E+03  0.7546771E-02  0.1166179E+00
         21   -1    0    0  503  502  0.00000000000E+00  0.00000000000E+00  0.10898924514E+04  0.10898924514E+04  0.00000000000E+00 0.  1.
         21   -1    0    0  501  503 -0.00000000000E+00 -0.00000000000E+00 -0.34054761364E+02  0.34054761364E+02  0.00000000000E+00 0. -1.
          6    2    1    2  501    0 -0.44966375484E+02 -0.90735089337E+01  0.33818047097E+03  0.38359617132E+03  0.17514476361E+03 0.  0.
         24    2    3    3    0    0  0.30578146189E+02 -0.19020432863E+02  0.25891604580E+03  0.27354684080E+03  0.80582600164E+02 0.  0.
         -6    2    1    2    0  502  0.44966375484E+02  0.90735089337E+01  0.71765721911E+03  0.74035104149E+03  0.17602124019E+03 0.  0.
        -24    2    5    5    0    0  0.55107671571E+02 -0.21864031381E+02  0.20406966329E+03  0.22571112389E+03  0.76067027277E+02 0.  0.
          5    1    3    3  501    0 -0.75544521674E+02  0.99469239289E+01  0.79264425170E+02  0.11004933052E+03  0.47000000000E+01 0. -1.
        -11    1    4    4    0    0  0.24422756704E+02  0.23118244064E+02  0.18673963605E+03  0.18974355305E+03  0.00000000000E+00 0.  1.
         12    1    4    4    0    0  0.61553894854E+01 -0.42138676927E+02  0.72176409750E+02  0.83803287747E+02  0.00000000000E+00 0. -1.
         -5    1    5    5    0  502 -0.10141296086E+02  0.30937540315E+02  0.51358755582E+03  0.51463991760E+03  0.47000000000E+01 0.  1.
         11    1    6    6    0    0  0.10892161974E+01 -0.64968353839E+01 -0.56024369410E+01  0.86476911142E+01  0.00000000000E+00 0. -1.
        -12    1    6    6    0    0  0.54018455374E+02 -0.15367195997E+02  0.20967210023E+03  0.21706343277E+03  0.00000000000E+00 0.  1.
<mgrwt>
<rscale>  2 0.18168809E+03</rscale>
<asrwt>0</asrwt>
<pdfrwt beam="1">  1       21 0.16767574E+00 0.18190047E+03</pdfrwt>
<pdfrwt beam="2">  1       21 0.52391949E-02 0.18190047E+03</pdfrwt>
<totfact> 0.55405897E+04</totfact>
</mgrwt>
</event>
<event>
12    1  0.1029207E-001  0.1761326E+03  0.7546771E-02  0.1171636E+00
         21   -1    0    0  503  502  0.00000000000E+00  0.00000000000E+00  0.84794740902E+03  0.84794740902E+03  0.00000000000E+00 0. -1.
         21   -1    0    0  501  503 -0.00000000000E+00 -0.00000000000E+00 -0.63633610206E+02  0.63633610206E+02  0.00000000000E+00 0. -1.
          6    2    1    2  501    0  0.20901111902E+02 -0.25817099142E+02  0.94732847574E+02  0.19986155342E+03  0.17282056892E+03 0.  0.
         24    2    3    3    0    0 -0.40728613864E+02  0.21037322668E+02  0.77336521379E+02  0.12037393108E+03  0.80047216141E+02 0.  0.
         -6    2    1    2    0  502 -0.20901111902E+02  0.25817099142E+02  0.68958095124E+03  0.71171946580E+03  0.17297205150E+03 0.  0.
        -24    2    5    5    0    0 -0.75795246132E+02  0.12276685078E+02  0.37419195451E+03  0.39126819331E+03  0.84708582445E+02 0.  0.
          5    1    3    3  501    0  0.61629725766E+02 -0.46854421810E+02  0.17396326195E+02  0.79487622346E+02  0.47000000000E+01 0. -1.
        -11    1    4    4    0    0 -0.20596290678E+02  0.24498899915E+02 -0.76989340629E+01  0.32919247750E+02  0.00000000000E+00 0.  1.
         12    1    4    4    0    0 -0.20132323186E+02 -0.34615772468E+01  0.85035455441E+02  0.87454683328E+02  0.00000000000E+00 0. -1.
         -5    1    5    5    0  502  0.54894134230E+02  0.13540414064E+02  0.31538899673E+03  0.32045127249E+03  0.47000000000E+01 0.  1.
         11    1    6    6    0    0 -0.23801476402E+02  0.27061236459E+02  0.28279992333E+03  0.28508703484E+03  0.00000000000E+00 0. -1.
        -12    1    6    6    0    0 -0.51993769730E+02 -0.14784551380E+02  0.91392031183E+02  0.10618115847E+03  0.00000000000E+00 0.  1.
<mgrwt>
<rscale>  2 0.17609545E+03</rscale>
<asrwt>0</asrwt>
<pdfrwt beam="1">  1       21 0.13045344E+00 0.17613265E+03</pdfrwt>
<pdfrwt beam="2">  1       21 0.97897868E-02 0.17613265E+03</pdfrwt>
<totfact> 0.36443207E+04</totfact>
</mgrwt>
</event>
<event>
12    1  0.1029207E-001  0.2245128E+03  0.7546771E-02  0.1132636E+00
         21   -1    0    0  503  502  0.00000000000E+00  0.00000000000E+00  0.16016270466E+04  0.16016270466E+04  0.00000000000E+00 0.  1.
         21   -1    0    0  501  503 -0.00000000000E+00 -0.00000000000E+00 -0.30944132234E+02  0.30944132234E+02  0.00000000000E+00 0.  1.
          6    2    1    2  501    0  0.41796130865E+02  0.11233178432E+03  0.95215950511E+03  0.97827079100E+03  0.18984380689E+03 0.  0.
         24    2    3    3    0    0  0.55097668501E+02  0.11985988099E+03  0.44259963483E+03  0.46846008638E+03  0.78474655978E+02 0.  0.
         -6    2    1    2    0  502 -0.41796130865E+02 -0.11233178432E+03  0.61852340928E+03  0.65430038786E+03  0.17655719586E+03 0.  0.
        -24    2    5    5    0    0  0.17618231998E+02 -0.12667278381E+03  0.44881242441E+03  0.47385749062E+03  0.82170145750E+02 0.  0.
          5    1    3    3  501    0 -0.13301537636E+02 -0.75280966701E+01  0.50955987028E+03  0.50981070462E+03  0.47000000000E+01 0. -1.
        -13    1    4    4    0    0  0.43408448966E+02  0.29553396638E+02  0.24950372657E+03  0.25497020663E+03  0.00000000000E+00 0.  1.
         14    1    4    4    0    0  0.11689219535E+02  0.90306484348E+02  0.19309590826E+03  0.21348987975E+03  0.00000000000E+00 0. -1.
         -5    1    5    5    0  502 -0.59414362863E+02  0.14340999499E+02  0.16971098486E+03  0.18044289724E+03  0.47000000000E+01 0.  1.
         13    1    6    6    0    0  0.31580557079E+02 -0.26061624845E+02  0.64915903872E+02  0.76750338439E+02  0.00000000000E+00 0. -1.
        -14    1    6    6    0    0 -0.13962325081E+02 -0.10061115897E+03  0.38389652054E+03  0.39710715218E+03  0.00000000000E+00 0.  1.
<mgrwt>
<rscale>  2 0.22168045E+03</rscale>
<asrwt>0</asrwt>
<pdfrwt beam="1">  1       21 0.24640410E+00 0.22451284E+03</pdfrwt>
<pdfrwt beam="2">  1       21 0.47606370E-02 0.22451284E+03</pdfrwt>
<totfact> 0.19879262E+04</totfact>
</mgrwt>
</event>
<event>
12    1  0.1029207E-001  0.2004610E+03  0.7546771E-02  0.1150455E+00
         21   -1    0    0  503  502  0.00000000000E+00  0.00000000000E+00  0.92893240873E+02  0.92893240873E+02  0.00000000000E+00 0. -1.
         21   -1    0    0  501  503 -0.00000000000E+00 -0.00000000000E+00 -0.57626786565E+03  0.57626786565E+03  0.00000000000E+00 0. -1.
          6    2    1    2  501    0  0.33373972226E+02  0.84688719018E+02 -0.41276387601E+03  0.45662757631E+03  0.17276783542E+03 0.  0.
         24    2    3    3    0    0  0.33171668811E+01  0.11336493480E+03 -0.22670100212E+03  0.26592566247E+03  0.80377245316E+02 0.  0.
         -6    2    1    2    0  502 -0.33373972226E+02 -0.84688719018E+02 -0.70610748768E+02  0.21253353021E+03  0.17860185462E+03 0.  0.
        -24    2    5    5    0    0 -0.20493458091E+02 -0.13445528626E+02 -0.10325331239E+03  0.13297772099E+03  0.80131539944E+02 0.  0.
          5    1    3    3  501    0  0.30056805345E+02 -0.28676215779E+02 -0.18606287389E+03  0.19070191384E+03  0.47000000000E+01 0. -1.
        -13    1    4    4    0    0  0.16425497372E+02  0.79296062266E+01 -0.32848534726E+01  0.18532832519E+02  0.00000000000E+00 0.  1.
         14    1    4    4    0    0 -0.13108330491E+02  0.10543532857E+03 -0.22341614864E+03  0.24739282996E+03  0.00000000000E+00 0. -1.
         -5    1    5    5    0  502 -0.12880514135E+02 -0.71243190392E+02  0.32642563626E+02  0.79555809227E+02  0.47000000000E+01 0.  1.
         11    1    6    6    0    0 -0.33482474626E+02 -0.10508955184E+02 -0.69707086739E+01  0.35778555386E+02  0.00000000000E+00 0. -1.
        -12    1    6    6    0    0  0.12989016535E+02 -0.29365734418E+01 -0.96282603721E+02  0.97199165600E+02  0.00000000000E+00 0.  1.
<mgrwt>
<rscale>  2 0.19915332E+03</rscale>
<asrwt>0</asrwt>
<pdfrwt beam="1">  1       21 0.14291268E-01 0.20046103E+03</pdfrwt>
<pdfrwt beam="2">  1       21 0.88656595E-01 0.20046103E+03</pdfrwt>
<totfact> 0.46406769E+04</totfact>
</mgrwt>
</event>
<event>
12    1  0.1029207E-001  0.2093381E+03  0.7546771E-02  0.1142442E+00
         21   -1    0    0  501  502  0.00000000000E+00  0.00000000000E+00  0.10737530289E+03  0.10737530289E+03  0.00000000000E+00 0.  1.
         21   -1    0    0  502  503 -0.00000000000E+00 -0.00000000000E+00 -0.44933445500E+03  0.44933445500E+03  0.00000000000E+00 0.  1.
         -6    2    1    2    0  503  0.10891694329E+03 -0.41508405284E+02 -0.25935694445E+03  0.33329939038E+03  0.17388677567E+03 0.  0.
        -24    2    3    3    0    0  0.95986973294E+02  0.29296732089E+02 -0.20882588856E+03  0.24523106911E+03  0.80363100799E+02 0.  0.
          6    2    1    2  501    0 -0.10891694329E+03  0.41508405284E+02 -0.82602207659E+02  0.22341036751E+03  0.17176501203E+03 0.  0.
         24    2    5    5    0    0 -0.11170274560E+03  0.71066215457E+02 -0.23068068528E+02  0.15671832482E+03  0.80626219015E+02 0.  0.
          5    1    5    5  501    0  0.27858023180E+01 -0.29557810173E+02 -0.59534139130E+02  0.66692042695E+02  0.47000000000E+01 0. -1.
        -11    1    6    6    0    0 -0.59693583710E+02  0.78115584708E+02 -0.32186735968E+02  0.10344735126E+03  0.00000000000E+00 0.  1.
         12    1    6    6    0    0 -0.52009161894E+02 -0.70493692506E+01  0.91186674403E+01  0.53270973556E+02  0.00000000000E+00 0. -1.
         -5    1    3    3    0  503  0.12929969992E+02 -0.70805137373E+02 -0.50531055883E+02  0.88068321269E+02  0.47000000000E+01 0.  1.
         11    1    4    4    0    0  0.62413185059E+02  0.22028563797E+02 -0.50582744227E+02  0.83302324732E+02  0.00000000000E+00 0. -1.
        -12    1    4    4    0    0  0.33573788234E+02  0.72681682927E+01 -0.15824314434E+03  0.16192874438E+03  0.00000000000E+00 0.  1.
<mgrwt>
<rscale>  2 0.20889698E+03</rscale>
<asrwt>0</asrwt>
<pdfrwt beam="1">  1       21 0.16519277E-01 0.20933815E+03</pdfrwt>
<pdfrwt beam="2">  1       21 0.69128377E-01 0.20933815E+03</pdfrwt>
<totfact> 0.62154872E+04</totfact>
</mgrwt>
</event>
<event>
12    1  0.1029207E-001  0.2055199E+03  0.7546771E-02  0.1145558E+00
         21   -1    0    0  503  502  0.00000000000E+00  0.00000000000E+00  0.15027254206E+04  0.15027254206E+04  0.00000000000E+00 0. -1.
         21   -1    0    0  501  503 -0.00000000000E+00 -0.00000000000E+00 -0.30287025075E+02  0.30287025075E+02  0.00000000000E+00 0.  1.
          6    2    1    2  501    0  0.34299888545E+01 -0.10563521136E+03  0.52174591608E+03  0.56076485639E+03  0.17626077418E+03 0.  0.
         24    2    3    3    0    0 -0.71022953464E+01 -0.14840823331E+02  0.92125710241E+02  0.12150393032E+03  0.77494296303E+02 0.  0.
         -6    2    1    2    0  502 -0.34299888545E+01  0.10563521136E+03  0.95069247942E+03  0.97224758926E+03  0.17400753342E+03 0.  0.
        -24    2    5    5    0    0 -0.37550007323E+02 -0.30944132915E+01  0.46816254013E+03  0.47642147130E+03  0.79885392223E+02 0.  0.
          5    1    3    3  501    0  0.10532284201E+02 -0.90794388032E+02  0.42962020584E+03  0.43926092607E+03  0.47000000000E+01 0. -1.
        -13    1    4    4    0    0  0.16363637639E+02 -0.28394256887E+02  0.88730339316E+01  0.33951924719E+02  0.00000000000E+00 0.  1.
         14    1    4    4    0    0 -0.23465932986E+02  0.13553433556E+02  0.83252676310E+02  0.87552005601E+02  0.00000000000E+00 0. -1.
         -5    1    5    5    0  502  0.34120018468E+02  0.10872962466E+03  0.48252993929E+03  0.49582611796E+03  0.47000000000E+01 0.  1.
         13    1    6    6    0    0 -0.12373062656E+02  0.31761374498E+02  0.32916937648E+03  0.33092953329E+03  0.00000000000E+00 0. -1.
        -14    1    6    6    0    0 -0.25176944666E+02 -0.34855787789E+02  0.13899316365E+03  0.14549193802E+03  0.00000000000E+00 0.  1.
<mgrwt>
<rscale>  2 0.20503589E+03</rscale>
<asrwt>0</asrwt>
<pdfrwt beam="1">  1       21 0.23118847E+00 0.20551989E+03</pdfrwt>
<pdfrwt beam="2">  1       21 0.46595435E-02 0.20551989E+03</pdfrwt>
<totfact> 0.25809202E+04</totfact>
</mgrwt>
</event>
<event>
12    1  0.1029207E-001  0.2746385E+03  0.7546771E-02  0.1098735E+00
         21   -1    0    0  503  502  0.00000000000E+00  0.00000000000E+00  0.65885273826E+03  0.65885273826E+03  0.00000000000E+00 0. -1.
         21   -1    0    0  501  503 -0.00000000000E+00 -0.00000000000E+00 -0.18258706281E+03  0.18258706281E+03  0.00000000000E+00 0. -1.
          6    2    1    2  501    0  0.17088001323E+03 -0.12723234913E+03 -0.19431857116E+02  0.27474558960E+03  0.17239342314E+03 0.  0.
         24    2    3    3    0    0  0.49644214788E+02 -0.22132995231E+01  0.20820068035E+02  0.95943494899E+02  0.79386599774E+02 0.  0.
         -6    2    1    2    0  502 -0.17088001323E+03  0.12723234913E+03  0.49569753257E+03  0.56669421147E+03  0.17331542323E+03 0.  0.
        -24    2    5    5    0    0 -0.10576889006E+03  0.46716184221E+01  0.28191247277E+03  0.31176925610E+03  0.80725117703E+02 0.  0.
          5    1    3    3  501    0  0.12123579845E+03 -0.12501904961E+03 -0.40251925151E+02  0.17880209470E+03  0.47000000000E+01 0. -1.
        -11    1    4    4    0    0  0.31730530383E+02 -0.37096584227E+02  0.27704763062E+02  0.56129644717E+02  0.00000000000E+00 0.  1.
         12    1    4    4    0    0  0.17913684405E+02  0.34883284704E+02 -0.68846950272E+01  0.39813850182E+02  0.00000000000E+00 0. -1.
         -5    1    5    5    0  502 -0.65111123176E+02  0.12256073071E+03  0.21378505980E+03  0.25492495537E+03  0.47000000000E+01 0.  1.
         13    1    6    6    0    0 -0.58305010741E+02 -0.29988941077E+02  0.92014554720E+02  0.11298446417E+03  0.00000000000E+00 0. -1.
        -14    1    6    6    0    0 -0.47463879317E+02  0.34660559499E+02  0.18989791805E+03  0.19878479193E+03  0.00000000000E+00 0.  1.
<mgrwt>
<rscale>  2 0.27449312E+03</rscale>
<asrwt>0</asrwt>
<pdfrwt beam="1">  1       21 0.10136196E+00 0.27463846E+03</pdfrwt>
<pdfrwt beam="2">  1       21 0.28090318E-01 0.27463846E+03</pdfrwt>
<totfact> 0.91511515E+03</totfact>
</mgrwt>
</event>
<event>
12    1  0.1029207E-001  0.1751964E+03  0.7546771E-02  0.1173151E+00
         21   -1    0    0  503  502  0.00000000000E+00  0.00000000000E+00  0.69618926558E+02  0.69618926558E+02  0.00000000000E+00 0.  1.
         21   -1    0    0  501  503 -0.00000000000E+00 -0.00000000000E+00 -0.44242898350E+03  0.44242898350E+03  0.00000000000E+00 0.  1.
          6    2    1    2  501    0 -0.33069079206E+02  0.68628625117E+01 -0.21881642225E+03  0.27879305478E+03  0.16942336871E+03 0.  0.
         24    2    3    3    0    0 -0.61471606560E+02  0.13677892400E+02 -0.22635472693E+03  0.24826332780E+03  0.80202084584E+02 0.  0.
         -6    2    1    2    0  502  0.33069079206E+02 -0.68628625117E+01 -0.15399363468E+03  0.23325485527E+03  0.17191022396E+03 0.  0.
        -24    2    5    5    0    0 -0.37726580634E+02  0.28411173358E+00 -0.39908292950E+02  0.98716162355E+02  0.82029465792E+02 0.  0.
          5    1    3    3  501    0  0.28402527354E+02 -0.68150298884E+01  0.75383046755E+01  0.30529726986E+02  0.47000000000E+01 0. -1.
        -13    1    4    4    0    0 -0.42265807919E+02  0.41415128331E+02 -0.18843468404E+03  0.19750757333E+03  0.00000000000E+00 0.  1.
         14    1    4    4    0    0 -0.19205798642E+02 -0.27737235931E+02 -0.37920042886E+02  0.50755754462E+02  0.00000000000E+00 0. -1.
         -5    1    5    5    0  502  0.70795659840E+02 -0.71469742453E+01 -0.11408534173E+03  0.13453869292E+03  0.47000000000E+01 0.  1.
         13    1    6    6    0    0 -0.23239458608E+02  0.32123696356E+02  0.69377218778E+01  0.40250916621E+02  0.00000000000E+00 0. -1.
        -14    1    6    6    0    0 -0.14487122026E+02 -0.31839584622E+02 -0.46846014828E+02  0.58465245734E+02  0.00000000000E+00 0.  1.
<mgrwt>
<rscale>  2 0.17458333E+03</rscale>
<asrwt>0</asrwt>
<pdfrwt beam="1">  1       21 0.10710604E-01 0.17519643E+03</pdfrwt>
<pdfrwt beam="2">  1       21 0.68066000E-01 0.17519643E+03</pdfrwt>
<totfact> 0.14246120E+05</totfact>
</mgrwt>
</event>
<event>
12    1  0.1029207E-001  0.1878137E+03  0.7546771E-02  0.1160648E+00
         21   -1    0    0  501  502  0.00000000000E+00  0.00000000000E+00  0.66025562680E+03  0.66025562680E+03  0.00000000000E+00 0. -1.
         21   -1    0    0  502  503 -0.00000000000E+00 -0.00000000000E+00 -0.55100610934E+02  0.55100610934E+02  0.00000000000E+00 0. -1.
         -6    2    1    2    0  503  0.72573123825E+02  0.31061893561E+01  0.37008329421E+03  0.41501279944E+03  0.17319778385E+03 0.  0.
        -24    2    3    3    0    0  0.12402365021E+02  0.43224163252E+02  0.10147370502E+03  0.13679854127E+03  0.79967375448E+02 0.  0.
          6    2    1    2  501    0 -0.72573123825E+02 -0.31061893561E+01  0.23507172166E+03  0.30034343829E+03  0.17225260489E+03 0.  0.
         24    2    5    5    0    0 -0.77471755641E+02 -0.48895485872E+02  0.10042376308E+03  0.15796078831E+03  0.80461400626E+02 0.  0.
          5    1    5    5  501    0  0.48986318161E+01  0.45789296516E+02  0.13464795857E+03  0.14238264998E+03  0.47000000000E+01 0. -1.
        -13    1    6    6    0    0 -0.16041933130E+00  0.10042888782E+02 -0.76285259344E+01  0.12612682402E+02  0.00000000000E+00 0.  1.
         14    1    6    6    0    0 -0.77311336310E+02 -0.58938374653E+02  0.10805228902E+03  0.14534810591E+03  0.00000000000E+00 0. -1.
         -5    1    3    3    0  503  0.60170758803E+02 -0.40117973896E+02  0.26860958919E+03  0.27821425817E+03  0.47000000000E+01 0.  1.
         11    1    4    4    0    0  0.41686840466E+02  0.95949747907E+01  0.28915889267E+02  0.51633175976E+02  0.00000000000E+00 0. -1.
        -12    1    4    4    0    0 -0.29284475445E+02  0.33629188461E+02  0.72557815756E+02  0.85165365296E+02  0.00000000000E+00 0.  1.
<mgrwt>
<rscale>  2 0.18759549E+03</rscale>
<asrwt>0</asrwt>
<pdfrwt beam="1">  1       21 0.10157778E+00 0.18781368E+03</pdfrwt>
<pdfrwt beam="2">  1       21 0.84770175E-02 0.18781368E+03</pdfrwt>
<totfact> 0.85973409E+04</totfact>
</mgrwt>
</event>
<event>
12    1  0.1029207E-001  0.1823460E+03  0.7546771E-02  0.1169060E+00
         21   -1    0    0  501  502  0.00000000000E+00  0.00000000000E+00  0.25787956066E+03  0.25787956066E+03  0.00000000000E+00 0.  1.
         21   -1    0    0  502  503 -0.00000000000E+00 -0.00000000000E+00 -0.37043446798E+03  0.37043446798E+03  0.00000000000E+00 0.  1.
         -6    2    1    2    0  503  0.37975271730E+02  0.91398467667E+01 -0.31423073076E+03  0.35642580116E+03  0.16362378041E+03 0.  0.
        -24    2    3    3    0    0  0.61835852277E+02 -0.43229904007E+02 -0.20556676711E+03  0.23337351513E+03  0.80703188276E+02 0.  0.
          6    2    1    2  501    0 -0.37975271730E+02 -0.91398467667E+01  0.20167582344E+03  0.27188822748E+03  0.17811348186E+03 0.  0.
         24    2    5    5    0    0 -0.12392279986E+02 -0.56446643507E+02  0.52382170967E+02  0.11313336250E+03  0.81947993934E+02 0.  0.
          5    1    5    5  501    0 -0.25582991744E+02  0.47306796741E+02  0.14929365247E+03  0.15875486497E+03  0.47000000000E+01 0. -1.
        -11    1    6    6    0    0 -0.24062150709E+02 -0.20703232888E+02  0.65924567240E+02  0.73168705841E+02  0.00000000000E+00 0.  1.
         12    1    6    6    0    0  0.11669870723E+02 -0.35743410619E+02 -0.13542396272E+02  0.39964656663E+02  0.00000000000E+00 0. -1.
         -5    1    3    3    0  503 -0.23860580546E+02  0.52369750774E+02 -0.10866396366E+03  0.12305228603E+03  0.47000000000E+01 0.  1.
         13    1    4    4    0    0  0.21596752872E+02 -0.12867264733E+01 -0.20645526385E+01  0.21733333321E+02  0.00000000000E+00 0. -1.
        -14    1    4    4    0    0  0.40239099405E+02 -0.41943177534E+02 -0.20350221447E+03  0.21164018181E+03  0.00000000000E+00 0.  1.
<mgrwt>
<rscale>  2 0.17870736E+03</rscale>
<asrwt>0</asrwt>
<pdfrwt beam="1">  1       21 0.39673779E-01 0.18234602E+03</pdfrwt>
<pdfrwt beam="2">  1       21 0.56989918E-01 0.18234602E+03</pdfrwt>
<totfact> 0.17826159E+04</totfact>
</mgrwt>
</event>
<event>
12    1  0.1029207E-001  0.1848926E+03  0.7546771E-02  0.1164029E+00
         21   -1    0    0  503  502  0.00000000000E+00  0.00000000000E+00  0.84519228851E+03  0.84519228851E+03  0.00000000000E+00 0. -1.
         21   -1    0    0  501  503 -0.00000000000E+00 -0.00000000000E+00 -0.39689505499E+02  0.39689505499E+02  0.00000000000E+00 0. -1.
          6    2    1    2  501    0 -0.51204696289E+02  0.28415252879E+02  0.39070116770E+03  0.43224147408E+03  0.17537372082E+03 0.  0.
         24    2    3    3    0    0 -0.54676531495E+02 -0.41488336160E+02  0.29482672120E+03  0.31344515725E+03  0.81328137428E+02 0.  0.
         -6    2    1    2    0  502  0.51204696289E+02 -0.28415252879E+02  0.41480161531E+03  0.45264031993E+03  0.17144541884E+03 0.  0.
        -24    2    5    5    0    0  0.37209837028E+02  0.45977301807E+02  0.18698078165E+03  0.21252674154E+03  0.81898222865E+02 0.  0.
          5    1    3    3  501    0  0.34718352056E+01  0.69903589039E+02  0.95874446494E+02  0.11879631682E+03  0.47000000000E+01 0. -1.
        -11    1    4    4    0    0  0.76080136714E+01  0.17028075413E+02  0.82143446765E+02  0.84234096842E+02  0.00000000000E+00 0.  1.
         12    1    4    4    0    0 -0.62284545166E+02 -0.58516411573E+02  0.21268327444E+03  0.22921106041E+03  0.00000000000E+00 0. -1.
         -5    1    5    5    0  502  0.13994859261E+02 -0.74392554686E+02  0.22782083366E+03  0.24011357839E+03  0.47000000000E+01 0.  1.
         11    1    6    6    0    0  0.33849795221E+02 -0.14010416419E+02  0.10257682688E+03  0.10892247618E+03  0.00000000000E+00 0. -1.
        -12    1    6    6    0    0  0.33600418070E+01  0.59987718226E+02  0.84403954774E+02  0.10360426536E+03  0.00000000000E+00 0.  1.
<mgrwt>
<rscale>  2 0.18395509E+03</rscale>
<asrwt>0</asrwt>
<pdfrwt beam="1">  1       21 0.13002957E+00 0.18489264E+03</pdfrwt>
<pdfrwt beam="2">  1       21 0.61060784E-02 0.18489264E+03</pdfrwt>
<totfact> 0.82963518E+04</totfact>
</mgrwt>
</event>
<event>
12    1  0.1029207E-001  0.1750433E+03  0.7546771E-02  0.1173076E+00
         21   -1    0    0  503  502  0.00000000000E+00  0.00000000000E+00  0.37632469585E+02  0.37632469585E+02  0.00000000000E+00 0.  1.
         21   -1    0    0  501  503 -0.00000000000E+00 -0.00000000000E+00 -0.80774025816E+03  0.80774025816E+03  0.00000000000E+00 0.  1.
          6    2    1    2  501    0  0.21343971543E+02 -0.59739182806E+01 -0.37102174486E+03  0.40958629622E+03  0.17208296274E+03 0.  0.
         24    2    3    3    0    0  0.76576334250E+02 -0.26835459897E+02 -0.22988887180E+03  0.25652945818E+03  0.79839793740E+02 0.  0.
         -6    2    1    2    0  502 -0.21343971543E+02  0.59739182806E+01 -0.39908604371E+03  0.43578643152E+03  0.17363435950E+03 0.  0.
        -24    2    5    5    0    0  0.18370705971E+02 -0.53167562160E+02 -0.27398522313E+03  0.29174728536E+03  0.82971703110E+02 0.  0.
          5    1    3    3  501    0 -0.55232362707E+02  0.20861541616E+02 -0.14113287307E+03  0.15305683803E+03  0.47000000000E+01 0. -1.
        -13    1    4    4    0    0  0.67887734772E+01 -0.19215280182E+02 -0.14476128537E+03  0.14618872795E+03  0.00000000000E+00 0.  1.
         14    1    4    4    0    0  0.69787560773E+02 -0.76201797146E+01 -0.85127586430E+02  0.11034073024E+03  0.00000000000E+00 0. -1.
         -5    1    5    5    0  502 -0.39714677514E+02  0.59141480440E+02 -0.12510082058E+03  0.14403914617E+03  0.47000000000E+01 0.  1.
         13    1    6    6    0    0 -0.18672562945E+02 -0.82503042144E+01 -0.18024873639E+03  0.18140104492E+03  0.00000000000E+00 0. -1.
        -14    1    6    6    0    0  0.37043268916E+02 -0.44917257945E+02 -0.93736486735E+02  0.11034624044E+03  0.00000000000E+00 0.  1.
<mgrwt>
<rscale>  2 0.17465729E+03</rscale>
<asrwt>0</asrwt>
<pdfrwt beam="1">  1       21 0.57896118E-02 0.17504326E+03</pdfrwt>
<pdfrwt beam="2">  1       21 0.12426771E+00 0.17504326E+03</pdfrwt>
<totfact> 0.10224773E+05</totfact>
</mgrwt>
</event>
<event>
12    1  0.1029207E-001  0.2538737E+03  0.7546771E-02  0.1111728E+00
         21   -1    0    0  501  502  0.00000000000E+00  0.00000000000E+00  0.19038256080E+04  0.19038256080E+04  0.00000000000E+00 0.  1.
         21   -1    0    0  502  503 -0.00000000000E+00 -0.00000000000E+00 -0.61676060046E+02  0.61676060046E+02  0.00000000000E+00 0. -1.
         -6    2    1    2    0  503 -0.14516132093E+03  0.11665162635E+03  0.24726207353E+03  0.35053481681E+03  0.16448925123E+03 0.  0.
        -24    2    3    3    0    0 -0.17143304345E+03  0.10836607081E+03  0.20736765128E+03  0.30182641136E+03  0.83458649097E+02 0.  0.
          6    2    1    2  501    0  0.14516132093E+03 -0.11665162635E+03  0.15948874744E+04  0.16149668512E+04  0.17254698918E+03 0.  0.
         24    2    5    5    0    0  0.12676392374E+03 -0.14912159448E+03  0.12240567286E+04  0.12422333068E+04  0.80761200625E+02 0.  0.
          5    1    5    5  501    0  0.18397397183E+02  0.32469968135E+02  0.37083074585E+03  0.37273354440E+03  0.47000000000E+01 0. -1.
        -13    1    6    6    0    0  0.10609419108E+03 -0.12186632531E+03  0.11413748051E+04  0.11527548848E+04  0.00000000000E+00 0.  1.
         14    1    6    6    0    0  0.20669732665E+02 -0.27255269171E+02  0.82681923442E+02  0.89478422036E+02  0.00000000000E+00 0. -1.
         -5    1    3    3    0  503  0.26271722526E+02  0.82855555403E+01  0.39894422244E+02  0.48708405448E+02  0.47000000000E+01 0.  1.
         13    1    4    4    0    0 -0.70257059176E+02  0.33657063453E+01  0.44545563527E+02  0.83256768933E+02  0.00000000000E+00 0. -1.
        -14    1    4    4    0    0 -0.10117598428E+03  0.10500036446E+03  0.16282208776E+03  0.21856964243E+03  0.00000000000E+00 0.  1.
<mgrwt>
<rscale>  2 0.25251126E+03</rscale>
<asrwt>0</asrwt>
<pdfrwt beam="1">  1       21 0.29289620E+00 0.25387374E+03</pdfrwt>
<pdfrwt beam="2">  1       21 0.94886261E-02 0.25387374E+03</pdfrwt>
<totfact> 0.31314351E+03</totfact>
</mgrwt>
</event>
<event>
12    1  0.1029207E-001  0.2003998E+03  0.7546771E-02  0.1149769E+00
         21   -1    0    0  503  502  0.00000000000E+00  0.00000000000E+00  0.98099103441E+03  0.98099103441E+03  0.00000000000E+00 0.  1.
         21   -1    0    0  501  503 -0.00000000000E+00 -0.00000000000E+00 -0.41609225859E+02  0.41609225859E+02  0.00000000000E+00 0.  1.
          6    2    1    2  501    0  0.83382087543E+02  0.52471207799E+02  0.39143115819E+03  0.43974815700E+03  0.17451157501E+03 0.  0.
         24    2    3    3    0    0  0.10905380245E+03 -0.65392590979E+01  0.25187634211E+03  0.28599865670E+03  0.80112709256E+02 0.  0.
         -6    2    1    2    0  502 -0.83382087543E+02 -0.52471207799E+02  0.54795065036E+03  0.58285210327E+03  0.17251335856E+03 0.  0.
        -24    2    5    5    0    0 -0.36757383924E+02 -0.51493519533E+02  0.14558547416E+03  0.17776613229E+03  0.80018620811E+02 0.  0.
          5    1    3    3  501    0 -0.25671714910E+02  0.59010466897E+02  0.13955481608E+03  0.15374950030E+03  0.47000000000E+01 0. -1.
        -11    1    4    4    0    0  0.88459075775E+02  0.30800300207E+01  0.10480365789E+03  0.13717981403E+03  0.00000000000E+00 0.  1.
         12    1    4    4    0    0  0.20594726678E+02 -0.96192891186E+01  0.14707268422E+03  0.14881884267E+03  0.00000000000E+00 0. -1.
         -5    1    5    5    0  502 -0.46624703619E+02 -0.97768826685E+00  0.40236517620E+03  0.40508597098E+03  0.47000000000E+01 0.  1.
         13    1    6    6    0    0  0.24258426952E+02 -0.59185958264E+01  0.46659873412E+02  0.52921119050E+02  0.00000000000E+00 0. -1.
        -14    1    6    6    0    0 -0.61015810876E+02 -0.45574923706E+02  0.98925600748E+02  0.12484501324E+03  0.00000000000E+00 0.  1.
<mgrwt>
<rscale>  2 0.19996399E+03</rscale>
<asrwt>0</asrwt>
<pdfrwt beam="1">  1       21 0.15092168E+00 0.20039983E+03</pdfrwt>
<pdfrwt beam="2">  1       21 0.64014201E-02 0.20039983E+03</pdfrwt>
<totfact> 0.51669444E+04</totfact>
</mgrwt>
</event>
<event>
12    1  0.1029207E-001  0.1989020E+03  0.7546771E-02  0.1151150E+00
         21   -1    0    0  503  502  0.00000000000E+00  0.00000000000E+00  0.51524437213E+03  0.51524437213E+03  0.00000000000E+00 0. -1.
         21   -1    0    0  501  503 -0.00000000000E+00 -0.00000000000E+00 -0.75984910630E+02  0.75984910630E+02  0.00000000000E+00 0. -1.
          6    2    1    2  501    0 -0.83270026381E+02  0.45569907742E+02  0.22728860804E+03  0.30055136366E+03  0.17222223164E+03 0.  0.
         24    2    3    3    0    0 -0.21797368859E+02 -0.33599568857E+02  0.15323986731E+03  0.17584370692E+03  0.76383872723E+02 0.  0.
         -6    2    1    2    0  502  0.83270026381E+02 -0.45569907742E+02  0.21197085347E+03  0.29067791910E+03  0.17478986283E+03 0.  0.
        -24    2    5    5    0    0  0.44349448130E+02 -0.94105154858E+02  0.11707051629E+03  0.17710571466E+03  0.82693861094E+02 0.  0.
          5    1    3    3  501    0 -0.61472657522E+02  0.79169476600E+02  0.74048740726E+02  0.12470765675E+03  0.47000000000E+01 0. -1.
        -13    1    4    4    0    0  0.77629859371E+01 -0.45749606712E+02  0.52073743412E+02  0.69749302634E+02  0.00000000000E+00 0.  1.
         14    1    4    4    0    0 -0.29560354796E+02  0.12150037854E+02  0.10116612390E+03  0.10609440428E+03  0.00000000000E+00 0. -1.
         -5    1    5    5    0  502  0.38920578251E+02  0.48535247116E+02  0.94900337181E+02  0.11357220444E+03  0.47000000000E+01 0.  1.
         11    1    6    6    0    0  0.44773985201E+02 -0.16015805157E+02  0.73898175706E+02  0.87875799502E+02  0.00000000000E+00 0. -1.
        -12    1    6    6    0    0 -0.42453707082E+00 -0.78089349701E+02  0.43172340582E+02  0.89229915162E+02  0.00000000000E+00 0.  1.
<mgrwt>
<rscale>  2 0.19833647E+03</rscale>
<asrwt>0</asrwt>
<pdfrwt beam="1">  1       21 0.79268363E-01 0.19890201E+03</pdfrwt>
<pdfrwt beam="2">  1       21 0.11689987E-01 0.19890201E+03</pdfrwt>
<totfact> 0.86112750E+04</totfact>
</mgrwt>
</event>
<event>
12    1  0.1029207E-001  0.2252565E+03  0.7546771E-02  0.1130043E+00
         21   -1    0    0  501  502  0.00000000000E+00  0.00000000000E+00  0.71685347501E+03  0.71685347501E+03  0.00000000000E+00 0.  1.
         21   -1    0    0  502  503 -0.00000000000E+00 -0.00000000000E+00 -0.25598968155E+03  0.25598968155E+03  0.00000000000E+00 0.  1.
         -6    2    1    2    0  503 -0.29516220578E+02  0.14099683396E+03 -0.18336278993E+03  0.29037088763E+03  0.17303764096E+03 0.  0.
        -24    2    3    3    0    0 -0.56956011094E+02  0.14697453059E+03 -0.19163722089E+03  0.26071905518E+03  0.80025630027E+02 0.  0.
          6    2    1    2  501    0  0.29516220578E+02 -0.14099683396E+03  0.64422658339E+03  0.68247226892E+03  0.17317387978E+03 0.  0.
         24    2    5    5    0    0  0.71159243762E+02 -0.11368742128E+03  0.34090455964E+03  0.37505352276E+03  0.80378843118E+02 0.  0.
          5    1    5    5  501    0 -0.41643023183E+02 -0.27309412679E+02  0.30332202375E+03  0.30741874616E+03  0.47000000000E+01 0. -1.
        -11    1    6    6    0    0  0.52612355562E+02 -0.60680410346E+02  0.28386752649E+03  0.29501007568E+03  0.00000000000E+00 0.  1.
         12    1    6    6    0    0  0.18546888200E+02 -0.53007010933E+02  0.57037033158E+02  0.80043447086E+02  0.00000000000E+00 0. -1.
         -5    1    3    3    0  503  0.27439790515E+02 -0.59776966277E+01  0.82744309558E+01  0.29651832458E+02  0.47000000000E+01 0.  1.
         11    1    4    4    0    0 -0.63089327303E+02  0.55681730403E+02 -0.77156165007E+02  0.11416563458E+03  0.00000000000E+00 0. -1.
        -12    1    4    4    0    0  0.61333162087E+01  0.91292800184E+02 -0.11448105588E+03  0.14655342060E+03  0.00000000000E+00 0.  1.
<mgrwt>
<rscale>  2 0.22523035E+03</rscale>
<asrwt>0</asrwt>
<pdfrwt beam="1">  1       21 0.11028515E+00 0.22525654E+03</pdfrwt>
<pdfrwt beam="2">  1       21 0.39383028E-01 0.22525654E+03</pdfrwt>
<totfact> 0.39313656E+03</totfact>
</mgrwt>
</event>
<event>
12    1  0.1029207E-001  0.2316338E+03  0.7546771E-02  0.1126424E+00
         21   -1    0    0  501  502  0.00000000000E+00  0.00000000000E+00  0.33544298275E+03  0.33544298275E+03  0.00000000000E+00 0. -1.
         21   -1    0    0  502  503 -0.00000000000E+00 -0.00000000000E+00 -0.16830896534E+03  0.16830896534E+03  0.00000000000E+00 0.  1.
         -6    2    1    2    0  503 -0.13612738193E+03  0.63382191363E+02  0.17287792424E+02  0.23227802681E+03  0.17636963367E+03 0.  0.
        -24    2    3    3    0    0 -0.65883169918E+02 -0.23231519561E+02  0.51536060691E+02  0.11552521905E+03  0.76222143142E+02 0.  0.
          6    2    1    2  501    0  0.13612738193E+03 -0.63382191363E+02  0.14984622499E+03  0.27147392128E+03  0.16939962367E+03 0.  0.
         24    2    5    5    0    0  0.15854084889E+03 -0.26458328143E+02  0.12935104379E+03  0.22343354630E+03  0.85764871531E+02 0.  0.
          5    1    5    5  501    0 -0.22413466957E+02 -0.36923863220E+02  0.20495181192E+02  0.48040374980E+02  0.47000000000E+01 0. -1.
        -11    1    6    6    0    0  0.10321844528E+03 -0.14205933041E+02  0.28936601053E+02  0.10813502143E+03  0.00000000000E+00 0.  1.
         12    1    6    6    0    0  0.55322403608E+02 -0.12252395102E+02  0.10041444274E+03  0.11529852487E+03  0.00000000000E+00 0. -1.
         -5    1    3    3    0  503 -0.70244212011E+02  0.86613710924E+02 -0.34248268267E+02  0.11675280776E+03  0.47000000000E+01 0.  1.
         11    1    4    4    0    0 -0.79322916706E+01  0.13655740231E+02  0.43601885318E+02  0.46373752228E+02  0.00000000000E+00 0. -1.
        -12    1    4    4    0    0 -0.57950878247E+02 -0.36887259792E+02  0.79341753727E+01  0.69151466821E+02  0.00000000000E+00 0.  1.
<mgrwt>
<rscale>  2 0.23030694E+03</rscale>
<asrwt>0</asrwt>
<pdfrwt beam="1">  1       21 0.51606613E-01 0.23163379E+03</pdfrwt>
<pdfrwt beam="2">  1       21 0.25893687E-01 0.23163379E+03</pdfrwt>
<totfact> 0.49607885E+04</totfact>
</mgrwt>
</event>
<event>
12    1  0.1029207E-001  0.1956444E+03  0.7546771E-02  0.1153645E+00
         21   -1    0    0  501  502  0.00000000000E+00  0.00000000000E+00  0.41334901236E+03  0.41334901236E+03  0.00000000000E+00 0. -1.
         21   -1    0    0  502  503 -0.00000000000E+00 -0.00000000000E+00 -0.10027957511E+03  0.10027957511E+03  0.00000000000E+00 0. -1.
         -6    2    1    2    0  503 -0.90910122470E+02 -0.17331125927E+01  0.84007243179E+02  0.21291774717E+03  0.17323133697E+03 0.  0.
        -24    2    3    3    0    0 -0.11604215885E+03  0.38486717426E+02  0.72194414361E+02  0.16381696404E+03  0.81712631795E+02 0.  0.
          6    2    1    2  501    0  0.90910122470E+02  0.17331125927E+01  0.22906219408E+03  0.30071084030E+03  0.17230747712E+03 0.  0.
         24    2    5    5    0    0  0.92501059068E+02  0.44791271554E+02  0.10047015236E+03  0.16501065855E+03  0.81065171219E+02 0.  0.
          5    1    5    5  501    0 -0.15909365978E+01 -0.43058158962E+02  0.12859204172E+03  0.13570018174E+03  0.47000000000E+01 0. -1.
        -11    1    6    6    0    0  0.56375197901E+01  0.32911768624E+02  0.24175726197E+01  0.33478512522E+02  0.00000000000E+00 0.  1.
         12    1    6    6    0    0  0.86863539277E+02  0.11879502931E+02  0.98052579742E+02  0.13153214603E+03  0.00000000000E+00 0. -1.
         -5    1    3    3    0  503  0.25132036377E+02 -0.40219830019E+02  0.11812828818E+02  0.49100783129E+02  0.47000000000E+01 0.  1.
         11    1    4    4    0    0 -0.47755519928E+02 -0.16694970401E+02  0.70146456322E+00  0.50594503385E+02  0.00000000000E+00 0. -1.
        -12    1    4    4    0    0 -0.68286638919E+02  0.55181687827E+02  0.71492949798E+02  0.11322246066E+03  0.00000000000E+00 0.  1.
<mgrwt>
<rscale>  2 0.19543974E+03</rscale>
<asrwt>0</asrwt>
<pdfrwt beam="1">  1       21 0.63592155E-01 0.19564445E+03</pdfrwt>
<pdfrwt beam="2">  1       21 0.15427627E-01 0.19564445E+03</pdfrwt>
<totfact> 0.85078144E+04</totfact>
</mgrwt>
</event>
<event>
12    1  0.1029207E-001  0.2184991E+03  0.7546771E-02  0.1135021E+00
         21   -1    0    0  503  502  0.00000000000E+00  0.00000000000E+00  0.49649255200E+02  0.49649255200E+02  0.00000000000E+00 0. -1.
         21   -1    0    0  501  503 -0.00000000000E+00 -0.00000000000E+00 -0.10335717163E+04  0.10335717163E+04  0.00000000000E+00 0.  1.
          6    2    1    2  501    0 -0.66399768374E+01  0.13379966986E+03 -0.63530291169E+03  0.67182710079E+03  0.17261350702E+03 0.  0.
         24    2    3    3    0    0 -0.47172863286E+02  0.14840399639E+03 -0.51519716828E+03  0.54414123298E+03  0.80078299524E+02 0.  0.
         -6    2    1    2    0  502  0.66399768374E+01 -0.13379966986E+03 -0.34861954945E+03  0.41139387075E+03  0.17251923280E+03 0.  0.
        -24    2    5    5    0    0  0.15245808689E+02 -0.95858523795E+02 -0.35010557216E+03  0.37217794069E+03  0.80754050137E+02 0.  0.
          5    1    3    3  501    0  0.40532886449E+02 -0.14604326524E+02 -0.12010574341E+03  0.12768586780E+03  0.47000000000E+01 0. -1.
        -11    1    4    4    0    0 -0.51797903759E+02  0.56747513003E+02 -0.16327174379E+03  0.18044657211E+03  0.00000000000E+00 0.  1.
         12    1    4    4    0    0  0.46250404731E+01  0.91656483384E+02 -0.35192542449E+03  0.36369466087E+03  0.00000000000E+00 0. -1.
         -5    1    5    5    0  502 -0.86058318514E+01 -0.37941146068E+02  0.14860227112E+01  0.39215930058E+02  0.47000000000E+01 0.  1.
         13    1    6    6    0    0  0.85156107799E+00 -0.46281894452E+02 -0.51929141912E+02  0.69565614279E+02  0.00000000000E+00 0. -1.
        -14    1    6    6    0    0  0.14394247611E+02 -0.49576629343E+02 -0.29817643025E+03  0.30261232641E+03  0.00000000000E+00 0.  1.
<mgrwt>
<rscale>  2 0.21848050E+03</rscale>
<asrwt>0</asrwt>
<pdfrwt beam="1">  1       21 0.76383475E-02 0.21849912E+03</pdfrwt>
<pdfrwt beam="2">  1       21 0.15901102E+00 0.21849912E+03</pdfrwt>
<totfact> 0.32761575E+04</totfact>
</mgrwt>
</event>
<event>
12    1  0.1029207E-001  0.2005945E+03  0.7546771E-02  0.1151191E+00
         21   -1    0    0  503  502  0.00000000000E+00  0.00000000000E+00  0.62798859936E+03  0.62798859936E+03  0.00000000000E+00 0.  1.
         21   -1    0    0  501  503 -0.00000000000E+00 -0.00000000000E+00 -0.61756350529E+02  0.61756350529E+02  0.00000000000E+00 0.  1.
          6    2    1    2  501    0 -0.46093658433E+02 -0.92011347997E+02  0.24425027311E+03  0.31038951875E+03  0.16153248567E+03 0.  0.
         24    2    3    3    0    0 -0.25702141669E+02 -0.11164792542E+03  0.12265876177E+03  0.18545755823E+03  0.78889002584E+02 0.  0.
         -6    2    1    2    0  502  0.46093658433E+02  0.92011347997E+02  0.32198197572E+03  0.37935543114E+03  0.17218431095E+03 0.  0.
        -24    2    5    5    0    0 -0.14624033143E+02  0.31318145834E+02  0.64381830109E+02  0.10778549930E+03  0.79233864019E+02 0.  0.
          5    1    3    3  501    0 -0.20391516764E+02  0.19636577426E+02  0.12159151135E+03  0.12493196052E+03  0.47000000000E+01 0. -1.
        -11    1    4    4    0    0  0.16889367254E+02 -0.38763270168E+01  0.87534875003E+00  0.17350587103E+02  0.00000000000E+00 0.  1.
         12    1    4    4    0    0 -0.42591508923E+02 -0.10777159841E+03  0.12178341302E+03  0.16810697113E+03  0.00000000000E+00 0. -1.
         -5    1    5    5    0  502  0.60717691577E+02  0.60693202162E+02  0.25760014561E+03  0.27156993184E+03  0.47000000000E+01 0.  1.
         13    1    6    6    0    0 -0.30876944594E+02 -0.83022930538E+01  0.18916083544E+01  0.32029548226E+02  0.00000000000E+00 0. -1.
        -14    1    6    6    0    0  0.16252911450E+02  0.39620438888E+02  0.62490221755E+02  0.75755951075E+02  0.00000000000E+00 0.  1.
<mgrwt>
<rscale>  2 0.19828873E+03</rscale>
<asrwt>0</asrwt>
<pdfrwt beam="1">  1       21 0.96613626E-01 0.20059449E+03</pdfrwt>
<pdfrwt beam="2">  1       21 0.95009774E-02 0.20059449E+03</pdfrwt>
<totfact> 0.78796551E+04</totfact>
</mgrwt>
</event>
<event>
12    1  0.1029207E-001  0.2175472E+03  0.7546771E-02  0.1135984E+00
         21   -1    0    0  503  502  0.00000000000E+00  0.00000000000E+00  0.73170279525E+03  0.73170279525E+03  0.00000000000E+00 0.  1.
         21   -1    0    0  501  503 -0.00000000000E+00 -0.00000000000E+00 -0.68665319018E+02  0.68665319018E+02  0.00000000000E+00 0. -1.
          6    2    1    2  501    0  0.26193471505E+02  0.12916237483E+03  0.22936112479E+03  0.31518571306E+03  0.17136654029E+03 0.  0.
         24    2    3    3    0    0  0.56999507396E+01  0.31812098840E+02  0.32175590793E+02  0.94275583264E+02  0.82511319744E+02 0.  0.
         -6    2    1    2    0  502 -0.26193471505E+02 -0.12916237483E+03  0.43367635145E+03  0.48518240121E+03  0.17308312344E+03 0.  0.
        -24    2    5    5    0    0  0.50532368045E+02 -0.51573314326E+02  0.22165059406E+03  0.24667888224E+03  0.80673156168E+02 0.  0.
          5    1    3    3  501    0  0.20493520766E+02  0.97350275994E+02  0.19718553400E+03  0.22091012980E+03  0.47000000000E+01 0. -1.
        -13    1    4    4    0    0  0.85146916744E+01  0.16552885623E+01  0.55420989430E+02  0.56095686322E+02  0.00000000000E+00 0.  1.
         14    1    4    4    0    0 -0.28147409348E+01  0.30156810278E+02 -0.23245398638E+02  0.38179896942E+02  0.00000000000E+00 0. -1.
         -5    1    5    5    0  502 -0.76725839550E+02 -0.77589060508E+02  0.21202575739E+03  0.23850351897E+03  0.47000000000E+01 0.  1.
         13    1    6    6    0    0  0.35861340231E+02  0.14623508299E+02  0.60358982398E+02  0.71715336395E+02  0.00000000000E+00 0. -1.
        -14    1    6    6    0    0  0.14671027814E+02 -0.66196822625E+02  0.16129161166E+03  0.17496354585E+03  0.00000000000E+00 0.  1.
<mgrwt>
<rscale>  2 0.21720559E+03</rscale>
<asrwt>0</asrwt>
<pdfrwt beam="1">  1       21 0.11256966E+00 0.21754720E+03</pdfrwt>
<pdfrwt beam="2">  1       21 0.10563896E-01 0.21754720E+03</pdfrwt>
<totfact> 0.44884876E+04</totfact>
</mgrwt>
</event>
<event>
12    1  0.1029207E-001  0.2816537E+03  0.7546771E-02  0.1094982E+00
         21   -1    0    0  503  502  0.00000000000E+00  0.00000000000E+00  0.39701208641E+03  0.39701208641E+03  0.00000000000E+00 0. -1.
         21   -1    0    0  501  503 -0.00000000000E+00 -0.00000000000E+00 -0.93537127548E+03  0.93537127548E+03  0.00000000000E+00 0.  1.
          6    2    1    2  501    0  0.17307561069E+03 -0.13852617551E+03 -0.86049209059E+03  0.90541451680E+03  0.17373583670E+03 0.  0.
         24    2    3    3    0    0  0.18600084685E+03 -0.12999957740E+03 -0.85517771707E+03  0.88838227764E+03  0.79987113298E+02 0.  0.
         -6    2    1    2    0  502 -0.17307561069E+03  0.13852617551E+03  0.32213290152E+03  0.42696884509E+03  0.17142963606E+03 0.  0.
        -24    2    5    5    0    0 -0.18391475475E+03  0.11378060928E+03  0.21318188620E+03  0.31462008528E+03  0.82271607456E+02 0.  0.
          5    1    3    3  501    0 -0.12925236155E+02 -0.85265981163E+01 -0.53143735153E+01  0.17032239165E+02  0.47000000000E+01 0. -1.
        -11    1    4    4    0    0  0.11731333990E+03 -0.11938173875E+03 -0.52760955831E+03  0.55352169360E+03  0.00000000000E+00 0.  1.
         12    1    4    4    0    0  0.68687506946E+02 -0.10617838650E+02 -0.32756815876E+03  0.33486058404E+03  0.00000000000E+00 0. -1.
         -5    1    5    5    0  502  0.10839144062E+02  0.24745566238E+02  0.10895101532E+03  0.11234875982E+03  0.47000000000E+01 0.  1.
         13    1    6    6    0    0 -0.15755679080E+03  0.11720025998E+03  0.21055419580E+03  0.28791164033E+03  0.00000000000E+00 0. -1.
        -14    1    6    6    0    0 -0.26357963948E+02 -0.34196507086E+01  0.26276903948E+01  0.26708444943E+02  0.00000000000E+00 0.  1.
<mgrwt>
<rscale>  2 0.28129886E+03</rscale>
<asrwt>0</asrwt>
<pdfrwt beam="1">  1       21 0.61078784E-01 0.28165370E+03</pdfrwt>
<pdfrwt beam="2">  1       21 0.14390327E+00 0.28165370E+03</pdfrwt>
<totfact> 0.76728925E+02</totfact>
</mgrwt>
</event>
<event>
12    1  0.1029207E-001  0.1874877E+03  0.7546771E-02  0.1161206E+00
         21   -1    0    0  503  502  0.00000000000E+00  0.00000000000E+00  0.43552259563E+03  0.43552259563E+03  0.00000000000E+00 0. -1.
         21   -1    0    0  501  503 -0.00000000000E+00 -0.00000000000E+00 -0.87624860942E+02  0.87624860942E+02  0.00000000000E+00 0. -1.
          6    2    1    2  501    0  0.64351260925E+02 -0.46030965121E+01  0.96919213360E+02  0.21105680852E+03  0.17603797666E+03 0.  0.
         24    2    3    3    0    0 -0.22126403660E+02  0.29636434280E+02  0.23990119681E+02  0.92771244546E+02  0.81627703610E+02 0.  0.
         -6    2    1    2    0  502 -0.64351260925E+02  0.46030965121E+01  0.25097852133E+03  0.31209064805E+03  0.17391975492E+03 0.  0.
        -24    2    5    5    0    0 -0.30218093044E+02 -0.65115962716E+02  0.13900418676E+03  0.17575957319E+03  0.80100199027E+02 0.  0.
          5    1    3    3  501    0  0.86477664585E+02 -0.34239530793E+02  0.72929093679E+02  0.11828556398E+03  0.47000000000E+01 0. -1.
        -13    1    4    4    0    0 -0.28671252720E+02 -0.19032052625E+02 -0.64260814724E+01  0.35007917430E+02  0.00000000000E+00 0.  1.
         14    1    4    4    0    0  0.65448490606E+01  0.48668486906E+02  0.30416201154E+02  0.57763327116E+02  0.00000000000E+00 0. -1.
         -5    1    5    5    0  502 -0.34133167881E+02  0.69719059228E+02  0.11197433457E+03  0.13633107486E+03  0.47000000000E+01 0.  1.
         13    1    6    6    0    0 -0.56413561862E+02 -0.44624831180E+02  0.11106933170E+03  0.13232634645E+03  0.00000000000E+00 0. -1.
        -14    1    6    6    0    0  0.26195468819E+02 -0.20491131536E+02  0.27934855064E+02  0.43433226747E+02  0.00000000000E+00 0.  1.
<mgrwt>
<rscale>  2 0.18698887E+03</rscale>
<asrwt>0</asrwt>
<pdfrwt beam="1">  1       21 0.67003475E-01 0.18748771E+03</pdfrwt>
<pdfrwt beam="2">  1       21 0.13480748E-01 0.18748771E+03</pdfrwt>
<totfact> 0.97308552E+04</totfact>
</mgrwt>
</event>
<event>
12    1  0.1029207E-001  0.1876527E+03  0.7546771E-02  0.1160623E+00
         21   -1    0    0  501  502  0.00000000000E+00  0.00000000000E+00  0.46793788869E+03  0.46793788869E+03  0.00000000000E+00 0. -1.
         21   -1    0    0  502  503 -0.00000000000E+00 -0.00000000000E+00 -0.85601162305E+02  0.85601162305E+02  0.00000000000E+00 0. -1.
         -6    2    1    2    0  503 -0.56409378328E+02  0.45926337573E+02  0.94765946427E+02  0.21022399969E+03  0.17298063186E+03 0.  0.
        -24    2    3    3    0    0  0.64370871030E+01  0.76389459103E+02  0.29437318574E+02  0.11447641692E+03  0.79759066900E+02 0.  0.
          6    2    1    2  501    0  0.56409378328E+02 -0.45926337573E+02  0.28757077996E+03  0.34331505131E+03  0.17284971657E+03 0.  0.
         24    2    5    5    0    0  0.61326013006E+02 -0.82438624730E+02  0.27491967085E+03  0.30407908602E+03  0.79537779817E+02 0.  0.
          5    1    5    5  501    0 -0.49166346776E+01  0.36512287157E+02  0.12651109116E+02  0.39235965285E+02  0.47000000000E+01 0. -1.
        -13    1    6    6    0    0  0.39177434320E+01 -0.11505349016E+02 -0.21732040801E+01  0.12346845166E+02  0.00000000000E+00 0.  1.
         14    1    6    6    0    0  0.57408269574E+02 -0.70933275714E+02  0.27709287493E+03  0.29173224085E+03  0.00000000000E+00 0. -1.
         -5    1    3    3    0  503 -0.62846465431E+02 -0.30463121530E+02  0.65328627852E+02  0.95747582777E+02  0.47000000000E+01 0.  1.
         11    1    4    4    0    0 -0.27475617299E+02  0.65288262424E+02  0.33876244618E+02  0.78517938751E+02  0.00000000000E+00 0. -1.
        -12    1    4    4    0    0  0.33912704402E+02  0.11101196679E+02 -0.44389260438E+01  0.35958478165E+02  0.00000000000E+00 0.  1.
<mgrwt>
<rscale>  2 0.18762255E+03</rscale>
<asrwt>0</asrwt>
<pdfrwt beam="1">  1       21 0.71990443E-01 0.18765273E+03</pdfrwt>
<pdfrwt beam="2">  1       21 0.13169410E-01 0.18765273E+03</pdfrwt>
<totfact> 0.86660408E+04</totfact>
</mgrwt>
</event>
<event>
12    1  0.1029207E-001  0.2101857E+03  0.7546771E-02  0.1141604E+00
         21   -1    0    0  501  502  0.00000000000E+00  0.00000000000E+00  0.11060671350E+03  0.11060671350E+03  0.00000000000E+00 0. -1.
         21   -1    0    0  502  503 -0.00000000000E+00 -0.00000000000E+00 -0.84507910617E+03  0.84507910617E+03  0.00000000000E+00 0.  1.
         -6    2    1    2    0  503  0.71842567657E+02 -0.92640130106E+02 -0.71532050792E+03  0.74556118311E+03  0.17445486657E+03 0.  0.
        -24    2    3    3    0    0  0.25475380794E+02 -0.96580030260E+02 -0.27416343886E+03  0.30193173366E+03  0.77591773495E+02 0.  0.
          6    2    1    2  501    0 -0.71842567657E+02  0.92640130106E+02 -0.19151884741E+02  0.21012463656E+03  0.17332633951E+03 0.  0.
         24    2    5    5    0    0 -0.70170598988E+02  0.56592653606E+01  0.17183949605E+02  0.11572734228E+03  0.90230756284E+02 0.  0.
          5    1    5    5  501    0 -0.16719686693E+01  0.86980864746E+02 -0.36335834346E+02  0.94397294287E+02  0.47000000000E+01 0. -1.
        -11    1    6    6    0    0 -0.14709615709E+02  0.11486677566E+02 -0.34800511215E+02  0.39489139477E+02  0.00000000000E+00 0.  1.
         12    1    6    6    0    0 -0.55460983279E+02 -0.58274122058E+01  0.51984460820E+02  0.76238202799E+02  0.00000000000E+00 0. -1.
         -5    1    3    3    0  503  0.46367186863E+02  0.39399001537E+01 -0.44115706907E+03  0.44362944945E+03  0.47000000000E+01 0.  1.
         11    1    4    4    0    0 -0.12393494228E+02  0.61578226391E+01 -0.14094589303E+02  0.19752846035E+02  0.00000000000E+00 0. -1.
        -12    1    4    4    0    0  0.37868875023E+02 -0.10273785290E+03 -0.26006884955E+03  0.28217888763E+03  0.00000000000E+00 0.  1.
<mgrwt>
<rscale>  2 0.20995142E+03</rscale>
<asrwt>0</asrwt>
<pdfrwt beam="1">  1       21 0.17016418E-01 0.21018575E+03</pdfrwt>
<pdfrwt beam="2">  1       21 0.13001217E+00 0.21018575E+03</pdfrwt>
<totfact> 0.13296400E+04</totfact>
</mgrwt>
</event>
<event>
12    1  0.1029207E-001  0.1891103E+03  0.7546771E-02  0.1159633E+00
         21   -1    0    0  501  502  0.00000000000E+00  0.00000000000E+00  0.12432774258E+04  0.12432774258E+04  0.00000000000E+00 0. -1.
         21   -1    0    0  502  503 -0.00000000000E+00 -0.00000000000E+00 -0.43857863010E+02  0.43857863010E+02  0.00000000000E+00 0. -1.
         -6    2    1    2    0  503 -0.51331943743E+02  0.54682688415E+02  0.97861839136E+03  0.99641914911E+03  0.17184877059E+03 0.  0.
        -24    2    3    3    0    0  0.48528526089E+00  0.53136499422E+02  0.33135100242E+03  0.34706209887E+03  0.88514917342E+02 0.  0.
          6    2    1    2  501    0  0.51331943743E+02 -0.54682688415E+02  0.22080117145E+03  0.29071613971E+03  0.17360170424E+03 0.  0.
         24    2    5    5    0    0  0.25328550702E+01  0.33880643238E+02  0.95393953794E+02  0.12955201527E+03  0.80804733141E+02 0.  0.
          5    1    5    5  501    0  0.48799088673E+02 -0.88563331653E+02  0.12540721765E+03  0.16116412444E+03  0.47000000000E+01 0. -1.
        -13    1    6    6    0    0 -0.18674193912E+02  0.24809793727E+02  0.10112492051E+03  0.10578516404E+03  0.00000000000E+00 0.  1.
         14    1    6    6    0    0  0.21207048983E+02  0.90708495118E+01 -0.57309667203E+01  0.23766851221E+02  0.00000000000E+00 0. -1.
         -5    1    3    3    0  503 -0.51817229004E+02  0.15461889929E+01  0.64726738894E+03  0.64935705025E+03  0.47000000000E+01 0.  1.
         13    1    4    4    0    0  0.68061542938E+01  0.67366952481E+02  0.32168730364E+03  0.32873599034E+03  0.00000000000E+00 0. -1.
        -14    1    4    4    0    0 -0.63208690329E+01 -0.14230453059E+02  0.96636987844E+01  0.18326108529E+02  0.00000000000E+00 0.  1.
<mgrwt>
<rscale>  2 0.18870707E+03</rscale>
<asrwt>0</asrwt>
<pdfrwt beam="1">  1       21 0.19127342E+00 0.18911033E+03</pdfrwt>
<pdfrwt beam="2">  1       21 0.67473645E-02 0.18911033E+03</pdfrwt>
<totfact> 0.24720595E+04</totfact>
</mgrwt>
</event>
<event>
12    1  0.1029207E-001  0.1777288E+03  0.7546771E-02  0.1170296E+00
         21   -1    0    0  503  502  0.00000000000E+00  0.00000000000E+00  0.18362258759E+03  0.18362258759E+03  0.00000000000E+00 0. -1.
         21   -1    0    0  501  503 -0.00000000000E+00 -0.00000000000E+00 -0.40748585769E+03  0.40748585769E+03  0.00000000000E+00 0. -1.
          6    2    1    2  501    0  0.36915753513E+01 -0.38419557352E+02 -0.33726414124E+03  0.38122780710E+03  0.17348731891E+03 0.  0.
         24    2    3    3    0    0 -0.35139358659E+02 -0.72513806570E+02 -0.29760894434E+03  0.31592172846E+03  0.68865289456E+02 0.  0.
         -6    2    1    2    0  502 -0.36915753513E+01  0.38419557352E+02  0.11340087114E+03  0.20988063818E+03  0.17233814026E+03 0.  0.
        -24    2    5    5    0    0 -0.45905500785E+02  0.39507242017E+02  0.38423563546E+02  0.12370126006E+03  0.10078439527E+03 0.  0.
          5    1    3    3  501    0  0.38830934010E+02  0.34094249219E+02 -0.39655196900E+02  0.65306078638E+02  0.47000000000E+01 0. -1.
        -11    1    4    4    0    0 -0.40430127328E+02 -0.26037302971E+02 -0.79990974741E+02  0.93333232998E+02  0.00000000000E+00 0.  1.
         12    1    4    4    0    0  0.52907686693E+01 -0.46476503599E+02 -0.21761796960E+03  0.22258849546E+03  0.00000000000E+00 0. -1.
         -5    1    5    5    0  502  0.42213925433E+02 -0.10876846654E+01  0.74977307599E+02  0.86179378120E+02  0.47000000000E+01 0.  1.
         13    1    6    6    0    0 -0.66933408264E+02  0.35105509541E+02  0.57502742720E+02  0.94968644101E+02  0.00000000000E+00 0. -1.
        -14    1    6    6    0    0  0.21027907480E+02  0.44017324764E+01 -0.19079179174E+02  0.28732615957E+02  0.00000000000E+00 0.  1.
<mgrwt>
<rscale>  2 0.17744778E+03</rscale>
<asrwt>0</asrwt>
<pdfrwt beam="1">  1       21 0.28249629E-01 0.17772884E+03</pdfrwt>
<pdfrwt beam="2">  1       21 0.62690131E-01 0.17772884E+03</pdfrwt>
<totfact> 0.28467637E+04</totfact>
</mgrwt>
</event>
<event>
12    1  0.1029207E-001  0.2707537E+03  0.7546771E-02  0.1101095E+00
         21   -1    0    0  503  502  0.00000000000E+00  0.00000000000E+00  0.88262310958E+03  0.88262310958E+03  0.00000000000E+00 0.  1.
         21   -1    0    0  501  503 -0.00000000000E+00 -0.00000000000E+00 -0.10735582294E+03  0.10735582294E+03  0.00000000000E+00 0. -1.
          6    2    1    2  501    0 -0.20535265471E+03  0.34350232468E+02  0.15054956136E+03  0.30979469633E+03  0.17308359882E+03 0.  0.
         24    2    3    3    0    0 -0.13138534372E+03 -0.46307661430E+02  0.93505652842E+02  0.18629183628E+03  0.80961923746E+02 0.  0.
         -6    2    1    2    0  502  0.20535265471E+03 -0.34350232468E+02  0.62471772528E+03  0.68018423619E+03  0.17037813129E+03 0.  0.
        -24    2    5    5    0    0  0.40096957902E+02 -0.40045208048E+02  0.30634524551E+03  0.32140156668E+03  0.78994764972E+02 0.  0.
          5    1    3    3  501    0 -0.73967310989E+02  0.80657893898E+02  0.57043908514E+02  0.12350286005E+03  0.47000000000E+01 0. -1.
        -11    1    4    4    0    0 -0.10778583226E+03  0.28370169011E+00  0.73015946151E+02  0.13018907218E+03  0.00000000000E+00 0.  1.
         12    1    4    4    0    0 -0.23599511461E+02 -0.46591363120E+02  0.20489706691E+02  0.56102764093E+02  0.00000000000E+00 0. -1.
         -5    1    5    5    0  502  0.16525569681E+03  0.56949755794E+01  0.31837247976E+03  0.35878266952E+03  0.47000000000E+01 0.  1.
         13    1    6    6    0    0  0.10311896191E+02 -0.46244765137E+02  0.79673500567E+02  0.92697250219E+02  0.00000000000E+00 0. -1.
        -14    1    6    6    0    0  0.29785061711E+02  0.61995570887E+01  0.22667174495E+03  0.22870431646E+03  0.00000000000E+00 0.  1.
<mgrwt>
<rscale>  2 0.27032234E+03</rscale>
<asrwt>0</asrwt>
<pdfrwt beam="1">  1       21 0.13578817E+00 0.27075373E+03</pdfrwt>
<pdfrwt beam="2">  1       21 0.16516281E-01 0.27075373E+03</pdfrwt>
<totfact> 0.12131439E+04</totfact>
</mgrwt>
</event>
<event>
12    1  0.1029207E-001  0.1886710E+03  0.7546771E-02  0.1160182E+00
         21   -1    0    0  503  502  0.00000000000E+00  0.00000000000E+00  0.47145271199E+03  0.47145271199E+03  0.00000000000E+00 0. -1.
         21   -1    0    0  501  503 -0.00000000000E+00 -0.00000000000E+00 -0.75643217157E+02  0.75643217157E+02  0.00000000000E+00 0. -1.
          6    2    1    2  501    0 -0.43761135107E+02 -0.53302096749E+02  0.22877373227E+03  0.29510841397E+03  0.17319181549E+03 0.  0.
         24    2    3    3    0    0 -0.78017252023E+02 -0.22886275787E+02  0.73845254769E+02  0.13348067238E+03  0.75851796377E+02 0.  0.
         -6    2    1    2    0  502  0.43761135107E+02  0.53302096749E+02  0.16703576256E+03  0.25198751518E+03  0.17561495200E+03 0.  0.
        -24    2    5    5    0    0  0.92238012958E+02  0.14769411444E+02  0.86629644749E+02  0.15039022533E+03  0.79915818061E+02 0.  0.
          5    1    3    3  501    0  0.34256116916E+02 -0.30415820962E+02  0.15492847751E+03  0.16162774159E+03  0.47000000000E+01 0. -1.
        -13    1    4    4    0    0 -0.14605653081E+02 -0.31565129560E+02 -0.12604446259E+01  0.34803322064E+02  0.00000000000E+00 0.  1.
         14    1    4    4    0    0 -0.63411598941E+02  0.86788537728E+01  0.75105699395E+02  0.98677350312E+02  0.00000000000E+00 0. -1.
         -5    1    5    5    0  502 -0.48476877851E+02  0.38532685304E+02  0.80406117809E+02  0.10159728985E+03  0.47000000000E+01 0.  1.
         11    1    6    6    0    0  0.26066888238E+02  0.92409663337E+01 -0.13080171498E+02  0.30593610569E+02  0.00000000000E+00 0. -1.
        -12    1    6    6    0    0  0.66171124720E+02  0.55284451107E+01  0.99709816247E+02  0.11979661476E+03  0.00000000000E+00 0.  1.
<mgrwt>
<rscale>  2 0.18810516E+03</rscale>
<asrwt>0</asrwt>
<pdfrwt beam="1">  1       21 0.72531185E-01 0.18867104E+03</pdfrwt>
<pdfrwt beam="2">  1       21 0.11637418E-01 0.18867104E+03</pdfrwt>
<totfact> 0.10634372E+05</totfact>
</mgrwt>
</event>
<event>
12    1  0.1029207E-001  0.1884830E+03  0.7546771E-02  0.1163278E+00
         21   -1    0    0  501  502  0.00000000000E+00  0.00000000000E+00  0.56167352740E+02  0.56167352740E+02  0.00000000000E+00 0. -1.
         21   -1    0    0  502  503 -0.00000000000E+00 -0.00000000000E+00 -0.58707281464E+03  0.58707281464E+03  0.00000000000E+00 0.  1.
         -6    2    1    2    0  503 -0.25691588147E+02 -0.71440002547E+02 -0.27456714979E+03  0.32506542023E+03  0.15657801896E+03 0.  0.
        -24    2    3    3    0    0  0.29258761611E+02 -0.23487610172E+02 -0.11061715663E+03  0.14556426946E+03  0.86862294687E+02 0.  0.
          6    2    1    2  501    0  0.25691588147E+02  0.71440002547E+02 -0.25633831211E+03  0.31817474715E+03  0.17251697830E+03 0.  0.
         24    2    5    5    0    0  0.32352144888E+02 -0.53822763021E+01 -0.58586974962E+02  0.10586905507E+03  0.81854706706E+02 0.  0.
          5    1    5    5  501    0 -0.66605567402E+01  0.76822278850E+02 -0.19775133715E+03  0.21230569207E+03  0.47000000000E+01 0. -1.
        -13    1    6    6    0    0  0.25579561903E+02  0.13017045424E+02 -0.74997192260E+02  0.80301533645E+02  0.00000000000E+00 0.  1.
         14    1    6    6    0    0  0.67725829844E+01 -0.18399321726E+02  0.16410217298E+02  0.25567521429E+02  0.00000000000E+00 0. -1.
         -5    1    3    3    0  503 -0.54950349758E+02 -0.47952392376E+02 -0.16394999316E+03  0.17950115078E+03  0.47000000000E+01 0.  1.
         13    1    4    4    0    0 -0.10376430869E+02 -0.47132512807E+02 -0.51742242024E+02  0.70755944561E+02  0.00000000000E+00 0. -1.
        -14    1    4    4    0    0  0.39635192480E+02  0.23644902635E+02 -0.58874914608E+02  0.74808324895E+02  0.00000000000E+00 0.  1.
<mgrwt>
<rscale>  2 0.18475634E+03</rscale>
<asrwt>0</asrwt>
<pdfrwt beam="1">  1       21 0.86411308E-02 0.18848300E+03</pdfrwt>
<pdfrwt beam="2">  1       21 0.90318899E-01 0.18848300E+03</pdfrwt>
<totfact> 0.10948470E+05</totfact>
</mgrwt>
</event>
<event>
12    1  0.1029207E-001  0.1802345E+03  0.7546771E-02  0.1167989E+00
         21   -1    0    0  501  502  0.00000000000E+00  0.00000000000E+00  0.15470737461E+03  0.15470737461E+03  0.00000000000E+00 0. -1.
         21   -1    0    0  502  503 -0.00000000000E+00 -0.00000000000E+00 -0.20981037436E+03  0.20981037436E+03  0.00000000000E+00 0. -1.
         -6    2    1    2    0  503 -0.29926804323E+01 -0.47363339064E+02 -0.10489100765E+02  0.17884367028E+03  0.17211273963E+03 0.  0.
        -24    2    3    3    0    0  0.25057606906E+02 -0.53785390649E+02  0.50092426827E+02  0.11161069585E+03  0.80168224944E+02 0.  0.
          6    2    1    2  501    0  0.29926804323E+01  0.47363339064E+02 -0.44613898985E+02  0.18567407869E+03  0.17387415418E+03 0.  0.
         24    2    5    5    0    0  0.55033942779E+02 -0.12547871785E+02 -0.38616199318E+02  0.10595138071E+03  0.80921568699E+02 0.  0.
          5    1    5    5  501    0 -0.52041262347E+02  0.59911210849E+02 -0.59976996668E+01  0.79722697981E+02  0.47000000000E+01 0. -1.
        -13    1    6    6    0    0  0.10838407223E+02 -0.42156100359E+02 -0.27855433555E+02  0.51677200458E+02  0.00000000000E+00 0.  1.
         14    1    6    6    0    0  0.44195535556E+02  0.29608228574E+02 -0.10760765763E+02  0.54274180254E+02  0.00000000000E+00 0. -1.
         -5    1    3    3    0  503 -0.28050287338E+02  0.64220515855E+01 -0.60581527592E+02  0.67232974437E+02  0.47000000000E+01 0.  1.
         11    1    4    4    0    0 -0.61846955393E+01 -0.37081489502E+02 -0.12559279536E+02  0.39636130299E+02  0.00000000000E+00 0. -1.
        -12    1    4    4    0    0  0.31242302445E+02 -0.16703901147E+02  0.62651706362E+02  0.71974565547E+02  0.00000000000E+00 0.  1.
<mgrwt>
<rscale>  2 0.17980830E+03</rscale>
<asrwt>0</asrwt>
<pdfrwt beam="1">  1       21 0.23801134E-01 0.18023447E+03</pdfrwt>
<pdfrwt beam="2">  1       21 0.32278519E-01 0.18023447E+03</pdfrwt>
<totfact> 0.15418740E+05</totfact>
</mgrwt>
</event>
<event>
12    1  0.1029207E-001  0.2452193E+03  0.7546771E-02  0.1116719E+00
         21   -1    0    0  501  502  0.00000000000E+00  0.00000000000E+00  0.14063390571E+03  0.14063390571E+03  0.00000000000E+00 0.  1.
         21   -1    0    0  502  503 -0.00000000000E+00 -0.00000000000E+00 -0.43829532308E+03  0.43829532308E+03  0.00000000000E+00 0.  1.
         -6    2    1    2    0  503  0.14743338436E+03  0.85199480210E+02 -0.95531245613E+02  0.26114135147E+03  0.17341577871E+03 0.  0.
        -24    2    3    3    0    0  0.74680191797E+02 -0.34212507473E+01  0.40125405050E+01  0.10922783549E+03  0.79534794651E+02 0.  0.
          6    2    1    2  501    0 -0.14743338436E+03 -0.85199480210E+02 -0.20213017176E+03  0.31778787732E+03  0.17645672100E+03 0.  0.
         24    2    5    5    0    0 -0.90675002861E+02 -0.11957577328E+03 -0.17999302942E+03  0.24767806013E+03  0.80166134559E+02 0.  0.
          5    1    5    5  501    0 -0.56758381499E+02  0.34376293070E+02 -0.22137142338E+02  0.70109817191E+02  0.47000000000E+01 0. -1.
        -13    1    6    6    0    0 -0.93531382567E+02 -0.12532177920E+03 -0.18289716238E+03  0.24063466058E+03  0.00000000000E+00 0.  1.
         14    1    6    6    0    0  0.28563797063E+01  0.57460059153E+01  0.29041329574E+01  0.70433995513E+01  0.00000000000E+00 0. -1.
         -5    1    3    3    0  503  0.72753192562E+02  0.88620730957E+02 -0.99543786118E+02  0.15191351598E+03  0.47000000000E+01 0.  1.
         11    1    4    4    0    0  0.72315243774E+02 -0.61493373487E+01 -0.27423964145E+02  0.77584680455E+02  0.00000000000E+00 0. -1.
        -12    1    4    4    0    0  0.23649480232E+01  0.27280866014E+01  0.31436504650E+02  0.31643155031E+02  0.00000000000E+00 0.  1.
<mgrwt>
<rscale>  2 0.24467276E+03</rscale>
<asrwt>0</asrwt>
<pdfrwt beam="1">  1       21 0.21635985E-01 0.24521935E+03</pdfrwt>
<pdfrwt beam="2">  1       21 0.67430051E-01 0.24521935E+03</pdfrwt>
<totfact> 0.39070183E+04</totfact>
</mgrwt>
</event>
<event>
12    1  0.1029207E-001  0.2531998E+03  0.7546771E-02  0.1111517E+00
         21   -1    0    0  501  502  0.00000000000E+00  0.00000000000E+00  0.11848719304E+04  0.11848719304E+04  0.00000000000E+00 0.  1.
         21   -1    0    0  502  503 -0.00000000000E+00 -0.00000000000E+00 -0.65945548403E+02  0.65945548403E+02  0.00000000000E+00 0.  1.
         -6    2    1    2    0  503 -0.17190713774E+03  0.65773747293E+02  0.28989412163E+03  0.38398149690E+03  0.17182822344E+03 0.  0.
        -24    2    3    3    0    0 -0.43242170702E+02 -0.10129003209E+02  0.60113556526E+02  0.10987002437E+03  0.80531363725E+02 0.  0.
          6    2    1    2  501    0  0.17190713774E+03 -0.65773747293E+02  0.82903226041E+03  0.86683598194E+03  0.17387317489E+03 0.  0.
         24    2    5    5    0    0  0.18131761823E+03 -0.13062151124E+02  0.67086430697E+03  0.69978431026E+03  0.81193990281E+02 0.  0.
          5    1    5    5  501    0 -0.94104804842E+01 -0.52711596169E+02  0.15816795344E+03  0.16705167168E+03  0.47000000000E+01 0. -1.
        -11    1    6    6    0    0  0.37909887981E+02 -0.31794172053E+02  0.24754379652E+03  0.25244001303E+03  0.00000000000E+00 0.  1.
         12    1    6    6    0    0  0.14340773024E+03  0.18732020929E+02  0.42332051045E+03  0.44734429724E+03  0.00000000000E+00 0. -1.
         -5    1    3    3    0  503 -0.12866496704E+03  0.75902750502E+02  0.22978056510E+03  0.27411147253E+03  0.47000000000E+01 0.  1.
         11    1    4    4    0    0 -0.54293076391E+02 -0.20386298205E+02  0.70702947633E+02  0.91445317553E+02  0.00000000000E+00 0. -1.
        -12    1    4    4    0    0  0.11050905689E+02  0.10257294996E+02 -0.10589391107E+02  0.18424706814E+02  0.00000000000E+00 0.  1.
<mgrwt>
<rscale>  2 0.25284908E+03</rscale>
<asrwt>0</asrwt>
<pdfrwt beam="1">  1       21 0.18228797E+00 0.25319978E+03</pdfrwt>
<pdfrwt beam="2">  1       21 0.10145470E-01 0.25319978E+03</pdfrwt>
<totfact> 0.13317062E+04</totfact>
</mgrwt>
</event>
<event>
12    1  0.1029207E-001  0.2014629E+03  0.7546771E-02  0.1148716E+00
         21   -1    0    0  501  502  0.00000000000E+00  0.00000000000E+00  0.88078045430E+03  0.88078045430E+03  0.00000000000E+00 0.  1.
         21   -1    0    0  502  503 -0.00000000000E+00 -0.00000000000E+00 -0.46135136667E+02  0.46135136667E+02  0.00000000000E+00 0.  1.
         -6    2    1    2    0  503  0.99012559396E+02  0.27961368692E+02  0.38234443854E+03  0.43217422113E+03  0.17321074640E+03 0.  0.
        -24    2    3    3    0    0 -0.54839911040E+01  0.48673274469E+02  0.21425416087E+03  0.23311407054E+03  0.77705615146E+02 0.  0.
          6    2    1    2  501    0 -0.99012559396E+02 -0.27961368692E+02  0.45230087909E+03  0.49474136984E+03  0.17206862801E+03 0.  0.
         24    2    5    5    0    0 -0.10174308292E+03  0.35754356208E+02  0.34979865914E+03  0.37392769324E+03  0.76372697512E+02 0.  0.
          5    1    5    5  501    0  0.27305235237E+01 -0.63715724900E+02  0.10250221995E+03  0.12081367660E+03  0.47000000000E+01 0. -1.
        -11    1    6    6    0    0 -0.35434217504E+02 -0.71124999446E+01  0.21243852006E+03  0.21549082633E+03  0.00000000000E+00 0.  1.
         12    1    6    6    0    0 -0.66308865416E+02  0.42866856152E+02  0.13736013908E+03  0.15843686691E+03  0.00000000000E+00 0. -1.
         -5    1    3    3    0  503  0.10449655050E+03 -0.20711905777E+02  0.16809027767E+03  0.19906015059E+03  0.47000000000E+01 0.  1.
         13    1    4    4    0    0 -0.27650959286E+02 -0.25725544460E+01  0.12330579948E+03  0.12639427903E+03  0.00000000000E+00 0. -1.
        -14    1    4    4    0    0  0.22166968182E+02  0.51245828915E+02  0.90948361393E+02  0.10671979151E+03  0.00000000000E+00 0.  1.
<mgrwt>
<rscale>  2 0.20121714E+03</rscale>
<asrwt>0</asrwt>
<pdfrwt beam="1">  1       21 0.13550467E+00 0.20146287E+03</pdfrwt>
<pdfrwt beam="2">  1       21 0.70977140E-02 0.20146287E+03</pdfrwt>
<totfact> 0.57198052E+04</totfact>
</mgrwt>
</event>
<event>
12    1  0.1029207E-001  0.2386769E+03  0.7546771E-02  0.1120688E+00
         21   -1    0    0  503  502  0.00000000000E+00  0.00000000000E+00  0.75866510857E+03  0.75866510857E+03  0.00000000000E+00 0.  1.
         21   -1    0    0  501  503 -0.00000000000E+00 -0.00000000000E+00 -0.75478242817E+02  0.75478242817E+02  0.00000000000E+00 0. -1.
          6    2    1    2  501    0 -0.95812467963E+02 -0.13376807947E+03  0.37237091224E+03  0.44229711371E+03  0.17289509079E+03 0.  0.
         24    2    3    3    0    0 -0.55739352747E+02 -0.16140904406E+03  0.30687448828E+03  0.36055514751E+03  0.81659707894E+02 0.  0.
         -6    2    1    2    0  502  0.95812467963E+02  0.13376807947E+03  0.31081595351E+03  0.39184623767E+03  0.17280911121E+03 0.  0.
        -24    2    5    5    0    0  0.78389978498E+02  0.15754706644E+03  0.20543523481E+03  0.28231921254E+03  0.80835853374E+02 0.  0.
          5    1    3    3  501    0 -0.40073115216E+02  0.27640964595E+02  0.65496423959E+02  0.81741966200E+02  0.47000000000E+01 0. -1.
        -13    1    4    4    0    0 -0.21385696116E+02  0.27450320072E+01  0.36241116661E+02  0.42169915057E+02  0.00000000000E+00 0.  1.
         14    1    4    4    0    0 -0.34353656632E+02 -0.16415407607E+03  0.27063337162E+03  0.31838523246E+03  0.00000000000E+00 0. -1.
         -5    1    5    5    0  502  0.17422489465E+02 -0.23778986979E+02  0.10538071870E+03  0.10952702513E+03  0.47000000000E+01 0.  1.
         13    1    6    6    0    0  0.57768505473E+02  0.14414561518E+03  0.20568589172E+03  0.25772435790E+03  0.00000000000E+00 0. -1.
        -14    1    6    6    0    0  0.20621473025E+02  0.13401451263E+02 -0.25065691290E+00  0.24594854636E+02  0.00000000000E+00 0.  1.
<mgrwt>
<rscale>  2 0.23866128E+03</rscale>
<asrwt>0</asrwt>
<pdfrwt beam="1">  1       21 0.11671770E+00 0.23867685E+03</pdfrwt>
<pdfrwt beam="2">  1       21 0.11612038E-01 0.23867685E+03</pdfrwt>
<totfact> 0.34333712E+04</totfact>
</mgrwt>
</event>
<event>
12    1  0.1029207E-001  0.1753646E+03  0.7546771E-02  0.1172372E+00
         21   -1    0    0  503  502  0.00000000000E+00  0.00000000000E+00  0.19382103763E+04  0.19382103763E+04  0.00000000000E+00 0.  1.
         21   -1    0    0  501  503 -0.00000000000E+00 -0.00000000000E+00 -0.37013457075E+02  0.37013457075E+02  0.00000000000E+00 0.  1.
          6    2    1    2  501    0  0.17176969010E+02 -0.27169938562E+02  0.20408832684E+03  0.26908139882E+03  0.17239344597E+03 0.  0.
         24    2    3    3    0    0 -0.73330656239E+01  0.30509926607E+02  0.18454377365E+03  0.20326507711E+03  0.79219048887E+02 0.  0.
         -6    2    1    2    0  502 -0.17176969010E+02  0.27169938562E+02  0.16971085924E+04  0.17061424345E+04  0.17236930938E+03 0.  0.
        -24    2    5    5    0    0  0.92207243493E+01 -0.48399527331E+02  0.80419872685E+03  0.80963939476E+03  0.79704587563E+02 0.  0.
          5    1    3    3  501    0  0.24510034634E+02 -0.57679865169E+02  0.19544553186E+02  0.65816321706E+02  0.47000000000E+01 0. -1.
        -11    1    4    4    0    0 -0.78220252382E+00 -0.16380992747E+02  0.43666572573E+01  0.16971047692E+02  0.00000000000E+00 0.  1.
         12    1    4    4    0    0 -0.65508631001E+01  0.46890919354E+02  0.18017711639E+03  0.18629402942E+03  0.00000000000E+00 0. -1.
         -5    1    5    5    0  502 -0.26397693359E+02  0.75569465893E+02  0.89290986552E+03  0.89650303978E+03  0.47000000000E+01 0.  1.
         11    1    6    6    0    0  0.19093953169E+02 -0.36832389444E+02  0.77970836155E+03  0.78081132999E+03  0.00000000000E+00 0. -1.
        -12    1    6    6    0    0 -0.98732288196E+01 -0.11567137887E+02  0.24490365293E+02  0.28828064771E+02  0.00000000000E+00 0.  1.
<mgrwt>
<rscale>  2 0.17535870E+03</rscale>
<asrwt>0</asrwt>
<pdfrwt beam="1">  1       21 0.29818613E+00 0.17536463E+03</pdfrwt>
<pdfrwt beam="2">  1       21 0.56943795E-02 0.17536463E+03</pdfrwt>
<totfact> 0.76906297E+03</totfact>
</mgrwt>
</event>
<event>
12    1  0.1029207E-001  0.3012352E+03  0.7546771E-02  0.1084669E+00
         21   -1    0    0  501  502  0.00000000000E+00  0.00000000000E+00  0.11308922575E+03  0.11308922575E+03  0.00000000000E+00 0.  1.
         21   -1    0    0  502  503 -0.00000000000E+00 -0.00000000000E+00 -0.80431136777E+03  0.80431136777E+03  0.00000000000E+00 0. -1.
         -6    2    1    2    0  503  0.24277836371E+03 -0.42102011865E+02 -0.37320597080E+03  0.47960959314E+03  0.17328806047E+03 0.  0.
        -24    2    3    3    0    0  0.94460135129E+02  0.42215196778E+02 -0.18254986735E+03  0.22371991303E+03  0.77597071138E+02 0.  0.
          6    2    1    2  501    0 -0.24277836371E+03  0.42102011865E+02 -0.31801617121E+03  0.43779100037E+03  0.17266372395E+03 0.  0.
         24    2    5    5    0    0 -0.23848364801E+03  0.62299848519E+02 -0.32456857203E+03  0.41562297960E+03  0.81498354175E+02 0.  0.
          5    1    5    5  501    0 -0.42947157064E+01 -0.20197836654E+02  0.65524008180E+01  0.22168020772E+02  0.47000000000E+01 0. -1.
        -11    1    6    6    0    0 -0.88256258876E+02  0.24353426338E+02 -0.61428788468E+02  0.11025312992E+03  0.00000000000E+00 0.  1.
         12    1    6    6    0    0 -0.15022738913E+03  0.37946422181E+02 -0.26313978356E+03  0.30536984968E+03  0.00000000000E+00 0. -1.
         -5    1    3    3    0  503  0.14831822859E+03 -0.84317208643E+02 -0.19065610345E+03  0.25588968011E+03  0.47000000000E+01 0.  1.
         11    1    4    4    0    0  0.99549095702E+00  0.35235055540E+02 -0.42725604093E+02  0.55389325562E+02  0.00000000000E+00 0. -1.
        -12    1    4    4    0    0  0.93464644172E+02  0.69801412379E+01 -0.13982426326E+03  0.16833058747E+03  0.00000000000E+00 0.  1.
<mgrwt>
<rscale>  2 0.30114551E+03</rscale>
<asrwt>0</asrwt>
<pdfrwt beam="1">  1       21 0.17398342E-01 0.30123523E+03</pdfrwt>
<pdfrwt beam="2">  1       21 0.12374021E+00 0.30123523E+03</pdfrwt>
<totfact> 0.13762205E+04</totfact>
</mgrwt>
</event>
<event>
12    1  0.1029207E-001  0.2490400E+03  0.7546771E-02  0.1114091E+00
         21   -1    0    0  503  502  0.00000000000E+00  0.00000000000E+00  0.84576460937E+02  0.84576460937E+02  0.00000000000E+00 0.  1.
         21   -1    0    0  501  503 -0.00000000000E+00 -0.00000000000E+00 -0.96905568758E+03  0.96905568758E+03  0.00000000000E+00 0.  1.
          6    2    1    2  501    0  0.10744459245E+03  0.14041760032E+03 -0.18134452470E+03  0.30806943062E+03  0.17538384908E+03 0.  0.
         24    2    3    3    0    0  0.86128689109E+02  0.15847024736E+02 -0.62135840688E+02  0.13427358377E+03  0.80617946644E+02 0.  0.
         -6    2    1    2    0  502 -0.10744459245E+03 -0.14041760032E+03 -0.70313470195E+03  0.74556271790E+03  0.17379273378E+03 0.  0.
        -24    2    5    5    0    0 -0.79254950322E+01 -0.29590633062E+02 -0.15359354836E+03  0.17617336350E+03  0.80670049408E+02 0.  0.
          5    1    3    3  501    0  0.21315903342E+02  0.12457057559E+03 -0.11920868401E+03  0.17379584684E+03  0.47000000000E+01 0. -1.
        -11    1    4    4    0    0 -0.79602601233E+01  0.90978179534E+01  0.98660177990E+01  0.15603664312E+02  0.00000000000E+00 0.  1.
         12    1    4    4    0    0  0.94088949232E+02  0.67492067826E+01 -0.72001858487E+02  0.11866991946E+03  0.00000000000E+00 0. -1.
         -5    1    5    5    0  502 -0.99519097418E+02 -0.11082696726E+03 -0.54954115358E+03  0.56938935440E+03  0.47000000000E+01 0.  1.
         11    1    6    6    0    0  0.44408493307E+01 -0.56126072854E+02 -0.11138693174E+03  0.12480747477E+03  0.00000000000E+00 0. -1.
        -12    1    6    6    0    0 -0.12366344363E+02  0.26535439792E+02 -0.42206616623E+02  0.51365888726E+02  0.00000000000E+00 0.  1.
<mgrwt>
<rscale>  2 0.24876007E+03</rscale>
<asrwt>0</asrwt>
<pdfrwt beam="1">  1       21 0.13011763E-01 0.24904003E+03</pdfrwt>
<pdfrwt beam="2">  1       21 0.14908550E+00 0.24904003E+03</pdfrwt>
<totfact> 0.14866476E+04</totfact>
</mgrwt>
</event>
<event>
12    1  0.1029207E-001  0.2890546E+03  0.7546771E-02  0.1091150E+00
         21   -1    0    0  501  502  0.00000000000E+00  0.00000000000E+00  0.16583751200E+04  0.16583751200E+04  0.00000000000E+00 0.  1.
         21   -1    0    0  502  503 -0.00000000000E+00 -0.00000000000E+00 -0.23985805023E+03  0.23985805023E+03  0.00000000000E+00 0. -1.
         -6    2    1    2    0  503 -0.36711185106E+01  0.23134214825E+03 -0.13580339752E+03  0.31726362804E+03  0.16935459907E+03 0.  0.
        -24    2    3    3    0    0  0.65977853499E+01  0.71372071267E+02 -0.19556411852E+01  0.10837804262E+03  0.81267904250E+02 0.  0.
          6    2    1    2  501    0  0.36711185106E+01 -0.23134214825E+03  0.15543204673E+04  0.15809695422E+04  0.17326255108E+03 0.  0.
         24    2    5    5    0    0 -0.36435521420E+02 -0.22163554084E+03  0.11662840242E+04  0.11907168908E+04  0.84489221803E+02 0.  0.
          5    1    5    5  501    0  0.40106639931E+02 -0.97066074090E+01  0.38803644305E+03  0.39025265141E+03  0.47000000000E+01 0. -1.
        -11    1    6    6    0    0  0.15071560023E+01 -0.46423845344E+01  0.18277142414E+03  0.18283658479E+03  0.00000000000E+00 0.  1.
         12    1    6    6    0    0 -0.37942677422E+02 -0.21699315631E+03  0.98351260008E+03  0.10078803060E+04  0.00000000000E+00 0. -1.
         -5    1    3    3    0  503 -0.10268903861E+02  0.15997007699E+03 -0.13384775634E+03  0.20888558542E+03  0.47000000000E+01 0.  1.
         11    1    4    4    0    0  0.57591243812E+01  0.16203909624E+02 -0.38522139048E+02  0.42186365067E+02  0.00000000000E+00 0. -1.
        -12    1    4    4    0    0  0.83866096870E+00  0.55168161642E+02  0.36566497863E+02  0.66191677552E+02  0.00000000000E+00 0.  1.
<mgrwt>
<rscale>  2 0.28847151E+03</rscale>
<asrwt>0</asrwt>
<pdfrwt beam="1">  1       21 0.25513463E+00 0.28905463E+03</pdfrwt>
<pdfrwt beam="2">  1       21 0.36901240E-01 0.28905463E+03</pdfrwt>
<totfact> 0.39500172E+02</totfact>
</mgrwt>
</event>
<event>
12    1  0.1029207E-001  0.1953142E+03  0.7546771E-02  0.1154047E+00
         21   -1    0    0  503  502  0.00000000000E+00  0.00000000000E+00  0.78403182431E+02  0.78403182431E+02  0.00000000000E+00 0. -1.
         21   -1    0    0  501  503 -0.00000000000E+00 -0.00000000000E+00 -0.50764278975E+03  0.50764278975E+03  0.00000000000E+00 0. -1.
          6    2    1    2  501    0 -0.33548516538E+02 -0.87040870117E+02 -0.15104710566E+03  0.24690656287E+03  0.17159838759E+03 0.  0.
         24    2    3    3    0    0  0.12980848307E+02 -0.11054179190E+03 -0.80518759654E+02  0.15907938764E+03  0.80218393996E+02 0.  0.
         -6    2    1    2    0  502  0.33548516538E+02  0.87040870117E+02 -0.27819250165E+03  0.33913940931E+03  0.17006720712E+03 0.  0.
        -24    2    5    5    0    0 -0.29707265572E+02  0.67977200058E+02 -0.93979896633E+02  0.14338167298E+03  0.78883850178E+02 0.  0.
          5    1    3    3  501    0 -0.46529364845E+02  0.23500921788E+02 -0.70528346008E+02  0.87827175227E+02  0.47000000000E+01 0. -1.
        -13    1    4    4    0    0  0.31708261136E+02 -0.78023163379E+01 -0.16494462043E+02  0.36583565198E+02  0.00000000000E+00 0.  1.
         14    1    4    4    0    0 -0.18727412830E+02 -0.10273947557E+03 -0.64024297612E+02  0.12249582244E+03  0.00000000000E+00 0. -1.
         -5    1    5    5    0  502  0.63255782110E+02  0.19063670059E+02 -0.18421260502E+03  0.19575773633E+03  0.47000000000E+01 0.  1.
         13    1    6    6    0    0 -0.21675359436E+01 -0.17555972934E+02 -0.96482270334E+01  0.20149408989E+02  0.00000000000E+00 0. -1.
        -14    1    6    6    0    0 -0.27539729629E+02  0.85533172992E+02 -0.84331669600E+02  0.12323226399E+03  0.00000000000E+00 0.  1.
<mgrwt>
<rscale>  2 0.19497732E+03</rscale>
<asrwt>0</asrwt>
<pdfrwt beam="1">  1       21 0.12062028E-01 0.19531416E+03</pdfrwt>
<pdfrwt beam="2">  1       21 0.78098890E-01 0.19531416E+03</pdfrwt>
<totfact> 0.84329194E+04</totfact>
</mgrwt>
</event>
<event>
12    1  0.1029207E-001  0.2277949E+03  0.7546771E-02  0.1128248E+00
         21   -1    0    0  501  502  0.00000000000E+00  0.00000000000E+00  0.51632559752E+03  0.51632559752E+03  0.00000000000E+00 0. -1.
         21   -1    0    0  502  503 -0.00000000000E+00 -0.00000000000E+00 -0.12804031657E+03  0.12804031657E+03  0.00000000000E+00 0. -1.
         -6    2    1    2    0  503  0.14383990379E+03  0.33032921239E+02  0.44317250429E+02  0.23180742243E+03  0.17317497106E+03 0.  0.
        -24    2    3    3    0    0  0.11544613293E+03 -0.24171382230E+02  0.74953406886E+02  0.16082008102E+03  0.79580273482E+02 0.  0.
          6    2    1    2  501    0 -0.14383990379E+03 -0.33032921239E+02  0.34396803052E+03  0.41255849166E+03  0.17352063628E+03 0.  0.
         24    2    5    5    0    0 -0.16200526772E+03 -0.12414981800E+02  0.21655093781E+03  0.28212733975E+03  0.79383175981E+02 0.  0.
          5    1    5    5  501    0  0.18165363928E+02 -0.20617939439E+02  0.12741709271E+03  0.13043115191E+03  0.47000000000E+01 0. -1.
        -13    1    6    6    0    0 -0.26991342712E+02  0.23614073803E+02  0.20300123689E+02  0.41209854219E+02  0.00000000000E+00 0.  1.
         14    1    6    6    0    0 -0.13501392500E+03 -0.36029055604E+02  0.19625081412E+03  0.24091748553E+03  0.00000000000E+00 0. -1.
         -5    1    3    3    0  503  0.28393770859E+02  0.57204303469E+02 -0.30636156457E+02  0.70987341417E+02  0.47000000000E+01 0.  1.
         11    1    4    4    0    0  0.29595003660E+02 -0.11130956334E+02 -0.15687039738E+02  0.35296538730E+02  0.00000000000E+00 0. -1.
        -12    1    4    4    0    0  0.85851129269E+02 -0.13040425897E+02  0.90640446624E+02  0.12552354229E+03  0.00000000000E+00 0.  1.
<mgrwt>
<rscale>  2 0.22772904E+03</rscale>
<asrwt>0</asrwt>
<pdfrwt beam="1">  1       21 0.79434706E-01 0.22779487E+03</pdfrwt>
<pdfrwt beam="2">  1       21 0.19698511E-01 0.22779487E+03</pdfrwt>
<totfact> 0.32580656E+04</totfact>
</mgrwt>
</event>
<event>
12    1  0.1029207E-001  0.1879670E+03  0.7546771E-02  0.1160565E+00
         21   -1    0    0  503  502  0.00000000000E+00  0.00000000000E+00  0.24997862508E+03  0.24997862508E+03  0.00000000000E+00 0. -1.
         21   -1    0    0  501  503 -0.00000000000E+00 -0.00000000000E+00 -0.29032766753E+03  0.29032766753E+03  0.00000000000E+00 0. -1.
          6    2    1    2  501    0 -0.71633796165E+02  0.18785874473E+02 -0.21421819920E+03  0.28425535701E+03  0.17154405058E+03 0.  0.
         24    2    3    3    0    0 -0.34139547495E+02 -0.51214672778E+02 -0.78221452619E+02  0.12670187283E+03  0.78398453536E+02 0.  0.
         -6    2    1    2    0  502  0.71633796165E+02 -0.18785874473E+02  0.17386915674E+03  0.25605093560E+03  0.17276367709E+03 0.  0.
        -24    2    5    5    0    0 -0.60602392174E+01  0.13773616324E+02  0.15523817406E+03  0.16964672800E+03  0.66743408886E+02 0.  0.
          5    1    3    3  501    0 -0.37494248670E+02  0.70000547251E+02 -0.13599674658E+03  0.15755348418E+03  0.47000000000E+01 0. -1.
        -13    1    4    4    0    0 -0.53340495936E+01 -0.63915253473E+02 -0.34505258528E+02  0.72830107632E+02  0.00000000000E+00 0.  1.
         14    1    4    4    0    0 -0.28805497902E+02  0.12700580695E+02 -0.43716194091E+02  0.53871765194E+02  0.00000000000E+00 0. -1.
         -5    1    5    5    0  502  0.77694035382E+02 -0.32559490797E+02  0.18630982680E+02  0.86404207598E+02  0.47000000000E+01 0.  1.
         11    1    6    6    0    0  0.36804489672E+01  0.36486611082E+02  0.52907416714E+02  0.64374010565E+02  0.00000000000E+00 0. -1.
        -12    1    6    6    0    0 -0.97406881846E+01 -0.22712994758E+02  0.10233075735E+03  0.10527271744E+03  0.00000000000E+00 0.  1.
<mgrwt>
<rscale>  2 0.18768629E+03</rscale>
<asrwt>0</asrwt>
<pdfrwt beam="1">  1       21 0.38458250E-01 0.18796701E+03</pdfrwt>
<pdfrwt beam="2">  1       21 0.44665795E-01 0.18796701E+03</pdfrwt>
<totfact> 0.31449742E+04</totfact>
</mgrwt>
</event>
<event>
12    1  0.1029207E-001  0.3041471E+03  0.7546771E-02  0.1083204E+00
         21   -1    0    0  503  502  0.00000000000E+00  0.00000000000E+00  0.56565237653E+02  0.56565237653E+02  0.00000000000E+00 0. -1.
         21   -1    0    0  501  503 -0.00000000000E+00 -0.00000000000E+00 -0.36999300713E+04  0.36999300713E+04  0.00000000000E+00 0. -1.
          6    2    1    2  501    0 -0.79792551149E+02 -0.23676227910E+03 -0.32247945646E+04  0.32390916748E+04  0.17318101955E+03 0.  0.
         24    2    3    3    0    0 -0.87833085336E+02 -0.23295736783E+03 -0.32124136765E+04  0.32231384955E+04  0.83882929094E+02 0.  0.
         -6    2    1    2    0  502  0.79792551149E+02  0.23676227910E+03 -0.41857026905E+03  0.51740363421E+03  0.17344227437E+03 0.  0.
        -24    2    5    5    0    0 -0.10536376699E+02  0.15372464806E+03 -0.29694183618E+03  0.34457386520E+03  0.82549450916E+02 0.  0.
          5    1    3    3  501    0  0.80405341873E+01 -0.38049112665E+01 -0.12380888133E+02  0.15953179330E+02  0.47000000000E+01 0. -1.
        -11    1    4    4    0    0  0.75591153644E+01 -0.84985227866E+02 -0.90169293139E+03  0.90572058147E+03  0.00000000000E+00 0.  1.
         12    1    4    4    0    0 -0.95392200701E+02 -0.14797213996E+03 -0.23107207451E+04  0.23174179140E+04  0.00000000000E+00 0. -1.
         -5    1    5    5    0  502  0.90328927848E+02  0.83037631033E+02 -0.12162843287E+03  0.17282976901E+03  0.47000000000E+01 0.  1.
         11    1    6    6    0    0  0.23062845030E+02  0.70219249393E+02 -0.19523447527E+03  0.20875616911E+03  0.00000000000E+00 0. -1.
        -12    1    6    6    0    0 -0.33599221729E+02  0.83505398671E+02 -0.10170736091E+03  0.13581769609E+03  0.00000000000E+00 0.  1.
<mgrwt>
<rscale>  2 0.30410985E+03</rscale>
<asrwt>0</asrwt>
<pdfrwt beam="1">  1       21 0.87023408E-02 0.30414709E+03</pdfrwt>
<pdfrwt beam="2">  1       21 0.56922024E+00 0.30414709E+03</pdfrwt>
<totfact> 0.51976082E+01</totfact>
</mgrwt>
</event>
<event>
12    1  0.1029207E-001  0.2074522E+03  0.7546771E-02  0.1144200E+00
         21   -1    0    0  503  502  0.00000000000E+00  0.00000000000E+00  0.79171517619E+02  0.79171517619E+02  0.00000000000E+00 0.  1.
         21   -1    0    0  501  503 -0.00000000000E+00 -0.00000000000E+00 -0.53651835926E+03  0.53651835926E+03  0.00000000000E+00 0.  1.
          6    2    1    2  501    0  0.30332657073E+02 -0.10691201618E+03 -0.23786802026E+03  0.31368426632E+03  0.17165772511E+03 0.  0.
         24    2    3    3    0    0  0.55950159381E+02 -0.28976111271E+02 -0.19618825425E+03  0.22154548734E+03  0.81378968366E+02 0.  0.
         -6    2    1    2    0  502 -0.30332657073E+02  0.10691201618E+03 -0.21947882138E+03  0.30200561055E+03  0.17517473128E+03 0.  0.
        -24    2    5    5    0    0 -0.42111078472E+01  0.42500883296E+00 -0.15372896170E+03  0.17407222118E+03  0.81551397652E+02 0.  0.
          5    1    3    3  501    0 -0.25617502308E+02 -0.77935904914E+02 -0.41679766001E+02  0.92138778987E+02  0.47000000000E+01 0. -1.
        -13    1    4    4    0    0  0.76168136522E+02 -0.31731628284E+02 -0.15781329374E+03  0.17808289344E+03  0.00000000000E+00 0.  1.
         14    1    4    4    0    0 -0.20217977141E+02  0.27555170129E+01 -0.38374960514E+02  0.43462593896E+02  0.00000000000E+00 0. -1.
         -5    1    5    5    0  502 -0.26121549226E+02  0.10648700735E+03 -0.65749859686E+02  0.12793338938E+03  0.47000000000E+01 0.  1.
         13    1    6    6    0    0  0.23172337961E+02  0.23156090975E+01 -0.63208764497E+01  0.24130328865E+02  0.00000000000E+00 0. -1.
        -14    1    6    6    0    0 -0.27383445808E+02 -0.18906002646E+01 -0.14740808525E+03  0.14994189231E+03  0.00000000000E+00 0.  1.
<mgrwt>
<rscale>  2 0.20670797E+03</rscale>
<asrwt>0</asrwt>
<pdfrwt beam="1">  1       21 0.12180233E-01 0.20745225E+03</pdfrwt>
<pdfrwt beam="2">  1       21 0.82541287E-01 0.20745225E+03</pdfrwt>
<totfact> 0.72713977E+04</totfact>
</mgrwt>
</event>
<event>
12    1  0.1029207E-001  0.1976068E+03  0.7546771E-02  0.1152264E+00
         21   -1    0    0  501  502  0.00000000000E+00  0.00000000000E+00  0.15121892483E+03  0.15121892483E+03  0.00000000000E+00 0.  1.
         21   -1    0    0  502  503 -0.00000000000E+00 -0.00000000000E+00 -0.36345628183E+03  0.36345628183E+03  0.00000000000E+00 0. -1.
         -6    2    1    2    0  503  0.69150286855E+02  0.58954194773E+02 -0.24695312821E+03  0.31628195583E+03  0.17547384078E+03 0.  0.
        -24    2    3    3    0    0  0.47342885503E+01 -0.16109902183E+02 -0.17734161296E+03  0.19523695368E+03  0.79909185710E+02 0.  0.
          6    2    1    2  501    0 -0.69150286855E+02 -0.58954194773E+02  0.34715771219E+02  0.19839325083E+03  0.17290846697E+03 0.  0.
         24    2    5    5    0    0 -0.90175798619E+02 -0.99391291886E+01  0.58262913147E+02  0.13990302351E+03  0.89150591656E+02 0.  0.
          5    1    5    5  501    0  0.21025511763E+02 -0.49015065584E+02 -0.23547141928E+02  0.58490227321E+02  0.47000000000E+01 0. -1.
        -13    1    6    6    0    0 -0.82457061081E+02 -0.20648711931E+02  0.78523205316E+02  0.11572134634E+03  0.00000000000E+00 0.  1.
         14    1    6    6    0    0 -0.77187375375E+01  0.10709582743E+02 -0.20260292169E+02  0.24181677164E+02  0.00000000000E+00 0. -1.
         -5    1    3    3    0  503  0.64415998305E+02  0.75064096955E+02 -0.69611515254E+02  0.12104500215E+03  0.47000000000E+01 0.  1.
         11    1    4    4    0    0 -0.18397411167E+02  0.24459684323E+02 -0.41313084152E+02  0.51415093280E+02  0.00000000000E+00 0. -1.
        -12    1    4    4    0    0  0.23131699717E+02 -0.40569586506E+02 -0.13602852881E+03  0.14382186040E+03  0.00000000000E+00 0.  1.
<mgrwt>
<rscale>  2 0.19703566E+03</rscale>
<asrwt>0</asrwt>
<pdfrwt beam="1">  1       21 0.23264450E-01 0.19760675E+03</pdfrwt>
<pdfrwt beam="2">  1       21 0.55916351E-01 0.19760675E+03</pdfrwt>
<totfact> 0.52186384E+04</totfact>
</mgrwt>
</event>
<event>
12    1  0.1029207E-001  0.1936091E+03  0.7546771E-02  0.1155336E+00
         21   -1    0    0  501  502  0.00000000000E+00  0.00000000000E+00  0.14521661120E+03  0.14521661120E+03  0.00000000000E+00 0. -1.
         21   -1    0    0  502  503 -0.00000000000E+00 -0.00000000000E+00 -0.41543027224E+03  0.41543027224E+03  0.00000000000E+00 0. -1.
         -6    2    1    2    0  503  0.40826309748E+02  0.76990329936E+02 -0.30799139857E+03  0.36379000578E+03  0.17288773306E+03 0.  0.
        -24    2    3    3    0    0  0.73333705985E+02  0.22660815749E+02 -0.26609930695E+03  0.28772776638E+03  0.78019749969E+02 0.  0.
          6    2    1    2  501    0 -0.40826309748E+02 -0.76990329936E+02  0.37777737528E+02  0.19685687766E+03  0.17242730166E+03 0.  0.
         24    2    5    5    0    0 -0.81904968294E+02 -0.82818783308E+02  0.54360081337E+02  0.15192925606E+03  0.80994479462E+02 0.  0.
          5    1    5    5  501    0  0.41078658546E+02  0.58284533722E+01 -0.16582343809E+02  0.44927621603E+02  0.47000000000E+01 0. -1.
        -13    1    6    6    0    0 -0.94879604242E+02 -0.51677318248E+02  0.43772903187E+02  0.11657080070E+03  0.00000000000E+00 0.  1.
         14    1    6    6    0    0  0.12974635948E+02 -0.31141465060E+02  0.10587178150E+02  0.35358455357E+02  0.00000000000E+00 0. -1.
         -5    1    3    3    0  503 -0.32507396237E+02  0.54329514186E+02 -0.41892091618E+02  0.76062239396E+02  0.47000000000E+01 0.  1.
         13    1    4    4    0    0  0.18346768734E+02  0.39435368149E+02 -0.17236853941E+03  0.17777138567E+03  0.00000000000E+00 0. -1.
        -14    1    4    4    0    0  0.54986937251E+02 -0.16774552399E+02 -0.93730767536E+02  0.10995638071E+03  0.00000000000E+00 0.  1.
<mgrwt>
<rscale>  2 0.19350621E+03</rscale>
<asrwt>0</asrwt>
<pdfrwt beam="1">  1       21 0.22341018E-01 0.19360906E+03</pdfrwt>
<pdfrwt beam="2">  1       21 0.63912348E-01 0.19360906E+03</pdfrwt>
<totfact> 0.42376577E+04</totfact>
</mgrwt>
</event>
<event>
12    1  0.1029207E-001  0.2082004E+03  0.7546771E-02  0.1143065E+00
         21   -1    0    0  503  502  0.00000000000E+00  0.00000000000E+00  0.13990398569E+04  0.13990398569E+04  0.00000000000E+00 0. -1.
         21   -1    0    0  501  503 -0.00000000000E+00 -0.00000000000E+00 -0.90111663706E+02  0.90111663706E+02  0.00000000000E+00 0.  1.
          6    2    1    2  501    0  0.57051900038E+02  0.98676224624E+02  0.51256744773E+02  0.21441705308E+03  0.17422830471E+03 0.  0.
         24    2    3    3    0    0 -0.11837719438E+02  0.44679022458E+02 -0.28696591460E+02  0.95774297347E+02  0.78821792808E+02 0.  0.
         -6    2    1    2    0  502 -0.57051900038E+02 -0.98676224624E+02  0.12576714484E+04  0.12747344675E+04  0.17383490420E+03 0.  0.
        -24    2    5    5    0    0 -0.35108592890E+02  0.42378107455E+01  0.42587333251E+03  0.43629365086E+03  0.87940218950E+02 0.  0.
          5    1    3    3  501    0  0.68889619476E+02  0.53997202166E+02  0.79953336233E+02  0.11864275573E+03  0.47000000000E+01 0. -1.
        -11    1    4    4    0    0  0.16697747131E+02  0.53984493658E+02 -0.35522100008E+01  0.56619418141E+02  0.00000000000E+00 0.  1.
         12    1    4    4    0    0 -0.28535466570E+02 -0.93054711998E+01 -0.25144381460E+02  0.39154879205E+02  0.00000000000E+00 0. -1.
         -5    1    5    5    0  502 -0.21943307148E+02 -0.10291403537E+03  0.83179811592E+03  0.83844081667E+03  0.47000000000E+01 0.  1.
         11    1    6    6    0    0 -0.26351454050E+02 -0.32831699438E+02  0.33675970279E+03  0.33938093205E+03  0.00000000000E+00 0. -1.
        -12    1    6    6    0    0 -0.87571388395E+01  0.37069510183E+02  0.89113629720E+02  0.96912718813E+02  0.00000000000E+00 0.  1.
<mgrwt>
<rscale>  2 0.20811811E+03</rscale>
<asrwt>0</asrwt>
<pdfrwt beam="1">  1       21 0.21523689E+00 0.20820043E+03</pdfrwt>
<pdfrwt beam="2">  1       21 0.13863334E-01 0.20820043E+03</pdfrwt>
<totfact> 0.48009272E+03</totfact>
</mgrwt>
</event>
<event>
12    1  0.1029207E-001  0.1889114E+03  0.7546771E-02  0.1159632E+00
         21   -1    0    0  501  502  0.00000000000E+00  0.00000000000E+00  0.50637198990E+02  0.50637198990E+02  0.00000000000E+00 0. -1.
         21   -1    0    0  502  503 -0.00000000000E+00 -0.00000000000E+00 -0.88810913380E+03  0.88810913380E+03  0.00000000000E+00 0.  1.
         -6    2    1    2    0  503 -0.49137204966E+02 -0.58649356166E+02 -0.63303999339E+03  0.66039418573E+03  0.17183316163E+03 0.  0.
        -24    2    3    3    0    0 -0.14514619001E+02  0.22879535580E+02 -0.18936153309E+03  0.20793606637E+03  0.81519753252E+02 0.  0.
          6    2    1    2  501    0  0.49137204966E+02  0.58649356166E+02 -0.20443194143E+03  0.27835214706E+03  0.17272315191E+03 0.  0.
         24    2    5    5    0    0  0.58790815104E+02  0.87849324070E+02 -0.20775781503E+03  0.24706346301E+03  0.81872958710E+02 0.  0.
          5    1    5    5  501    0 -0.96536101381E+01 -0.29199967904E+02  0.33258736024E+01  0.31288684049E+02  0.47000000000E+01 0. -1.
        -13    1    6    6    0    0  0.75191442941E+02  0.44554222234E+02 -0.13458393808E+03  0.16047326319E+03  0.00000000000E+00 0.  1.
         14    1    6    6    0    0 -0.16400627837E+02  0.43295101836E+02 -0.73173876948E+02  0.86590199815E+02  0.00000000000E+00 0. -1.
         -5    1    3    3    0  503 -0.34622585965E+02 -0.81528891747E+02 -0.44367846029E+03  0.45245811936E+03  0.47000000000E+01 0.  1.
         11    1    4    4    0    0 -0.24576157627E+01 -0.15430629101E+02 -0.13507586041E+01  0.15683390530E+02  0.00000000000E+00 0. -1.
        -12    1    4    4    0    0 -0.12057003238E+02  0.38310164682E+02 -0.18801077449E+03  0.19225267584E+03  0.00000000000E+00 0.  1.
<mgrwt>
<rscale>  2 0.18870768E+03</rscale>
<asrwt>0</asrwt>
<pdfrwt beam="1">  1       21 0.77903389E-02 0.18891135E+03</pdfrwt>
<pdfrwt beam="2">  1       21 0.13663216E+00 0.18891135E+03</pdfrwt>
<totfact> 0.47978705E+04</totfact>
</mgrwt>
</event>
<event>
12    1  0.1029207E-001  0.1740063E+03  0.7546771E-02  0.1173870E+00
         21   -1    0    0  503  502  0.00000000000E+00  0.00000000000E+00  0.44246788868E+03  0.44246788868E+03  0.00000000000E+00 0. -1.
         21   -1    0    0  501  503 -0.00000000000E+00 -0.00000000000E+00 -0.68250401805E+02  0.68250401805E+02  0.00000000000E+00 0. -1.
          6    2    1    2  501    0  0.19753862992E+02 -0.28428020981E+01  0.18122244207E+03  0.25086200528E+03  0.17231330638E+03 0.  0.
         24    2    3    3    0    0  0.54760460410E+02  0.24741072240E+02  0.40411512249E+02  0.10309144007E+03  0.73375241144E+02 0.  0.
         -6    2    1    2    0  502 -0.19753862992E+02  0.28428020981E+01  0.19299504480E+03  0.25985628520E+03  0.17285804874E+03 0.  0.
        -24    2    5    5    0    0  0.41371191445E+02 -0.31511702345E+02  0.73702619502E+02  0.12140312710E+03  0.81253186283E+02 0.  0.
          5    1    3    3  501    0 -0.35006597418E+02 -0.27583874338E+02  0.14081092983E+03  0.14777056522E+03  0.47000000000E+01 0. -1.
        -13    1    4    4    0    0  0.20922126096E+02 -0.18817268925E+02 -0.84746717108E+01  0.29387838145E+02  0.00000000000E+00 0.  1.
         14    1    4    4    0    0  0.33838334314E+02  0.43558341165E+02  0.48886183960E+02  0.73703601923E+02  0.00000000000E+00 0. -1.
         -5    1    5    5    0  502 -0.61125054437E+02  0.34354504443E+02  0.11929242530E+03  0.13845315810E+03  0.47000000000E+01 0.  1.
         11    1    6    6    0    0  0.27662101536E+02 -0.52808980136E+02  0.21487952436E+02  0.63369648447E+02  0.00000000000E+00 0. -1.
        -12    1    6    6    0    0  0.13709089909E+02  0.21297277791E+02  0.52214667066E+02  0.58033478650E+02  0.00000000000E+00 0.  1.
<mgrwt>
<rscale>  2 0.17387088E+03</rscale>
<asrwt>0</asrwt>
<pdfrwt beam="1">  1       21 0.68071981E-01 0.17400633E+03</pdfrwt>
<pdfrwt beam="2">  1       21 0.10500062E-01 0.17400633E+03</pdfrwt>
<totfact> 0.14758862E+05</totfact>
</mgrwt>
</event>
<event>
12    1  0.1029207E-001  0.2416068E+03  0.7546771E-02  0.1118825E+00
         21   -1    0    0  503  502  0.00000000000E+00  0.00000000000E+00  0.12681626991E+03  0.12681626991E+03  0.00000000000E+00 0.  1.
         21   -1    0    0  501  503 -0.00000000000E+00 -0.00000000000E+00 -0.85240888657E+03  0.85240888657E+03  0.00000000000E+00 0. -1.
          6    2    1    2  501    0 -0.57434970864E+02  0.15938787442E+03 -0.69558229916E+03  0.73634813434E+03  0.17225147213E+03 0.  0.
         24    2    3    3    0    0 -0.68553464872E+02  0.98251020072E+02 -0.27349365717E+03  0.30968404214E+03  0.82174113669E+02 0.  0.
         -6    2    1    2    0  502  0.57434970864E+02 -0.15938787442E+03 -0.30010317497E+02  0.24287702214E+03  0.17142158072E+03 0.  0.
        -24    2    5    5    0    0  0.37627463213E+02 -0.13312760685E+02 -0.35131583785E+02  0.95301300626E+02  0.79088900212E+02 0.  0.
          5    1    3    3  501    0  0.11118494009E+02  0.61136854353E+02 -0.42208864199E+03  0.42666409219E+03  0.47000000000E+01 0. -1.
        -11    1    4    4    0    0  0.52738071454E+01  0.54488450652E+01  0.35159970272E+01  0.83585399112E+01  0.00000000000E+00 0.  1.
         12    1    4    4    0    0 -0.73827272018E+02  0.92802175007E+02 -0.27700965419E+03  0.30132550223E+03  0.00000000000E+00 0. -1.
         -5    1    5    5    0  502  0.19807507650E+02 -0.14607511374E+03  0.51212662888E+01  0.14757572152E+03  0.47000000000E+01 0.  1.
         11    1    6    6    0    0  0.43493479332E+02 -0.31300627374E+02 -0.48387538004E+02  0.72199486511E+02  0.00000000000E+00 0. -1.
        -12    1    6    6    0    0 -0.58660161184E+01  0.17987866689E+02  0.13255954219E+02  0.23101814115E+02  0.00000000000E+00 0.  1.
<mgrwt>
<rscale>  2 0.24145891E+03</rscale>
<asrwt>0</asrwt>
<pdfrwt beam="1">  1       21 0.19510195E-01 0.24160679E+03</pdfrwt>
<pdfrwt beam="2">  1       21 0.13113983E+00 0.24160679E+03</pdfrwt>
<totfact> 0.98891266E+03</totfact>
</mgrwt>
</event>
<event>
12    1  0.1029207E-001  0.1912976E+03  0.7546771E-02  0.1157382E+00
         21   -1    0    0  501  502  0.00000000000E+00  0.00000000000E+00  0.12227203547E+03  0.12227203547E+03  0.00000000000E+00 0.  1.
         21   -1    0    0  502  503 -0.00000000000E+00 -0.00000000000E+00 -0.32863798328E+03  0.32863798328E+03  0.00000000000E+00 0.  1.
         -6    2    1    2    0  503  0.14163982669E+02 -0.79192764826E+02 -0.35028173951E+02  0.19409998541E+03  0.17313497325E+03 0.  0.
        -24    2    3    3    0    0  0.68128647847E+02 -0.76616454505E+02 -0.35125309404E+01  0.13137719676E+03  0.82073358622E+02 0.  0.
          6    2    1    2  501    0 -0.14163982669E+02  0.79192764826E+02 -0.17133777386E+03  0.25681003333E+03  0.17355877409E+03 0.  0.
         24    2    5    5    0    0 -0.21396298287E+02  0.72704113248E+02 -0.19862688095E+03  0.22746392023E+03  0.80891949600E+02 0.  0.
          5    1    5    5  501    0  0.72323156181E+01  0.64886515787E+01  0.27289107085E+02  0.29346113099E+02  0.47000000000E+01 0. -1.
        -13    1    6    6    0    0 -0.47428898764E+02  0.26873500848E+02 -0.12972690243E+03  0.14071515448E+03  0.00000000000E+00 0.  1.
         14    1    6    6    0    0  0.26032600477E+02  0.45830612400E+02 -0.68899978516E+02  0.86748765755E+02  0.00000000000E+00 0. -1.
         -5    1    3    3    0  503 -0.53964665178E+02 -0.25763103216E+01 -0.31515643010E+02  0.62722788658E+02  0.47000000000E+01 0.  1.
         11    1    4    4    0    0 -0.13095325585E+02  0.28147675570E+01  0.10349759656E+02  0.16927137783E+02  0.00000000000E+00 0. -1.
        -12    1    4    4    0    0  0.81223973432E+02 -0.79431222062E+02 -0.13862290597E+02  0.11445005897E+03  0.00000000000E+00 0.  1.
<mgrwt>
<rscale>  2 0.19120139E+03</rscale>
<asrwt>0</asrwt>
<pdfrwt beam="1">  1       21 0.18811083E-01 0.19129757E+03</pdfrwt>
<pdfrwt beam="2">  1       21 0.50559689E-01 0.19129757E+03</pdfrwt>
<totfact> 0.96382410E+04</totfact>
</mgrwt>
</event>
<event>
12    1  0.1029207E-001  0.1782255E+03  0.7546771E-02  0.1170556E+00
         21   -1    0    0  503  502  0.00000000000E+00  0.00000000000E+00  0.14895294653E+04  0.14895294653E+04  0.00000000000E+00 0.  1.
         21   -1    0    0  501  503 -0.00000000000E+00 -0.00000000000E+00 -0.27447098394E+02  0.27447098394E+02  0.00000000000E+00 0.  1.
          6    2    1    2  501    0 -0.14563279100E+02 -0.11704822450E+02  0.35225315732E+03  0.39292799031E+03  0.17309253816E+03 0.  0.
         24    2    3    3    0    0 -0.26217290603E+02  0.33323193086E+02  0.10040075234E+03  0.13677361877E+03  0.82637341422E+02 0.  0.
         -6    2    1    2    0  502  0.14563279100E+02  0.11704822450E+02  0.11098292096E+04  0.11240485734E+04  0.17724341707E+03 0.  0.
        -24    2    5    5    0    0  0.20356460701E+02  0.74532179995E+02  0.62614125221E+03  0.63624024225E+03  0.82336788792E+02 0.  0.
          5    1    3    3  501    0  0.11654011502E+02 -0.45028015536E+02  0.25185240498E+03  0.25615437155E+03  0.47000000000E+01 0. -1.
        -13    1    4    4    0    0  0.39400321088E+01 -0.23702078830E+02  0.47947947791E+02  0.53631316330E+02  0.00000000000E+00 0.  1.
         14    1    4    4    0    0 -0.30157322711E+02  0.57025271916E+02  0.52452804545E+02  0.83142302439E+02  0.00000000000E+00 0. -1.
         -5    1    5    5    0  502 -0.57931816003E+01 -0.62827357545E+02  0.48368795741E+03  0.48780833117E+03  0.47000000000E+01 0.  1.
         13    1    6    6    0    0 -0.19246203526E+02  0.44463823868E+02  0.46712621366E+03  0.46963214059E+03  0.00000000000E+00 0. -1.
        -14    1    6    6    0    0  0.39602664227E+02  0.30068356127E+02  0.15901503855E+03  0.16660810166E+03  0.00000000000E+00 0.  1.
<mgrwt>
<rscale>  2 0.17718453E+03</rscale>
<asrwt>0</asrwt>
<pdfrwt beam="1">  1       21 0.22915832E+00 0.17822548E+03</pdfrwt>
<pdfrwt beam="2">  1       21 0.42226317E-02 0.17822548E+03</pdfrwt>
<totfact> 0.32020814E+04</totfact>
</mgrwt>
</event>
<event>
12    1  0.1029207E-001  0.1823039E+03  0.7546771E-02  0.1166008E+00
         21   -1    0    0  501  502  0.00000000000E+00  0.00000000000E+00  0.16222746785E+02  0.16222746785E+02  0.00000000000E+00 0. -1.
         21   -1    0    0  502  503 -0.00000000000E+00 -0.00000000000E+00 -0.20310538619E+04  0.20310538619E+04  0.00000000000E+00 0. -1.
         -6    2    1    2    0  503  0.55215167697E+01  0.51054866197E+02 -0.97121406986E+03  0.98785636199E+03  0.17310787370E+03 0.  0.
        -24    2    3    3    0    0 -0.54838830365E+02 -0.54720045373E+01 -0.45834748256E+03  0.46834420141E+03  0.78909036772E+02 0.  0.
          6    2    1    2  501    0 -0.55215167697E+01 -0.51054866197E+02 -0.10436170453E+04  0.10594202467E+04  0.17492179805E+03 0.  0.
         24    2    5    5    0    0 -0.59127571509E+02 -0.73215425663E+02 -0.75312469022E+03  0.76315584141E+03  0.79708663204E+02 0.  0.
          5    1    5    5  501    0  0.53606054739E+02  0.22160559466E+02 -0.29049235507E+03  0.29626440531E+03  0.47000000000E+01 0. -1.
        -11    1    6    6    0    0  0.18830052862E+02 -0.53763323443E+01 -0.98989147699E+02  0.10090751807E+03  0.00000000000E+00 0.  1.
         12    1    6    6    0    0 -0.77957624371E+02 -0.67839093319E+02 -0.65413554252E+03  0.66224832334E+03  0.00000000000E+00 0. -1.
         -5    1    3    3    0  503  0.60360347135E+02  0.56526870734E+02 -0.51286658730E+03  0.51951216058E+03  0.47000000000E+01 0.  1.
         11    1    4    4    0    0  0.17551033244E+02 -0.10294265108E+02 -0.16066814325E+03  0.16195142148E+03  0.00000000000E+00 0. -1.
        -12    1    4    4    0    0 -0.72389863609E+02  0.48222605709E+01 -0.29767933930E+03  0.30639277994E+03  0.00000000000E+00 0.  1.
<mgrwt>
<rscale>  2 0.18186742E+03</rscale>
<asrwt>0</asrwt>
<pdfrwt beam="1">  1       21 0.24958088E-02 0.18230393E+03</pdfrwt>
<pdfrwt beam="2">  1       21 0.31246963E+00 0.18230393E+03</pdfrwt>
<totfact> 0.25057722E+04</totfact>
</mgrwt>
</event>
<event>
12    1  0.1029207E-001  0.1810603E+03  0.7546771E-02  0.1166999E+00
         21   -1    0    0  501  502  0.00000000000E+00  0.00000000000E+00  0.16947289160E+02  0.16947289160E+02  0.00000000000E+00 0. -1.
         21   -1    0    0  502  503 -0.00000000000E+00 -0.00000000000E+00 -0.21817300230E+04  0.21817300230E+04  0.00000000000E+00 0.  1.
         -6    2    1    2    0  503  0.49129108194E+02  0.28277807169E+02 -0.14621079382E+04  0.14732761013E+04  0.17195797226E+03 0.  0.
        -24    2    3    3    0    0  0.67629277029E+02  0.58584498250E+02 -0.13549245587E+04  0.13602667273E+04  0.80617288644E+02 0.  0.
          6    2    1    2  501    0 -0.49129108194E+02 -0.28277807169E+02 -0.70267479570E+03  0.72540121086E+03  0.17100217707E+03 0.  0.
         24    2    5    5    0    0 -0.15681950647E+02 -0.72607359958E+02 -0.31920947133E+03  0.33790725402E+03  0.82273163521E+02 0.  0.
          5    1    5    5  501    0 -0.33447157547E+02  0.44329552789E+02 -0.38346532437E+03  0.38749395685E+03  0.47000000000E+01 0. -1.
        -11    1    6    6    0    0 -0.23836612361E+02 -0.66161485489E+02 -0.31985304729E+03  0.32749274513E+03  0.00000000000E+00 0.  1.
         12    1    6    6    0    0  0.81546617137E+01 -0.64458744693E+01  0.64357596391E+00  0.10414508887E+02  0.00000000000E+00 0. -1.
         -5    1    3    3    0  503 -0.18500168835E+02 -0.30306691081E+02 -0.10718337951E+03  0.11300937401E+03  0.47000000000E+01 0.  1.
         13    1    4    4    0    0 -0.89304054532E+01  0.34396218772E+02 -0.26232635272E+03  0.26472243452E+03  0.00000000000E+00 0. -1.
        -14    1    4    4    0    0  0.76559682482E+02  0.24188279478E+02 -0.10925982059E+04  0.10955442928E+04  0.00000000000E+00 0.  1.
<mgrwt>
<rscale>  2 0.18083304E+03</rscale>
<asrwt>0</asrwt>
<pdfrwt beam="1">  1       21 0.26072767E-02 0.18106034E+03</pdfrwt>
<pdfrwt beam="2">  1       21 0.33565059E+00 0.18106034E+03</pdfrwt>
<totfact> 0.17155926E+04</totfact>
</mgrwt>
</event>
<event>
12    1  0.1029207E-001  0.2036870E+03  0.7546771E-02  0.1147455E+00
         21   -1    0    0  501  502  0.00000000000E+00  0.00000000000E+00  0.80544577118E+02  0.80544577118E+02  0.00000000000E+00 0. -1.
         21   -1    0    0  502  503 -0.00000000000E+00 -0.00000000000E+00 -0.90152403490E+03  0.90152403490E+03  0.00000000000E+00 0. -1.
         -6    2    1    2    0  503  0.52879894834E+02 -0.93581619530E+02 -0.73807584178E+03  0.76566594377E+03  0.17301614503E+03 0.  0.
        -24    2    3    3    0    0  0.86616235334E+02 -0.11294833972E+03 -0.62323526747E+03  0.64432486240E+03  0.80452656998E+02 0.  0.
          6    2    1    2  501    0 -0.52879894834E+02  0.93581619530E+02 -0.82903616002E+02  0.21640266825E+03  0.16853279350E+03 0.  0.
         24    2    5    5    0    0  0.69224701875E+01  0.60314016650E+01 -0.75173230975E+02  0.10999208436E+03  0.79768073607E+02 0.  0.
          5    1    5    5  501    0 -0.59802365021E+02  0.87550217865E+02 -0.77303850268E+01  0.10641058389E+03  0.47000000000E+01 0. -1.
        -13    1    6    6    0    0  0.13378066031E+02 -0.34292269051E+02 -0.49753393417E+02  0.61889680270E+02  0.00000000000E+00 0.  1.
         14    1    6    6    0    0 -0.64555958433E+01  0.40323670716E+02 -0.25419837558E+02  0.48102404090E+02  0.00000000000E+00 0. -1.
         -5    1    3    3    0  503 -0.33736340500E+02  0.19366720188E+02 -0.11484057430E+03  0.12134108137E+03  0.47000000000E+01 0.  1.
         11    1    4    4    0    0 -0.12717534436E+02 -0.30645393148E+02 -0.97353010242E+02  0.10285175938E+03  0.00000000000E+00 0. -1.
        -12    1    4    4    0    0  0.99333769770E+02 -0.82302946569E+02 -0.52588225723E+03  0.54147310303E+03  0.00000000000E+00 0.  1.
<mgrwt>
<rscale>  2 0.20273173E+03</rscale>
<asrwt>0</asrwt>
<pdfrwt beam="1">  1       21 0.12391473E-01 0.20368699E+03</pdfrwt>
<pdfrwt beam="2">  1       21 0.13869601E+00 0.20368699E+03</pdfrwt>
<totfact> 0.20162783E+04</totfact>
</mgrwt>
</event>
<event>
12    1  0.1029207E-001  0.1875347E+03  0.7546771E-02  0.1160959E+00
         21   -1    0    0  501  502  0.00000000000E+00  0.00000000000E+00  0.41876330970E+02  0.41876330970E+02  0.00000000000E+00 0.  1.
         21   -1    0    0  502  503 -0.00000000000E+00 -0.00000000000E+00 -0.89362089307E+03  0.89362089307E+03  0.00000000000E+00 0.  1.
         -6    2    1    2    0  503  0.68162728331E+02 -0.14839244548E+02 -0.30477448360E+03  0.35727102017E+03  0.17288358882E+03 0.  0.
        -24    2    3    3    0    0  0.23755597775E+02 -0.38317848608E+01 -0.57515799236E+02  0.10577130962E+03  0.85442915302E+02 0.  0.
          6    2    1    2  501    0 -0.68162728331E+02  0.14839244548E+02 -0.54697007850E+03  0.57822620387E+03  0.17407732581E+03 0.  0.
         24    2    5    5    0    0 -0.15090119745E+02  0.66347608086E+02 -0.40360601826E+03  0.41684108354E+03  0.78923723550E+02 0.  0.
          5    1    5    5  501    0 -0.53072608586E+02 -0.51508363538E+02 -0.14336406024E+03  0.16138512033E+03  0.47000000000E+01 0. -1.
        -11    1    6    6    0    0  0.13142587921E+02 -0.10286951771E+02 -0.29217875945E+02  0.33648674100E+02  0.00000000000E+00 0.  1.
         12    1    6    6    0    0 -0.28232707665E+02  0.76634559857E+02 -0.37438814231E+03  0.38319240944E+03  0.00000000000E+00 0. -1.
         -5    1    3    3    0  503  0.44407130557E+02 -0.11007459687E+02 -0.24725868437E+03  0.25149971055E+03  0.47000000000E+01 0.  1.
         13    1    4    4    0    0  0.12994348420E+02 -0.44387400341E+02 -0.36048625306E+02  0.58639558204E+02  0.00000000000E+00 0. -1.
        -14    1    4    4    0    0  0.10761249355E+02  0.40555615480E+02 -0.21467173931E+02  0.47131751413E+02  0.00000000000E+00 0.  1.
<mgrwt>
<rscale>  2 0.18725723E+03</rscale>
<asrwt>0</asrwt>
<pdfrwt beam="1">  1       21 0.64425132E-02 0.18753473E+03</pdfrwt>
<pdfrwt beam="2">  1       21 0.13748012E+00 0.18753473E+03</pdfrwt>
<totfact> 0.65612078E+04</totfact>
</mgrwt>
</event>
<event>
12    1  0.1029207E-001  0.2172200E+03  0.7546771E-02  0.1135998E+00
         21   -1    0    0  503  502  0.00000000000E+00  0.00000000000E+00  0.56454878441E+03  0.56454878441E+03  0.00000000000E+00 0. -1.
         21   -1    0    0  501  503 -0.00000000000E+00 -0.00000000000E+00 -0.83601392752E+02  0.83601392752E+02  0.00000000000E+00 0. -1.
          6    2    1    2  501    0 -0.11977593111E+03 -0.55616405125E+02  0.23100388012E+03  0.31709195101E+03  0.17246754643E+03 0.  0.
         24    2    3    3    0    0 -0.35603642302E+01 -0.38821765726E+02  0.15153452754E+03  0.17522727642E+03  0.78880160216E+02 0.  0.
         -6    2    1    2    0  502  0.11977593111E+03  0.55616405125E+02  0.24994351154E+03  0.33105822616E+03  0.17230302363E+03 0.  0.
        -24    2    5    5    0    0  0.99958684103E+02 -0.13554167819E+02  0.95222222711E+02  0.16035948961E+03  0.80451477409E+02 0.  0.
          5    1    3    3  501    0 -0.11621556688E+03 -0.16794639400E+02  0.79469352578E+02  0.14186467459E+03  0.47000000000E+01 0. -1.
        -13    1    4    4    0    0  0.24536373174E+02 -0.51481084640E+02  0.93556696449E+02  0.10956820312E+03  0.00000000000E+00 0.  1.
         14    1    4    4    0    0 -0.28096737404E+02  0.12659318914E+02  0.57977831091E+02  0.65659073297E+02  0.00000000000E+00 0. -1.
         -5    1    5    5    0  502  0.19817247009E+02  0.69170572944E+02  0.15472128883E+03  0.17069873654E+03  0.47000000000E+01 0.  1.
         13    1    6    6    0    0  0.26910773800E+01  0.48603284756E+01 -0.12729382756E+02  0.13888911970E+02  0.00000000000E+00 0. -1.
        -14    1    6    6    0    0  0.97267606723E+02 -0.18414496295E+02  0.10795160547E+03  0.14647057764E+03  0.00000000000E+00 0.  1.
<mgrwt>
<rscale>  2 0.21718731E+03</rscale>
<asrwt>0</asrwt>
<pdfrwt beam="1">  1       21 0.86853656E-01 0.21721996E+03</pdfrwt>
<pdfrwt beam="2">  1       21 0.12861753E-01 0.21721996E+03</pdfrwt>
<totfact> 0.58410630E+04</totfact>
</mgrwt>
</event>
<event>
12    1  0.1029207E-001  0.4208010E+03  0.7546771E-02  0.1036812E+00
         21   -1    0    0  503  502  0.00000000000E+00  0.00000000000E+00  0.51792275123E+03  0.51792275123E+03  0.00000000000E+00 0.  1.
         21   -1    0    0  501  503 -0.00000000000E+00 -0.00000000000E+00 -0.39504783878E+03  0.39504783878E+03  0.00000000000E+00 0. -1.
          6    2    1    2  501    0  0.16074692212E+03  0.34781969077E+03  0.22898151809E+03  0.47906784751E+03  0.17394066985E+03 0.  0.
         24    2    3    3    0    0  0.10678316582E+03  0.32143924325E+03  0.23148509969E+03  0.41876550156E+03  0.83984298033E+02 0.  0.
         -6    2    1    2    0  502 -0.16074692212E+03 -0.34781969077E+03 -0.10610660563E+03  0.43390274250E+03  0.17376670548E+03 0.  0.
        -24    2    5    5    0    0 -0.15676362811E+03 -0.17958965096E+03 -0.79309579532E+02  0.26344047825E+03  0.79269151281E+02 0.  0.
          5    1    3    3  501    0  0.53963756300E+02  0.26380447520E+02 -0.25035816020E+01  0.60302345943E+02  0.47000000000E+01 0. -1.
        -11    1    4    4    0    0  0.26670997314E+02  0.10981753621E+03  0.12554197660E+03  0.16891424229E+03  0.00000000000E+00 0.  1.
         12    1    4    4    0    0  0.80112168505E+02  0.21162170704E+03  0.10594312308E+03  0.24985125928E+03  0.00000000000E+00 0. -1.
         -5    1    5    5    0  502 -0.39832940080E+01 -0.16823003981E+03 -0.26797026100E+02  0.17046226425E+03  0.47000000000E+01 0.  1.
         13    1    6    6    0    0 -0.43245250354E+02 -0.10767704753E+03 -0.26275525635E+02  0.11897437325E+03  0.00000000000E+00 0. -1.
        -14    1    6    6    0    0 -0.11351837776E+03 -0.71912603428E+02 -0.53034053897E+02  0.14446610500E+03  0.00000000000E+00 0.  1.
<mgrwt>
<rscale>  2 0.42078301E+03</rscale>
<asrwt>0</asrwt>
<pdfrwt beam="1">  1       21 0.79680423E-01 0.42080098E+03</pdfrwt>
<pdfrwt beam="2">  1       21 0.60776590E-01 0.42080098E+03</pdfrwt>
<totfact> 0.30795803E+03</totfact>
</mgrwt>
</event>
<event>
12    1  0.1029207E-001  0.2372304E+03  0.7546771E-02  0.1121749E+00
         21   -1    0    0  501  502  0.00000000000E+00  0.00000000000E+00  0.39666406335E+03  0.39666406335E+03  0.00000000000E+00 0. -1.
         21   -1    0    0  502  503 -0.00000000000E+00 -0.00000000000E+00 -0.24983102095E+03  0.24983102095E+03  0.00000000000E+00 0. -1.
         -6    2    1    2    0  503 -0.10905780134E+03  0.12049608277E+03 -0.13935455834E+03  0.27513265319E+03  0.17281601177E+03 0.  0.
        -24    2    3    3    0    0 -0.12613974671E+03  0.10205100268E+03 -0.60807910262E+02  0.19252708582E+03  0.83925168892E+02 0.  0.
          6    2    1    2  501    0  0.10905780134E+03 -0.12049608277E+03  0.28618760074E+03  0.37136243110E+03  0.17202849304E+03 0.  0.
         24    2    5    5    0    0 -0.12632829819E+02 -0.55803497101E+02  0.13367242522E+03  0.16574942296E+03  0.79567174565E+02 0.  0.
          5    1    5    5  501    0  0.12169063116E+03 -0.64692585667E+02  0.15251517552E+03  0.20561300814E+03  0.47000000000E+01 0. -1.
        -13    1    6    6    0    0 -0.12100696596E+02  0.13521902890E+02  0.38117672049E+01  0.18541798324E+02  0.00000000000E+00 0.  1.
         14    1    6    6    0    0 -0.53213322296E+00 -0.69325399991E+02  0.12986065802E+03  0.14720762463E+03  0.00000000000E+00 0. -1.
         -5    1    3    3    0  503  0.17081945368E+02  0.18445080086E+02 -0.78546648080E+02  0.82605567376E+02  0.47000000000E+01 0.  1.
         13    1    4    4    0    0 -0.46106237462E+02  0.83830281468E+02 -0.54729849671E+02  0.11022094932E+03  0.00000000000E+00 0. -1.
        -14    1    4    4    0    0 -0.80033509251E+02  0.18220721215E+02 -0.60780605910E+01  0.82306136498E+02  0.00000000000E+00 0.  1.
<mgrwt>
<rscale>  2 0.23708705E+03</rscale>
<asrwt>0</asrwt>
<pdfrwt beam="1">  1       21 0.61025241E-01 0.23723044E+03</pdfrwt>
<pdfrwt beam="2">  1       21 0.38435542E-01 0.23723044E+03</pdfrwt>
<totfact> 0.15886832E+04</totfact>
</mgrwt>
</event>
<event>
12    1  0.1029207E-001  0.2283487E+03  0.7546771E-02  0.1127852E+00
         21   -1    0    0  501  502  0.00000000000E+00  0.00000000000E+00  0.24188371200E+03  0.24188371200E+03  0.00000000000E+00 0.  1.
         21   -1    0    0  502  503 -0.00000000000E+00 -0.00000000000E+00 -0.22456192456E+03  0.22456192456E+03  0.00000000000E+00 0.  1.
         -6    2    1    2    0  503 -0.10080735961E+03  0.10932730943E+03 -0.38606092583E+02  0.23158919085E+03  0.17328744500E+03 0.  0.
        -24    2    3    3    0    0 -0.28172170005E+02 -0.42513113148E+01 -0.42207173795E+02  0.96640935418E+02  0.82135741720E+02 0.  0.
          6    2    1    2  501    0  0.10080735961E+03 -0.10932730943E+03  0.55927880022E+02  0.23485644572E+03  0.17295964268E+03 0.  0.
         24    2    5    5    0    0  0.13855244864E+03 -0.86593993552E+02  0.59021244202E+02  0.19043624425E+03  0.78020222467E+02 0.  0.
          5    1    5    5  501    0 -0.37745089033E+02 -0.22733315873E+02 -0.30933641795E+01  0.44420201470E+02  0.47000000000E+01 0. -1.
        -13    1    6    6    0    0  0.81635268102E+02 -0.53858510030E+01  0.29470945195E+02  0.86958961584E+02  0.00000000000E+00 0.  1.
         14    1    6    6    0    0  0.56917180539E+02 -0.81208142549E+02  0.29550299007E+02  0.10347728267E+03  0.00000000000E+00 0. -1.
         -5    1    3    3    0  503 -0.72635189602E+02  0.11357862074E+03  0.36010812127E+01  0.13494825543E+03  0.47000000000E+01 0.  1.
         11    1    4    4    0    0 -0.35033734148E+02 -0.14113303371E+02  0.13151277379E+02  0.39993798983E+02  0.00000000000E+00 0. -1.
        -12    1    4    4    0    0  0.68615641424E+01  0.98619920565E+01 -0.55358451174E+02  0.56647136434E+02  0.00000000000E+00 0.  1.
<mgrwt>
<rscale>  2 0.22828650E+03</rscale>
<asrwt>0</asrwt>
<pdfrwt beam="1">  1       21 0.37212878E-01 0.22834869E+03</pdfrwt>
<pdfrwt beam="2">  1       21 0.34547989E-01 0.22834869E+03</pdfrwt>
<totfact> 0.55335779E+04</totfact>
</mgrwt>
</event>
<event>
12    1  0.1029207E-001  0.2107929E+03  0.7546771E-02  0.1141891E+00
         21   -1    0    0  503  502  0.00000000000E+00  0.00000000000E+00  0.64845200776E+02  0.64845200776E+02  0.00000000000E+00 0.  1.
         21   -1    0    0  501  503 -0.00000000000E+00 -0.00000000000E+00 -0.87769803453E+03  0.87769803453E+03  0.00000000000E+00 0.  1.
          6    2    1    2  501    0  0.75975561522E+02  0.82645817482E+02 -0.63222612431E+03  0.66494706008E+03  0.17274867105E+03 0.  0.
         24    2    3    3    0    0  0.63392477066E+02  0.70718519208E+02 -0.63468612570E+03  0.64681597998E+03  0.80775730921E+02 0.  0.
         -6    2    1    2    0  502 -0.75975561522E+02 -0.82645817482E+02 -0.18062670945E+03  0.27759617523E+03  0.17841247502E+03 0.  0.
        -24    2    5    5    0    0 -0.75305509845E+02 -0.90759276360E+02 -0.20597162493E+03  0.25056412157E+03  0.80311286133E+02 0.  0.
          5    1    3    3  501    0  0.12583084456E+02  0.11927298274E+02  0.24600013853E+01  0.18131080094E+02  0.47000000000E+01 0. -1.
        -13    1    4    4    0    0  0.33173775391E+02  0.81362004535E+02 -0.37474492842E+03  0.38490782862E+03  0.00000000000E+00 0.  1.
         14    1    4    4    0    0  0.30218701675E+02 -0.10643485327E+02 -0.25994119728E+03  0.26190815137E+03  0.00000000000E+00 0. -1.
         -5    1    5    5    0  502 -0.67005167736E+00  0.81134588778E+01  0.25344915487E+02  0.27032053664E+02  0.47000000000E+01 0.  1.
         11    1    6    6    0    0 -0.82978416301E+02 -0.61352855782E+02 -0.19003702686E+03  0.21624907413E+03  0.00000000000E+00 0. -1.
        -12    1    6    6    0    0  0.76729064563E+01 -0.29406420578E+02 -0.15934598071E+02  0.34315047434E+02  0.00000000000E+00 0.  1.
<mgrwt>
<rscale>  2 0.20958967E+03</rscale>
<asrwt>0</asrwt>
<pdfrwt beam="1">  1       21 0.99761847E-02 0.21079286E+03</pdfrwt>
<pdfrwt beam="2">  1       21 0.13503047E+00 0.21079286E+03</pdfrwt>
<totfact> 0.31650326E+04</totfact>
</mgrwt>
</event>
<event>
12    1  0.1029207E-001  0.2615455E+03  0.7546771E-02  0.1106320E+00
         21   -1    0    0  503  502  0.00000000000E+00  0.00000000000E+00  0.73403704247E+02  0.73403704247E+02  0.00000000000E+00 0.  1.
         21   -1    0    0  501  503 -0.00000000000E+00 -0.00000000000E+00 -0.10655406810E+04  0.10655406810E+04  0.00000000000E+00 0. -1.
          6    2    1    2  501    0 -0.17800597369E+03  0.83932324457E+02 -0.69899659190E+03  0.74608646216E+03  0.17122503257E+03 0.  0.
         24    2    3    3    0    0 -0.15546051527E+02  0.38856817728E+02 -0.27058500541E+03  0.28566968895E+03  0.81482476834E+02 0.  0.
         -6    2    1    2    0  502  0.17800597369E+03 -0.83932324457E+02 -0.29314038485E+03  0.39285792308E+03  0.17226520467E+03 0.  0.
        -24    2    5    5    0    0  0.18368179994E+03 -0.65448412320E+02 -0.17090377927E+03  0.26901226205E+03  0.71672847438E+02 0.  0.
          5    1    3    3  501    0 -0.16245992216E+03  0.45075506729E+02 -0.42841158648E+03  0.46041677321E+03  0.47000000000E+01 0. -1.
        -13    1    4    4    0    0  0.24820600986E+02  0.39843514036E+00 -0.15905258385E+03  0.16097808986E+03  0.00000000000E+00 0.  1.
         14    1    4    4    0    0 -0.40366652513E+02  0.38458382587E+02 -0.11153242156E+03  0.12469159910E+03  0.00000000000E+00 0. -1.
         -5    1    5    5    0  502 -0.56758262562E+01 -0.18483912138E+02 -0.12223660558E+03  0.12384566103E+03  0.47000000000E+01 0.  1.
         11    1    6    6    0    0  0.27766301516E+02 -0.27075575738E+02 -0.67131488413E+01  0.39358870268E+02  0.00000000000E+00 0. -1.
        -12    1    6    6    0    0  0.15591549843E+03 -0.38372836581E+02 -0.16419063043E+03  0.22965339178E+03  0.00000000000E+00 0.  1.
<mgrwt>
<rscale>  2 0.26137438E+03</rscale>
<asrwt>0</asrwt>
<pdfrwt beam="1">  1       21 0.11292878E-01 0.26154553E+03</pdfrwt>
<pdfrwt beam="2">  1       21 0.16392933E+00 0.26154553E+03</pdfrwt>
<totfact> 0.14744771E+04</totfact>
</mgrwt>
</event>
<event>
12    1  0.1029207E-001  0.3110446E+03  0.7546771E-02  0.1079970E+00
         21   -1    0    0  503  502  0.00000000000E+00  0.00000000000E+00  0.50887149008E+03  0.50887149008E+03  0.00000000000E+00 0. -1.
         21   -1    0    0  501  503 -0.00000000000E+00 -0.00000000000E+00 -0.91962508243E+03  0.91962508243E+03  0.00000000000E+00 0.  1.
          6    2    1    2  501    0 -0.25766311874E+03 -0.76136259233E+01 -0.84172803441E+03  0.89700086601E+03  0.17220981290E+03 0.  0.
         24    2    3    3    0    0 -0.26404713257E+03  0.14313828339E+02 -0.81868214071E+03  0.86421714903E+03  0.81884426153E+02 0.  0.
         -6    2    1    2    0  502  0.25766311874E+03  0.76136259233E+01  0.43097444205E+03  0.53149570650E+03  0.17407029119E+03 0.  0.
        -24    2    5    5    0    0  0.19184424750E+03 -0.26547519752E+01  0.18941953069E+03  0.28087960846E+03  0.78754890871E+02 0.  0.
          5    1    3    3  501    0  0.63840138365E+01 -0.21927454263E+02 -0.23045893695E+02  0.32783716984E+02  0.47000000000E+01 0. -1.
        -13    1    4    4    0    0 -0.21270209377E+03 -0.18035520161E+02 -0.68301674807E+03  0.71559719034E+03  0.00000000000E+00 0.  1.
         14    1    4    4    0    0 -0.51345038808E+02  0.32349348500E+02 -0.13566539264E+03  0.14861995868E+03  0.00000000000E+00 0. -1.
         -5    1    5    5    0  502  0.65818871242E+02  0.10268377899E+02  0.24155491136E+03  0.25061609805E+03  0.47000000000E+01 0.  1.
         13    1    6    6    0    0  0.94785985110E+02  0.20871236269E+02  0.13754802366E+03  0.16834325139E+03  0.00000000000E+00 0. -1.
        -14    1    6    6    0    0  0.97058262385E+02 -0.23525988244E+02  0.51871507028E+02  0.11253635707E+03  0.00000000000E+00 0.  1.
<mgrwt>
<rscale>  2 0.31078489E+03</rscale>
<asrwt>0</asrwt>
<pdfrwt beam="1">  1       21 0.78287921E-01 0.31104456E+03</pdfrwt>
<pdfrwt beam="2">  1       21 0.14148078E+00 0.31104456E+03</pdfrwt>
<totfact> 0.45231249E+02</totfact>
</mgrwt>
</event>
<event>
12    1  0.1029207E-001  0.1914012E+03  0.7546771E-02  0.1157561E+00
         21   -1    0    0  503  502  0.00000000000E+00  0.00000000000E+00  0.53752851361E+03  0.53752851361E+03  0.00000000000E+00 0. -1.
         21   -1    0    0  501  503 -0.00000000000E+00 -0.00000000000E+00 -0.12658023421E+03  0.12658023421E+03  0.00000000000E+00 0.  1.
          6    2    1    2  501    0  0.80778641456E+02  0.10584862596E+02 -0.21668843918E+02  0.19104215470E+03  0.17143610426E+03 0.  0.
         24    2    3    3    0    0  0.42531446521E+01  0.46611868666E+02 -0.42477560068E+02  0.10381148638E+03  0.82351235903E+02 0.  0.
         -6    2    1    2    0  502 -0.80778641456E+02 -0.10584862596E+02  0.43261712332E+03  0.47306659313E+03  0.17319699165E+03 0.  0.
        -24    2    5    5    0    0 -0.22508260512E+02 -0.54792506718E+01  0.39480719567E+03  0.40325839019E+03  0.78790630977E+02 0.  0.
          5    1    3    3  501    0  0.76525496804E+02 -0.36027006070E+02  0.20808716150E+02  0.87230668319E+02  0.47000000000E+01 0. -1.
        -11    1    4    4    0    0  0.17616023480E+01  0.28485468521E+02 -0.67226362090E+02  0.73033614997E+02  0.00000000000E+00 0.  1.
         12    1    4    4    0    0  0.24915423040E+01  0.18126400145E+02  0.24748802022E+02  0.30777871381E+02  0.00000000000E+00 0. -1.
         -5    1    5    5    0  502 -0.58270380944E+02 -0.51056119238E+01  0.37809927650E+02  0.69808202938E+02  0.47000000000E+01 0.  1.
         11    1    6    6    0    0  0.15264126430E+02  0.16575799228E+02  0.27131002652E+03  0.27224415726E+03  0.00000000000E+00 0. -1.
        -12    1    6    6    0    0 -0.37772386943E+02 -0.22055049899E+02  0.12349716915E+03  0.13101423293E+03  0.00000000000E+00 0.  1.
<mgrwt>
<rscale>  2 0.19100199E+03</rscale>
<asrwt>0</asrwt>
<pdfrwt beam="1">  1       21 0.82696693E-01 0.19140122E+03</pdfrwt>
<pdfrwt beam="2">  1       21 0.19473883E-01 0.19140122E+03</pdfrwt>
<totfact> 0.30972311E+04</totfact>
</mgrwt>
</event>
<event>
12    1  0.1029207E-001  0.2692593E+03  0.7546771E-02  0.1102390E+00
         21   -1    0    0  501  502  0.00000000000E+00  0.00000000000E+00  0.21353784993E+03  0.21353784993E+03  0.00000000000E+00 0.  1.
         21   -1    0    0  502  503 -0.00000000000E+00 -0.00000000000E+00 -0.44533144518E+03  0.44533144518E+03  0.00000000000E+00 0.  1.
         -6    2    1    2    0  503 -0.20271036306E+03  0.40072039038E+02 -0.28169010104E+03  0.38967920690E+03  0.17263635673E+03 0.  0.
        -24    2    3    3    0    0 -0.17792869725E+03 -0.16163450461E+02 -0.25666487550E+03  0.32315918621E+03  0.81456263618E+02 0.  0.
          6    2    1    2  501    0  0.20271036306E+03 -0.40072039038E+02  0.49896505784E+02  0.26919008820E+03  0.16515563174E+03 0.  0.
         24    2    5    5    0    0  0.34331744026E+02 -0.61583799491E+01  0.39755899489E+02  0.97066825639E+02  0.81393137327E+02 0.  0.
          5    1    5    5  501    0  0.16837861903E+03 -0.33913659089E+02  0.10140606295E+02  0.17212326257E+03  0.47000000000E+01 0. -1.
        -13    1    6    6    0    0 -0.95486962062E+01 -0.98042024147E+01 -0.19140923680E+02  0.23530298416E+02  0.00000000000E+00 0.  1.
         14    1    6    6    0    0  0.43880440232E+02  0.36458224657E+01  0.58896823170E+02  0.73536527223E+02  0.00000000000E+00 0. -1.
         -5    1    3    3    0  503 -0.24781665814E+02  0.56235489498E+02 -0.25025225544E+02  0.66520020694E+02  0.47000000000E+01 0.  1.
         13    1    4    4    0    0  0.15328709655E+01 -0.14899202016E+02 -0.34152027409E+02  0.37292048619E+02  0.00000000000E+00 0. -1.
        -14    1    4    4    0    0 -0.17946156821E+03 -0.12642484452E+01 -0.22251284809E+03  0.28586713759E+03  0.00000000000E+00 0.  1.
<mgrwt>
<rscale>  2 0.26806792E+03</rscale>
<asrwt>0</asrwt>
<pdfrwt beam="1">  1       21 0.32851978E-01 0.26925930E+03</pdfrwt>
<pdfrwt beam="2">  1       21 0.68512529E-01 0.26925930E+03</pdfrwt>
<totfact> 0.16616607E+04</totfact>
</mgrwt>
</event>
<event>
12    1  0.1029207E-001  0.1900000E+03  0.7546771E-02  0.1158779E+00
         21   -1    0    0  501  502  0.00000000000E+00  0.00000000000E+00  0.27215604726E+03  0.27215604726E+03  0.00000000000E+00 0.  1.
         21   -1    0    0  502  503 -0.00000000000E+00 -0.00000000000E+00 -0.16001422478E+03  0.16001422478E+03  0.00000000000E+00 0.  1.
         -6    2    1    2    0  503 -0.62590523694E+02 -0.32292425847E+02 -0.34706244018E+02  0.19314375154E+03  0.17646419173E+03 0.  0.
        -24    2    3    3    0    0 -0.98499826399E+02 -0.15398238342E+02  0.17135427895E+02  0.12768734972E+03  0.77917359072E+02 0.  0.
          6    2    1    2  501    0  0.62590523694E+02  0.32292425847E+02  0.14684806650E+03  0.23902652050E+03  0.17495413240E+03 0.  0.
         24    2    5    5    0    0  0.79994573649E+02 -0.35322773054E+02  0.94817697532E+02  0.15182580162E+03  0.80086504257E+02 0.  0.
          5    1    5    5  501    0 -0.17404049955E+02  0.67615198901E+02  0.52030368973E+02  0.87200718877E+02  0.47000000000E+01 0. -1.
        -11    1    6    6    0    0  0.39650256534E+02  0.13621118994E+02  0.74031177804E+02  0.85078158260E+02  0.00000000000E+00 0.  1.
         12    1    6    6    0    0  0.40344317114E+02 -0.48943892049E+02  0.20786519728E+02  0.66747643364E+02  0.00000000000E+00 0. -1.
         -5    1    3    3    0  503  0.35909302705E+02 -0.16894187506E+02 -0.51841671913E+02  0.65456401818E+02  0.47000000000E+01 0.  1.
         13    1    4    4    0    0 -0.11023117539E+01  0.22122029444E+02  0.24437142749E+01  0.22283873483E+02  0.00000000000E+00 0. -1.
        -14    1    4    4    0    0 -0.97397514645E+02 -0.37520267786E+02  0.14691713621E+02  0.10540347624E+03  0.00000000000E+00 0.  1.
<mgrwt>
<rscale>  2 0.18964858E+03</rscale>
<asrwt>0</asrwt>
<pdfrwt beam="1">  1       21 0.41870161E-01 0.18999996E+03</pdfrwt>
<pdfrwt beam="2">  1       21 0.24617573E-01 0.18999996E+03</pdfrwt>
<totfact> 0.85740445E+04</totfact>
</mgrwt>
</event>
<event>
12    1  0.1029207E-001  0.2463580E+03  0.7546771E-02  0.1115644E+00
         21   -1    0    0  503  502  0.00000000000E+00  0.00000000000E+00  0.11506128729E+04  0.11506128729E+04  0.00000000000E+00 0. -1.
         21   -1    0    0  501  503 -0.00000000000E+00 -0.00000000000E+00 -0.63448279714E+02  0.63448279714E+02  0.00000000000E+00 0. -1.
          6    2    1    2  501    0  0.17317762550E+03  0.27839571543E+02  0.79302478590E+03  0.83038096380E+03  0.17285456971E+03 0.  0.
         24    2    3    3    0    0  0.87142930442E+02 -0.50296511317E+02  0.44730050648E+03  0.46561448565E+03  0.81212540753E+02 0.  0.
         -6    2    1    2    0  502 -0.17317762550E+03 -0.27839571543E+02  0.29413980727E+03  0.38368018881E+03  0.17299343728E+03 0.  0.
        -24    2    5    5    0    0 -0.13344820316E+03 -0.19851380055E+02  0.29567843166E+03  0.34285500580E+03  0.10918479674E+03 0.  0.
          5    1    3    3  501    0  0.86034695056E+02  0.78136082860E+02  0.34572427942E+03  0.36476647815E+03  0.47000000000E+01 0. -1.
        -13    1    4    4    0    0 -0.14414928270E+02 -0.15360427423E+02  0.55584263546E+02  0.59441931677E+02  0.00000000000E+00 0.  1.
         14    1    4    4    0    0  0.10155785871E+03 -0.34936083894E+02  0.39171624293E+03  0.40617255397E+03  0.00000000000E+00 0. -1.
         -5    1    5    5    0  502 -0.39729422332E+02 -0.79881914885E+01 -0.15386243812E+01  0.40825183002E+02  0.47000000000E+01 0.  1.
         13    1    6    6    0    0 -0.13522154073E+03  0.17174760784E+02  0.22577629716E+03  0.26373239059E+03  0.00000000000E+00 0. -1.
        -14    1    6    6    0    0  0.17733375677E+01 -0.37026140838E+02  0.69902134494E+02  0.79122615214E+02  0.00000000000E+00 0.  1.
<mgrwt>
<rscale>  2 0.24633362E+03</rscale>
<asrwt>0</asrwt>
<pdfrwt beam="1">  1       21 0.17701735E+00 0.24635799E+03</pdfrwt>
<pdfrwt beam="2">  1       21 0.97612747E-02 0.24635799E+03</pdfrwt>
<totfact> 0.15570647E+04</totfact>
</mgrwt>
</event>
<event>
12    1  0.1029207E-001  0.2634809E+03  0.7546771E-02  0.1105255E+00
         21   -1    0    0  501  502  0.00000000000E+00  0.00000000000E+00  0.11018958703E+04  0.11018958703E+04  0.00000000000E+00 0. -1.
         21   -1    0    0  502  503 -0.00000000000E+00 -0.00000000000E+00 -0.86877331314E+02  0.86877331314E+02  0.00000000000E+00 0.  1.
         -6    2    1    2    0  503 -0.91045316689E+02  0.17583169178E+03  0.82192038209E+03  0.86311950947E+03  0.17382790226E+03 0.  0.
        -24    2    3    3    0    0 -0.11192009627E+03  0.18961247150E+03  0.79210055064E+03  0.82391519006E+03  0.54166048419E+02 0.  0.
          6    2    1    2  501    0  0.91045316689E+02 -0.17583169178E+03  0.19309815693E+03  0.32565369218E+03  0.17192264393E+03 0.  0.
         24    2    5    5    0    0  0.86517471267E+02 -0.75070508031E+02  0.44078434390E+02  0.14564734440E+03  0.78418024343E+02 0.  0.
          5    1    5    5  501    0  0.45278454216E+01 -0.10076118375E+03  0.14901972254E+03  0.18000634778E+03  0.47000000000E+01 0. -1.
        -11    1    6    6    0    0  0.40246369727E+02 -0.79428687428E+02  0.13616876329E+02  0.90078332488E+02  0.00000000000E+00 0.  1.
         12    1    6    6    0    0  0.46271101540E+02  0.43581793974E+01  0.30461558061E+02  0.55569011912E+02  0.00000000000E+00 0. -1.
         -5    1    3    3    0  503  0.20874779582E+02 -0.13780779714E+02  0.29819831454E+02  0.39204319406E+02  0.47000000000E+01 0.  1.
         13    1    4    4    0    0 -0.28432351814E+02  0.36386525780E+02  0.25599724831E+03  0.26012875472E+03  0.00000000000E+00 0. -1.
        -14    1    4    4    0    0 -0.83487744457E+02  0.15322594572E+03  0.53610330233E+03  0.56378643535E+03  0.00000000000E+00 0.  1.
<mgrwt>
<rscale>  2 0.26316705E+03</rscale>
<asrwt>0</asrwt>
<pdfrwt beam="1">  1       21 0.16952243E+00 0.26348088E+03</pdfrwt>
<pdfrwt beam="2">  1       21 0.13365744E-01 0.26348088E+03</pdfrwt>
<totfact> 0.99014839E+03</totfact>
</mgrwt>
</event>
<event>
12    1  0.1029207E-001  0.1955738E+03  0.7546771E-02  0.1153669E+00
         21   -1    0    0  503  502  0.00000000000E+00  0.00000000000E+00  0.27444717602E+03  0.27444717602E+03  0.00000000000E+00 0.  1.
         21   -1    0    0  501  503 -0.00000000000E+00 -0.00000000000E+00 -0.17611967867E+03  0.17611967867E+03  0.00000000000E+00 0.  1.
          6    2    1    2  501    0  0.81288833775E+02  0.37280309790E+02 -0.54457611670E+02  0.20238866717E+03  0.17319886008E+03 0.  0.
         24    2    3    3    0    0  0.11635399405E+02  0.47673645453E+02  0.23708208406E+02  0.97071964911E+02  0.80328875479E+02 0.  0.
         -6    2    1    2    0  502 -0.81288833775E+02 -0.37280309790E+02  0.15278510901E+03  0.24817818752E+03  0.17392937426E+03 0.  0.
        -24    2    5    5    0    0 -0.11902297127E+02  0.69930372934E+01  0.38780337819E+02  0.10748775222E+03  0.99293177149E+02 0.  0.
          5    1    3    3  501    0  0.69653434369E+02 -0.10393335663E+02 -0.78165820076E+02  0.10531670225E+03  0.47000000000E+01 0. -1.
        -13    1    4    4    0    0 -0.13461034516E+02  0.45285845042E+02 -0.16134761606E+02  0.49923318635E+02  0.00000000000E+00 0.  1.
         14    1    4    4    0    0  0.25096433921E+02  0.23878004113E+01  0.39842970012E+02  0.47148646277E+02  0.00000000000E+00 0. -1.
         -5    1    5    5    0  502 -0.69386536647E+02 -0.44273347083E+02  0.11400477120E+03  0.14069043530E+03  0.47000000000E+01 0.  1.
         13    1    6    6    0    0  0.10234349580E+01 -0.27473715745E+02 -0.22818129246E+02  0.35728413038E+02  0.00000000000E+00 0. -1.
        -14    1    6    6    0    0 -0.12925732085E+02  0.34466753038E+02  0.61598467065E+02  0.71759339181E+02  0.00000000000E+00 0.  1.
<mgrwt>
<rscale>  2 0.19541128E+03</rscale>
<asrwt>0</asrwt>
<pdfrwt beam="1">  1       21 0.42222642E-01 0.19557383E+03</pdfrwt>
<pdfrwt beam="2">  1       21 0.27095335E-01 0.19557383E+03</pdfrwt>
<totfact> 0.69980350E+04</totfact>
</mgrwt>
</event>
<event>
12    1  0.1029207E-001  0.2875700E+03  0.7546771E-02  0.1091647E+00
         21   -1    0    0  501  502  0.00000000000E+00  0.00000000000E+00  0.38882275924E+03  0.38882275924E+03  0.00000000000E+00 0. -1.
         21   -1    0    0  502  503 -0.00000000000E+00 -0.00000000000E+00 -0.25425951292E+03  0.25425951292E+03  0.00000000000E+00 0. -1.
         -6    2    1    2    0  503 -0.15438463907E+02  0.22934422457E+03 -0.62954986899E+02  0.29421271734E+03  0.17251282028E+03 0.  0.
        -24    2    3    3    0    0 -0.33785511150E+02  0.23903116944E+03 -0.31104623658E+02  0.25591145519E+03  0.79030466023E+02 0.  0.
          6    2    1    2  501    0  0.15438463907E+02 -0.22934422457E+03  0.19751823322E+03  0.34886955483E+03  0.17279871041E+03 0.  0.
         24    2    5    5    0    0 -0.32577335517E+02 -0.10803153153E+03  0.16393334500E+03  0.21406480268E+03  0.78851148037E+02 0.  0.
          5    1    5    5  501    0  0.48015799424E+02 -0.12131269303E+03  0.33584888215E+02  0.13480475215E+03  0.47000000000E+01 0. -1.
        -13    1    6    6    0    0 -0.51092161446E+02 -0.81811091576E+02  0.83914200353E+02  0.12784778718E+03  0.00000000000E+00 0.  1.
         14    1    6    6    0    0  0.18514825928E+02 -0.26220439958E+02  0.80019144651E+02  0.86217015498E+02  0.00000000000E+00 0. -1.
         -5    1    3    3    0  503  0.18347047244E+02 -0.96869448719E+01 -0.31850363241E+02  0.38301262148E+02  0.47000000000E+01 0.  1.
         11    1    4    4    0    0  0.78641969392E+01  0.18670977490E+03 -0.17750536175E+02  0.18771645418E+03  0.00000000000E+00 0. -1.
        -12    1    4    4    0    0 -0.41649708090E+02  0.52321394541E+02 -0.13354087482E+02  0.68195001013E+02  0.00000000000E+00 0.  1.
<mgrwt>
<rscale>  2 0.28752708E+03</rscale>
<asrwt>0</asrwt>
<pdfrwt beam="1">  1       21 0.59818886E-01 0.28757002E+03</pdfrwt>
<pdfrwt beam="2">  1       21 0.39116848E-01 0.28757002E+03</pdfrwt>
<totfact> 0.15626151E+04</totfact>
</mgrwt>
</event>
<event>
12    1  0.1029207E-001  0.2253676E+03  0.7546771E-02  0.1130433E+00
         21   -1    0    0  501  502  0.00000000000E+00  0.00000000000E+00  0.30000780961E+03  0.30000780961E+03  0.00000000000E+00 0. -1.
         21   -1    0    0  502  503 -0.00000000000E+00 -0.00000000000E+00 -0.16806346367E+03  0.16806346367E+03  0.00000000000E+00 0.  1.
         -6    2    1    2    0  503 -0.73091763688E+02  0.11952557947E+03  0.82320874765E+02  0.23993182820E+03  0.17652701123E+03 0.  0.
        -24    2    3    3    0    0 -0.10806741691E+03  0.46747900616E+02  0.62608213356E+02  0.15668180792E+03  0.82252463447E+02 0.  0.
          6    2    1    2  501    0  0.73091763688E+02 -0.11952557947E+03  0.49623471174E+02  0.22813944509E+03  0.17307902082E+03 0.  0.
         24    2    5    5    0    0  0.87487450444E+02 -0.10134987061E+03 -0.17362489848E+02  0.15709860357E+03  0.80328481446E+02 0.  0.
          5    1    5    5  501    0 -0.14395686756E+02 -0.18175708859E+02  0.66985961022E+02  0.71040841519E+02  0.47000000000E+01 0. -1.
        -13    1    6    6    0    0  0.27995098257E+02 -0.90799125598E+02 -0.33582027003E+01  0.95076202392E+02  0.00000000000E+00 0.  1.
         14    1    6    6    0    0  0.59492352187E+02 -0.10550745010E+02 -0.14004287148E+02  0.62022401175E+02  0.00000000000E+00 0. -1.
         -5    1    3    3    0  503  0.34975653219E+02  0.72777678851E+02  0.19712661408E+02  0.83250020281E+02  0.47000000000E+01 0.  1.
         13    1    4    4    0    0 -0.86239366054E+02  0.70089886723E+02  0.42823164320E+02  0.11909510435E+03  0.00000000000E+00 0. -1.
        -14    1    4    4    0    0 -0.21828050854E+02 -0.23341986107E+02  0.19785049036E+02  0.37586703564E+02  0.00000000000E+00 0.  1.
<mgrwt>
<rscale>  2 0.22469196E+03</rscale>
<asrwt>0</asrwt>
<pdfrwt beam="1">  1       21 0.46155048E-01 0.22536760E+03</pdfrwt>
<pdfrwt beam="2">  1       21 0.25855918E-01 0.22536760E+03</pdfrwt>
<totfact> 0.62963763E+04</totfact>
</mgrwt>
</event>
<event>
12    1  0.1029207E-001  0.3195711E+03  0.7546771E-02  0.1075869E+00
         21   -1    0    0  503  502  0.00000000000E+00  0.00000000000E+00  0.39452954276E+03  0.39452954276E+03  0.00000000000E+00 0.  1.
         21   -1    0    0  501  503 -0.00000000000E+00 -0.00000000000E+00 -0.26520821333E+03  0.26520821333E+03  0.00000000000E+00 0.  1.
          6    2    1    2  501    0 -0.20128720901E+03  0.17846472747E+03  0.13007712204E+02  0.31983575963E+03  0.17250945801E+03 0.  0.
         24    2    3    3    0    0 -0.15654215133E+03  0.50904379431E+02 -0.53257138311E+01  0.18333679594E+03  0.80543879540E+02 0.  0.
         -6    2    1    2    0  502  0.20128720901E+03 -0.17846472747E+03  0.11631361722E+03  0.33990199645E+03  0.17215780604E+03 0.  0.
        -24    2    5    5    0    0  0.11367174387E+03 -0.51898615228E+02  0.39196583666E+01  0.14924538763E+03  0.81511289962E+02 0.  0.
          5    1    3    3  501    0 -0.44745057680E+02  0.12756034804E+03  0.18333426035E+02  0.13649896369E+03  0.47000000000E+01 0. -1.
        -11    1    4    4    0    0 -0.93411595320E+02  0.28698745761E+02  0.36618702742E+02  0.10435647339E+03  0.00000000000E+00 0.  1.
         12    1    4    4    0    0 -0.63130556009E+02  0.22205633669E+02 -0.41944416573E+02  0.78980322551E+02  0.00000000000E+00 0. -1.
         -5    1    5    5    0  502  0.87615465140E+02 -0.12656611224E+03  0.11239395886E+03  0.19065660882E+03  0.47000000000E+01 0.  1.
         13    1    6    6    0    0  0.11583962650E+03 -0.65889173758E+02  0.10405304990E+02  0.13367300647E+03  0.00000000000E+00 0. -1.
        -14    1    6    6    0    0 -0.21678826306E+01  0.13990558529E+02 -0.64856466231E+01  0.15572381166E+02  0.00000000000E+00 0.  1.
<mgrwt>
<rscale>  2 0.31952371E+03</rscale>
<asrwt>0</asrwt>
<pdfrwt beam="1">  1       21 0.60696853E-01 0.31957114E+03</pdfrwt>
<pdfrwt beam="2">  1       21 0.40801263E-01 0.31957114E+03</pdfrwt>
<totfact> 0.13706280E+04</totfact>
</mgrwt>
</event>
<event>
12    1  0.1029207E-001  0.2046486E+03  0.7546771E-02  0.1147296E+00
         21   -1    0    0  501  502  0.00000000000E+00  0.00000000000E+00  0.13741811255E+03  0.13741811255E+03  0.00000000000E+00 0. -1.
         21   -1    0    0  502  503 -0.00000000000E+00 -0.00000000000E+00 -0.65761383234E+03  0.65761383234E+03  0.00000000000E+00 0.  1.
         -6    2    1    2    0  503  0.76342341410E+02 -0.61731789403E+02 -0.55340726487E+03  0.58770602652E+03  0.17175507528E+03 0.  0.
        -24    2    3    3    0    0  0.59722326861E+02 -0.46198754259E+02 -0.55371890504E+03  0.56447485815E+03  0.79537151510E+02 0.  0.
          6    2    1    2  501    0 -0.76342341410E+02  0.61731789403E+02  0.33211545085E+02  0.20732591837E+03  0.17956074957E+03 0.  0.
         24    2    5    5    0    0 -0.11657423193E+03  0.43207685542E+02 -0.59822678053E+01  0.14799639445E+03  0.80066782142E+02 0.  0.
          5    1    5    5  501    0  0.40231890523E+02  0.18524103862E+02  0.39193812891E+02  0.59329523913E+02  0.47000000000E+01 0. -1.
        -11    1    6    6    0    0 -0.37005167041E+02  0.27507652005E+01 -0.38049027644E+02  0.53147696108E+02  0.00000000000E+00 0.  1.
         12    1    6    6    0    0 -0.79569064891E+02  0.40456920341E+02  0.32066759839E+02  0.94848698345E+02  0.00000000000E+00 0. -1.
         -5    1    3    3    0  503  0.16620014548E+02 -0.15533035144E+02  0.31164016310E+00  0.23231168373E+02  0.47000000000E+01 0.  1.
         11    1    4    4    0    0  0.23095218839E+02  0.99081962725E+01 -0.46563333331E+02  0.52912243361E+02  0.00000000000E+00 0. -1.
        -12    1    4    4    0    0  0.36627108022E+02 -0.56106950532E+02 -0.50715557170E+03  0.51156261479E+03  0.00000000000E+00 0.  1.
<mgrwt>
<rscale>  2 0.20292353E+03</rscale>
<asrwt>0</asrwt>
<pdfrwt beam="1">  1       21 0.21141248E-01 0.20464855E+03</pdfrwt>
<pdfrwt beam="2">  1       21 0.10117136E+00 0.20464855E+03</pdfrwt>
<totfact> 0.16484985E+04</totfact>
</mgrwt>
</event>
<event>
12    1  0.1029207E-001  0.1938595E+03  0.7546771E-02  0.1155287E+00
         21   -1    0    0  501  502  0.00000000000E+00  0.00000000000E+00  0.10126636637E+04  0.10126636637E+04  0.00000000000E+00 0. -1.
         21   -1    0    0  502  503 -0.00000000000E+00 -0.00000000000E+00 -0.37229075725E+02  0.37229075725E+02  0.00000000000E+00 0.  1.
         -6    2    1    2    0  503  0.86210074465E+02  0.43203916389E+01  0.43869759914E+03  0.47962183835E+03  0.17358191614E+03 0.  0.
        -24    2    3    3    0    0  0.32080978473E+02 -0.30567147006E+02  0.10419196855E+03  0.13894133365E+03  0.80530666402E+02 0.  0.
          6    2    1    2  501    0 -0.86210074465E+02 -0.43203916389E+01  0.53673698880E+03  0.57027090103E+03  0.17225406439E+03 0.  0.
         24    2    5    5    0    0 -0.48134427614E+02 -0.36128420619E+02  0.14967396300E+03  0.18001280499E+03  0.79875708832E+02 0.  0.
          5    1    5    5  501    0 -0.38075646852E+02  0.31808028980E+02  0.38706302580E+03  0.39025809605E+03  0.47000000000E+01 0. -1.
        -11    1    6    6    0    0  0.15342520535E+02 -0.13373515041E+02  0.58682009528E+01  0.21182058997E+02  0.00000000000E+00 0.  1.
         12    1    6    6    0    0 -0.63476948149E+02 -0.22754905577E+02  0.14380576205E+03  0.15883074599E+03  0.00000000000E+00 0. -1.
         -5    1    3    3    0  503  0.54129095992E+02  0.34887538645E+02  0.33450563059E+03  0.34068050469E+03  0.47000000000E+01 0.  1.
         11    1    4    4    0    0  0.24862564370E+02 -0.31799856641E+01  0.10753930865E+03  0.11042174750E+03  0.00000000000E+00 0. -1.
        -12    1    4    4    0    0  0.72184141030E+01 -0.27387161342E+02 -0.33473401017E+01  0.28519586152E+02  0.00000000000E+00 0.  1.
<mgrwt>
<rscale>  2 0.19356185E+03</rscale>
<asrwt>0</asrwt>
<pdfrwt beam="1">  1       21 0.15579439E+00 0.19385955E+03</pdfrwt>
<pdfrwt beam="2">  1       21 0.57275509E-02 0.19385955E+03</pdfrwt>
<totfact> 0.57680149E+04</totfact>
</mgrwt>
</event>
<event>
12    1  0.1029207E-001  0.2436870E+03  0.7546771E-02  0.1119766E+00
         21   -1    0    0  503  502  0.00000000000E+00  0.00000000000E+00  0.11609171200E+04  0.11609171200E+04  0.00000000000E+00 0. -1.
         21   -1    0    0  501  503 -0.00000000000E+00 -0.00000000000E+00 -0.68022909323E+02  0.68022909323E+02  0.00000000000E+00 0.  1.
          6    2    1    2  501    0 -0.10528069710E+03  0.10435421415E+03  0.20319176023E+03  0.30646844739E+03  0.17510622670E+03 0.  0.
         24    2    3    3    0    0 -0.36711964947E+02  0.98624857078E+02  0.56144796322E+02  0.14405109562E+03  0.80770348470E+02 0.  0.
         -6    2    1    2    0  502  0.10528069710E+03 -0.10435421415E+03  0.88970245045E+03  0.92247158193E+03  0.19341546460E+03 0.  0.
        -24    2    5    5    0    0  0.97638189496E+02  0.71158094181E+01  0.56851674585E+03  0.58237406516E+03  0.79777256569E+02 0.  0.
          5    1    3    3  501    0 -0.68568732152E+02  0.57293570741E+01  0.14704696391E+03  0.16241735177E+03  0.47000000000E+01 0. -1.
        -13    1    4    4    0    0 -0.44866855707E+02  0.10748039520E+03  0.60504807358E+02  0.13124748305E+03  0.00000000000E+00 0.  1.
         14    1    4    4    0    0  0.81548907595E+01 -0.88555381207E+01 -0.43600110358E+01  0.12803612574E+02  0.00000000000E+00 0. -1.
         -5    1    5    5    0  502  0.76425076043E+01 -0.11147002357E+03  0.32118570460E+03  0.34009751678E+03  0.47000000000E+01 0.  1.
         11    1    6    6    0    0  0.54814208567E+02 -0.35159725137E+02  0.33165174879E+03  0.33798474256E+03  0.00000000000E+00 0. -1.
        -12    1    6    6    0    0  0.42823980929E+02  0.42275534555E+02  0.23686499706E+03  0.24438932259E+03  0.00000000000E+00 0.  1.
<mgrwt>
<rscale>  2 0.24004059E+03</rscale>
<asrwt>0</asrwt>
<pdfrwt beam="1">  1       21 0.17860262E+00 0.24368703E+03</pdfrwt>
<pdfrwt beam="2">  1       21 0.10465064E-01 0.24368703E+03</pdfrwt>
<totfact> 0.13436394E+04</totfact>
</mgrwt>
</event>
<event>
12    1  0.1029207E-001  0.2370821E+03  0.7546771E-02  0.1121828E+00
         21   -1    0    0  501  502  0.00000000000E+00  0.00000000000E+00  0.58664347899E+03  0.58664347899E+03  0.00000000000E+00 0.  1.
         21   -1    0    0  502  503 -0.00000000000E+00 -0.00000000000E+00 -0.97993116576E+02  0.97993116576E+02  0.00000000000E+00 0.  1.
         -6    2    1    2    0  503 -0.12317732167E+03  0.10503567655E+03  0.19142068712E+03  0.30471265030E+03  0.17321308805E+03 0.  0.
        -24    2    3    3    0    0 -0.15536388350E+02  0.63902705549E+02  0.15095408826E+03  0.18249101779E+03  0.78682270395E+02 0.  0.
          6    2    1    2  501    0  0.12317732167E+03 -0.10503567655E+03  0.29722967529E+03  0.37992394527E+03  0.17260237076E+03 0.  0.
         24    2    5    5    0    0  0.16750218846E+02 -0.54420835372E+02  0.21297778605E+03  0.23497891706E+03  0.81322548877E+02 0.  0.
          5    1    5    5  501    0  0.10642710282E+03 -0.50614841177E+02  0.84251889241E+02  0.14494502821E+03  0.47000000000E+01 0. -1.
        -13    1    6    6    0    0  0.45783478755E+02 -0.38606203613E+02  0.17316582475E+03  0.18322927917E+03  0.00000000000E+00 0.  1.
         14    1    6    6    0    0 -0.29033259909E+02 -0.15814631759E+02  0.39811961302E+02  0.51749637886E+02  0.00000000000E+00 0. -1.
         -5    1    3    3    0  503 -0.10764093332E+03  0.41132971000E+02  0.40466598865E+02  0.12222163251E+03  0.47000000000E+01 0.  1.
         11    1    4    4    0    0  0.25021302999E+02  0.24214069022E+02  0.20935478860E+02  0.40628573904E+02  0.00000000000E+00 0. -1.
        -12    1    4    4    0    0 -0.40557691349E+02  0.39688636528E+02  0.13001860940E+03  0.14186244389E+03  0.00000000000E+00 0.  1.
<mgrwt>
<rscale>  2 0.23697056E+03</rscale>
<asrwt>0</asrwt>
<pdfrwt beam="1">  1       21 0.90252841E-01 0.23708210E+03</pdfrwt>
<pdfrwt beam="2">  1       21 0.15075864E-01 0.23708210E+03</pdfrwt>
<totfact> 0.39681134E+04</totfact>
</mgrwt>
</event>
<event>
12    1  0.1029207E-001  0.1928820E+03  0.7546771E-02  0.1155917E+00
         21   -1    0    0  503  502  0.00000000000E+00  0.00000000000E+00  0.19310103108E+02  0.19310103108E+02  0.00000000000E+00 0. -1.
         21   -1    0    0  501  503 -0.00000000000E+00 -0.00000000000E+00 -0.19565157957E+04  0.19565157957E+04  0.00000000000E+00 0.  1.
          6    2    1    2  501    0 -0.84520555338E+02 -0.14893788712E+02 -0.10930666994E+04  0.11099309294E+04  0.17258710653E+03 0.  0.
         24    2    3    3    0    0 -0.14049263545E+02  0.46263940080E+02 -0.68860890747E+03  0.69482291181E+03  0.79113319848E+02 0.  0.
         -6    2    1    2    0  502  0.84520555338E+02  0.14893788712E+02 -0.84413899315E+03  0.86589496944E+03  0.17273653092E+03 0.  0.
        -24    2    5    5    0    0  0.69696399851E+02 -0.58219489822E+02 -0.33700587960E+03  0.35328264814E+03  0.54667809926E+02 0.  0.
          5    1    3    3  501    0 -0.70471291793E+02 -0.61157728792E+02 -0.40445779198E+03  0.41510801757E+03  0.47000000000E+01 0. -1.
        -13    1    4    4    0    0  0.84638533184E+01  0.28627802059E+02 -0.61689599272E+03  0.61761788648E+03  0.00000000000E+00 0.  1.
         14    1    4    4    0    0 -0.22513116864E+02  0.17636138021E+02 -0.71712914749E+02  0.77205025335E+02  0.00000000000E+00 0. -1.
         -5    1    5    5    0  502  0.14824155487E+02  0.73113278533E+02 -0.50713311355E+03  0.51261232130E+03  0.47000000000E+01 0.  1.
         11    1    6    6    0    0  0.62950815397E+01 -0.12561993624E+02 -0.10451822797E+02  0.17512062562E+02  0.00000000000E+00 0. -1.
        -12    1    6    6    0    0  0.63401318312E+02 -0.45657496198E+02 -0.32655405680E+03  0.33577058558E+03  0.00000000000E+00 0.  1.
<mgrwt>
<rscale>  2 0.19284852E+03</rscale>
<asrwt>0</asrwt>
<pdfrwt beam="1">  1       21 0.29707854E-02 0.19288198E+03</pdfrwt>
<pdfrwt beam="2">  1       21 0.30100239E+00 0.19288198E+03</pdfrwt>
<totfact> 0.21656596E+04</totfact>
</mgrwt>
</event>
<event>
12    1  0.1029207E-001  0.4905282E+03  0.7546771E-02  0.1016668E+00
         21   -1    0    0  501  502  0.00000000000E+00  0.00000000000E+00  0.70956838410E+03  0.70956838410E+03  0.00000000000E+00 0.  1.
         21   -1    0    0  502  503 -0.00000000000E+00 -0.00000000000E+00 -0.53539216781E+03  0.53539216781E+03  0.00000000000E+00 0. -1.
         -6    2    1    2    0  503  0.11245778418E+03 -0.44020098779E+03 -0.29328094765E+03  0.57151694325E+03  0.18491684426E+03 0.  0.
        -24    2    3    3    0    0  0.29653404988E+02 -0.21905172819E+03 -0.22380540170E+03  0.32532087967E+03  0.82956813292E+02 0.  0.
          6    2    1    2  501    0 -0.11245778418E+03  0.44020098779E+03  0.46745716395E+03  0.67344360866E+03  0.16907522307E+03 0.  0.
         24    2    5    5    0    0 -0.35205275668E+02  0.17316094899E+03  0.26839993555E+03  0.33150179699E+03  0.81429664842E+02 0.  0.
          5    1    5    5  501    0 -0.77252508516E+02  0.26704003880E+03  0.19905722839E+03  0.34194181167E+03  0.47000000000E+01 0. -1.
        -11    1    6    6    0    0 -0.34579644755E+02  0.86537135641E+02  0.75120515692E+02  0.11969761716E+03  0.00000000000E+00 0.  1.
         12    1    6    6    0    0 -0.62563091266E+00  0.86623813348E+02  0.19327941986E+03  0.21180417983E+03  0.00000000000E+00 0. -1.
         -5    1    3    3    0  503  0.82804379196E+02 -0.22114925959E+03 -0.69475545953E+02  0.24619606357E+03  0.47000000000E+01 0.  1.
         11    1    4    4    0    0  0.84354736386E+01 -0.20318937947E+03 -0.21813691544E+03  0.29822943353E+03  0.00000000000E+00 0. -1.
        -12    1    4    4    0    0  0.21217931349E+02 -0.15862348720E+02 -0.56684862546E+01  0.27091446142E+02  0.00000000000E+00 0.  1.
<mgrwt>
<rscale>  2 0.48908438E+03</rscale>
<asrwt>0</asrwt>
<pdfrwt beam="1">  1       21 0.10916437E+00 0.49052819E+03</pdfrwt>
<pdfrwt beam="2">  1       21 0.82368026E-01 0.49052819E+03</pdfrwt>
<totfact> 0.71050196E+02</totfact>
</mgrwt>
</event>
<event>
12    1  0.1029207E-001  0.2082144E+03  0.7546771E-02  0.1143266E+00
         21   -1    0    0  503  502  0.00000000000E+00  0.00000000000E+00  0.13811354949E+03  0.13811354949E+03  0.00000000000E+00 0. -1.
         21   -1    0    0  501  503 -0.00000000000E+00 -0.00000000000E+00 -0.32076736299E+03  0.32076736299E+03  0.00000000000E+00 0. -1.
          6    2    1    2  501    0  0.26648258455E+01  0.11278146714E+03 -0.53278720354E+02  0.21492295837E+03  0.17500427242E+03 0.  0.
         24    2    3    3    0    0  0.21050591962E+01  0.24057108390E+02 -0.66064079287E+02  0.12515726015E+03  0.10352150240E+03 0.  0.
         -6    2    1    2    0  502 -0.26648258455E+01 -0.11278146714E+03 -0.12937509314E+03  0.24395795410E+03  0.17335168882E+03 0.  0.
        -24    2    5    5    0    0  0.46278055916E+02 -0.12435226496E+03 -0.10513737045E+03  0.18793254702E+03  0.81606564089E+02 0.  0.
          5    1    3    3  501    0  0.55976664931E+00  0.88724358752E+02  0.12785358933E+02  0.89765698224E+02  0.47000000000E+01 0. -1.
        -11    1    4    4    0    0  0.99155717562E+01 -0.10036051739E+02  0.24389963078E+02  0.28176429808E+02  0.00000000000E+00 0.  1.
         12    1    4    4    0    0 -0.78105125601E+01  0.34093160129E+02 -0.90454042365E+02  0.96980830343E+02  0.00000000000E+00 0. -1.
         -5    1    5    5    0  502 -0.48942881761E+02  0.11570797822E+02 -0.24237722689E+02  0.56025407080E+02  0.47000000000E+01 0.  1.
         13    1    6    6    0    0 -0.18663863073E+02 -0.56970922466E+02 -0.25882333964E+02  0.65298705981E+02  0.00000000000E+00 0. -1.
        -14    1    6    6    0    0  0.64941918989E+02 -0.67381342497E+02 -0.79255036491E+02  0.12263384104E+03  0.00000000000E+00 0.  1.
<mgrwt>
<rscale>  2 0.20786681E+03</rscale>
<asrwt>0</asrwt>
<pdfrwt beam="1">  1       21 0.21248239E-01 0.20821445E+03</pdfrwt>
<pdfrwt beam="2">  1       21 0.49348825E-01 0.20821445E+03</pdfrwt>
<totfact> 0.80162898E+04</totfact>
</mgrwt>
</event>
<event>
12    1  0.1029207E-001  0.1880413E+03  0.7546771E-02  0.1160249E+00
         21   -1    0    0  503  502  0.00000000000E+00  0.00000000000E+00  0.11949225375E+04  0.11949225375E+04  0.00000000000E+00 0.  1.
         21   -1    0    0  501  503 -0.00000000000E+00 -0.00000000000E+00 -0.25200957977E+03  0.25200957977E+03  0.00000000000E+00 0.  1.
          6    2    1    2  501    0 -0.46014247593E+02  0.57656358935E+02 -0.20821197584E+03  0.28055615569E+03  0.17296809794E+03 0.  0.
         24    2    3    3    0    0 -0.21569652417E+02 -0.18498674149E+02 -0.17408841943E+03  0.19347209056E+03  0.79480948629E+02 0.  0.
         -6    2    1    2    0  502  0.46014247593E+02 -0.57656358935E+02  0.11511249336E+04  0.11663759616E+04  0.17292398436E+03 0.  0.
        -24    2    5    5    0    0 -0.24059284454E+02  0.15163869599E+01  0.25435290485E+03  0.26491388515E+03  0.70020123844E+02 0.  0.
          5    1    3    3  501    0 -0.24444595176E+02  0.76155033084E+02 -0.34123556409E+02  0.87084065129E+02  0.47000000000E+01 0. -1.
        -13    1    4    4    0    0 -0.27890693441E+02  0.23547650906E+02 -0.11515428197E+03  0.12080104015E+03  0.00000000000E+00 0.  1.
         14    1    4    4    0    0  0.63210410241E+01 -0.42046325055E+02 -0.58934137457E+02  0.72671050412E+02  0.00000000000E+00 0. -1.
         -5    1    5    5    0  502  0.70073532047E+02 -0.59172745895E+02  0.89677202872E+03  0.90146207643E+03  0.47000000000E+01 0.  1.
         11    1    6    6    0    0  0.21941606848E+02  0.67486016908E+01  0.45167303154E+02  0.50666191983E+02  0.00000000000E+00 0. -1.
        -12    1    6    6    0    0 -0.46000891302E+02 -0.52322147309E+01  0.20918560169E+03  0.21424769317E+03  0.00000000000E+00 0.  1.
<mgrwt>
<rscale>  2 0.18803115E+03</rscale>
<asrwt>0</asrwt>
<pdfrwt beam="1">  1       21 0.18383423E+00 0.18804130E+03</pdfrwt>
<pdfrwt beam="2">  1       21 0.38770705E-01 0.18804130E+03</pdfrwt>
<totfact> 0.11051919E+03</totfact>
</mgrwt>
</event>
<event>
12    1  0.1029207E-001  0.1893885E+03  0.7546771E-02  0.1159241E+00
         21   -1    0    0  501  502  0.00000000000E+00  0.00000000000E+00  0.25870655467E+03  0.25870655467E+03  0.00000000000E+00 0. -1.
         21   -1    0    0  502  503 -0.00000000000E+00 -0.00000000000E+00 -0.14815659011E+03  0.14815659011E+03  0.00000000000E+00 0. -1.
         -6    2    1    2    0  503  0.70140498838E+02 -0.30822202039E+02  0.19198877556E+01  0.18939824621E+03  0.17320020780E+03 0.  0.
        -24    2    3    3    0    0 -0.59682308477E+00 -0.72061695666E+02 -0.26907677596E+01  0.10725317520E+03  0.79389918620E+02 0.  0.
          6    2    1    2  501    0 -0.70140498838E+02  0.30822202039E+02  0.10863007681E+03  0.21746489857E+03  0.17210691679E+03 0.  0.
         24    2    5    5    0    0  0.35800656725E+02  0.11446951590E+01  0.55034831024E+02  0.94995215677E+02  0.68645910489E+02 0.  0.
          5    1    5    5  501    0 -0.10594115556E+03  0.29677506880E+02  0.53595245787E+02  0.12246968289E+03  0.47000000000E+01 0. -1.
        -11    1    6    6    0    0 -0.78975758586E+01  0.24162137787E+02  0.76391386947E+01  0.26543116751E+02  0.00000000000E+00 0.  1.
         12    1    6    6    0    0  0.43698232583E+02 -0.23017442628E+02  0.47395692329E+02  0.68452098926E+02  0.00000000000E+00 0. -1.
         -5    1    3    3    0  503  0.70737321923E+02  0.41239493628E+02  0.46106555152E+01  0.82145071013E+02  0.47000000000E+01 0.  1.
         11    1    4    4    0    0 -0.54498156299E+01 -0.21351375362E+02 -0.38931560838E+02  0.44735312110E+02  0.00000000000E+00 0. -1.
        -12    1    4    4    0    0  0.48529925451E+01 -0.50710320304E+02  0.36240793078E+02  0.62517863087E+02  0.00000000000E+00 0.  1.
<mgrwt>
<rscale>  2 0.18913819E+03</rscale>
<asrwt>0</asrwt>
<pdfrwt beam="1">  1       21 0.39801008E-01 0.18938852E+03</pdfrwt>
<pdfrwt beam="2">  1       21 0.22793322E-01 0.18938852E+03</pdfrwt>
<totfact> 0.10998352E+05</totfact>
</mgrwt>
</event>
<event>
12    1  0.1029207E-001  0.1816496E+03  0.7546771E-02  0.1166614E+00
         21   -1    0    0  501  502  0.00000000000E+00  0.00000000000E+00  0.30144039102E+03  0.30144039102E+03  0.00000000000E+00 0.  1.
         21   -1    0    0  502  503 -0.00000000000E+00 -0.00000000000E+00 -0.18401807110E+03  0.18401807110E+03  0.00000000000E+00 0.  1.
         -6    2    1    2    0  503  0.32905296007E+02 -0.41268615681E+02 -0.96974904491E+02  0.20445537123E+03  0.17208140393E+03 0.  0.
        -24    2    3    3    0    0  0.62071974853E+02  0.22811490181E+02 -0.18892778091E+02  0.99213442398E+02  0.71505775585E+02 0.  0.
          6    2    1    2  501    0 -0.32905296007E+02  0.41268615681E+02  0.21439722442E+03  0.28100309088E+03  0.17381228409E+03 0.  0.
         24    2    5    5    0    0  0.37272695057E+02  0.31149975582E+02  0.17736078232E+03  0.20087116622E+03  0.80825760352E+02 0.  0.
          5    1    5    5  501    0 -0.70177991064E+02  0.10118640098E+02  0.37036442095E+02  0.80131924663E+02  0.47000000000E+01 0. -1.
        -11    1    6    6    0    0  0.56869661698E+02 -0.50651099748E+00  0.10077988310E+03  0.11571948761E+03  0.00000000000E+00 0.  1.
         12    1    6    6    0    0 -0.19596966642E+02  0.31656486580E+02  0.76580899229E+02  0.85151678614E+02  0.00000000000E+00 0. -1.
         -5    1    3    3    0  503 -0.29166678846E+02 -0.64080105861E+02 -0.78082126401E+02  0.10524192884E+03  0.47000000000E+01 0.  1.
         13    1    4    4    0    0  0.70071762257E+02  0.18261669177E+02  0.60131714160E+01  0.72661534924E+02  0.00000000000E+00 0. -1.
        -14    1    4    4    0    0 -0.79997874041E+01  0.45498210040E+01 -0.24905949507E+02  0.26551907474E+02  0.00000000000E+00 0.  1.
<mgrwt>
<rscale>  2 0.18123428E+03</rscale>
<asrwt>0</asrwt>
<pdfrwt beam="1">  1       21 0.46375445E-01 0.18164957E+03</pdfrwt>
<pdfrwt beam="2">  1       21 0.28310473E-01 0.18164957E+03</pdfrwt>
<totfact> 0.53388863E+04</totfact>
</mgrwt>
</event>
<event>
12    1  0.1029207E-001  0.2077232E+03  0.7546771E-02  0.1143446E+00
         21   -1    0    0  503  502  0.00000000000E+00  0.00000000000E+00  0.17359750083E+02  0.17359750083E+02  0.00000000000E+00 0. -1.
         21   -1    0    0  501  503 -0.00000000000E+00 -0.00000000000E+00 -0.27121866222E+04  0.27121866222E+04  0.00000000000E+00 0.  1.
          6    2    1    2  501    0 -0.20734745438E+02  0.11192251549E+03 -0.17461849548E+04  0.17584967492E+04  0.17375943537E+03 0.  0.
         24    2    3    3    0    0  0.33960381602E+02  0.68101391273E+02 -0.66692305207E+03  0.67695146926E+03  0.87668850425E+02 0.  0.
         -6    2    1    2    0  502  0.20734745438E+02 -0.11192251549E+03 -0.94864191733E+03  0.97104962311E+03  0.17337619238E+03 0.  0.
        -24    2    5    5    0    0  0.68568197442E+02 -0.11574052156E+03 -0.77363733167E+03  0.78952466256E+03  0.82079265378E+02 0.  0.
          5    1    3    3  501    0 -0.54695127041E+02  0.43821124221E+02 -0.10792619027E+04  0.10815452799E+04  0.47000000000E+01 0. -1.
        -13    1    4    4    0    0  0.36368756361E+02  0.10129926930E+02 -0.47377528660E+03  0.47527710239E+03  0.00000000000E+00 0.  1.
         14    1    4    4    0    0 -0.24083747589E+01  0.57971464343E+02 -0.19314776547E+03  0.20167436687E+03  0.00000000000E+00 0. -1.
         -5    1    5    5    0  502 -0.47833452003E+02  0.38180060679E+01 -0.17500458565E+03  0.18152496055E+03  0.47000000000E+01 0.  1.
         13    1    6    6    0    0  0.13551243906E+02 -0.86396557687E+02 -0.56635088633E+03  0.57306310982E+03  0.00000000000E+00 0. -1.
        -14    1    6    6    0    0  0.55016953536E+02 -0.29343963875E+02 -0.20728644534E+03  0.21646155274E+03  0.00000000000E+00 0.  1.
<mgrwt>
<rscale>  2 0.20764302E+03</rscale>
<asrwt>0</asrwt>
<pdfrwt beam="1">  1       21 0.26707339E-02 0.20772318E+03</pdfrwt>
<pdfrwt beam="2">  1       21 0.41725900E+00 0.20772318E+03</pdfrwt>
<totfact> 0.50994860E+03</totfact>
</mgrwt>
</event>
<event>
12    1  0.1029207E-001  0.2161969E+03  0.7546771E-02  0.1136801E+00
         21   -1    0    0  501  502  0.00000000000E+00  0.00000000000E+00  0.41964837345E+03  0.41964837345E+03  0.00000000000E+00 0. -1.
         21   -1    0    0  502  503 -0.00000000000E+00 -0.00000000000E+00 -0.11303913871E+03  0.11303913871E+03  0.00000000000E+00 0.  1.
         -6    2    1    2    0  503 -0.87429430644E+02 -0.96331238728E+02  0.18675268930E+03  0.28548985339E+03  0.17234928642E+03 0.  0.
        -24    2    3    3    0    0 -0.48661309079E+02 -0.13211239113E+03  0.15245571717E+03  0.22238969163E+03  0.79955127126E+02 0.  0.
          6    2    1    2  501    0  0.87429430644E+02  0.96331238728E+02  0.11985654544E+03  0.24719765877E+03  0.17267738160E+03 0.  0.
         24    2    5    5    0    0  0.96475181335E+02  0.28036148275E+02  0.12595680282E+03  0.17787704044E+03  0.75376648346E+02 0.  0.
          5    1    5    5  501    0 -0.90457506906E+01  0.68295090452E+02 -0.61002573739E+01  0.69320618329E+02  0.47000000000E+01 0. -1.
        -13    1    6    6    0    0 -0.64737850689E+01  0.90005712300E+01 -0.32735274685E+01  0.11560110625E+02  0.00000000000E+00 0.  1.
         14    1    6    6    0    0  0.10294896640E+03  0.19035577045E+02  0.12923033028E+03  0.16631692981E+03  0.00000000000E+00 0. -1.
         -5    1    3    3    0  503 -0.38768121565E+02  0.35781152401E+02  0.34296972122E+02  0.63100161755E+02  0.47000000000E+01 0.  1.
         13    1    4    4    0    0  0.11629225247E+02 -0.59924219042E+02  0.92585727626E+02  0.11089755573E+03  0.00000000000E+00 0. -1.
        -14    1    4    4    0    0 -0.60290534326E+02 -0.72188172087E+02  0.59869989549E+02  0.11149213590E+03  0.00000000000E+00 0.  1.
<mgrwt>
<rscale>  2 0.21613136E+03</rscale>
<asrwt>0</asrwt>
<pdfrwt beam="1">  1       21 0.64561287E-01 0.21619688E+03</pdfrwt>
<pdfrwt beam="2">  1       21 0.17390637E-01 0.21619688E+03</pdfrwt>
<totfact> 0.65476202E+04</totfact>
</mgrwt>
</event>
<event>
12    1  0.1029207E-001  0.1818473E+03  0.7546771E-02  0.1166261E+00
         21   -1    0    0  503  502  0.00000000000E+00  0.00000000000E+00  0.73615770875E+02  0.73615770875E+02  0.00000000000E+00 0. -1.
         21   -1    0    0  501  503 -0.00000000000E+00 -0.00000000000E+00 -0.75135299481E+03  0.75135299481E+03  0.00000000000E+00 0. -1.
          6    2    1    2  501    0 -0.51245513551E+02 -0.19236459173E+02 -0.60202609620E+03  0.62889097150E+03  0.17341363704E+03 0.  0.
         24    2    3    3    0    0  0.39944260650E+02 -0.14049416676E+02 -0.36912560501E+03  0.37867664513E+03  0.73139313782E+02 0.  0.
         -6    2    1    2    0  502  0.51245513551E+02  0.19236459173E+02 -0.75711127735E+02  0.19607779418E+03  0.17238962407E+03 0.  0.
        -24    2    5    5    0    0  0.69816239580E+02  0.20714417777E+02  0.79507174707E+01  0.11023811472E+03  0.82376171409E+02 0.  0.
          5    1    3    3  501    0 -0.91189774201E+02 -0.51870424971E+01 -0.23290049118E+03  0.25021432637E+03  0.47000000000E+01 0. -1.
        -11    1    4    4    0    0  0.43098186037E+01 -0.29168781212E+02 -0.57142669818E+02  0.64301454476E+02  0.00000000000E+00 0.  1.
         12    1    4    4    0    0  0.35634442046E+02  0.15119364536E+02 -0.31198293520E+03  0.31437519065E+03  0.00000000000E+00 0. -1.
         -5    1    5    5    0  502 -0.18570726029E+02 -0.14779586047E+01 -0.83661845206E+02  0.85839679462E+02  0.47000000000E+01 0.  1.
         11    1    6    6    0    0  0.37338913525E+02  0.51989935548E+02  0.11408264558E+02  0.65017661922E+02  0.00000000000E+00 0. -1.
        -12    1    6    6    0    0  0.32477326055E+02 -0.31275517771E+02 -0.34575470876E+01  0.45220452800E+02  0.00000000000E+00 0.  1.
<mgrwt>
<rscale>  2 0.18160272E+03</rscale>
<asrwt>0</asrwt>
<pdfrwt beam="1">  1       21 0.11325503E-01 0.18184728E+03</pdfrwt>
<pdfrwt beam="2">  1       21 0.11559277E+00 0.18184728E+03</pdfrwt>
<totfact> 0.37894729E+04</totfact>
</mgrwt>
</event>
<event>
12    1  0.1029207E-001  0.2858825E+03  0.7546771E-02  0.1093159E+00
         21   -1    0    0  503  502  0.00000000000E+00  0.00000000000E+00  0.97851432607E+03  0.97851432607E+03  0.00000000000E+00 0.  1.
         21   -1    0    0  501  503 -0.00000000000E+00 -0.00000000000E+00 -0.85092724143E+02  0.85092724143E+02  0.00000000000E+00 0. -1.
          6    2    1    2  501    0  0.14321940799E+03  0.17167360255E+03  0.35119729133E+03  0.45284472510E+03  0.17817177939E+03 0.  0.
         24    2    3    3    0    0  0.10130357521E+02  0.11566399812E+03  0.15353325618E+03  0.20801226822E+03  0.78840715218E+02 0.  0.
         -6    2    1    2    0  502 -0.14321940799E+03 -0.17167360255E+03  0.54222431059E+03  0.61076232511E+03  0.17041065151E+03 0.  0.
        -24    2    5    5    0    0 -0.12258230793E+03 -0.18133216915E+03  0.37261843493E+03  0.43956822221E+03  0.80423542242E+02 0.  0.
          5    1    3    3  501    0  0.13308905047E+03  0.56009604431E+02  0.19766403516E+03  0.24483245687E+03  0.47000000000E+01 0. -1.
        -11    1    4    4    0    0  0.40542740875E+02  0.49463016739E+02  0.48867380339E+02  0.80488040875E+02  0.00000000000E+00 0.  1.
         12    1    4    4    0    0 -0.30412383354E+02  0.66200981378E+02  0.10466587584E+03  0.12752422735E+03  0.00000000000E+00 0. -1.
         -5    1    5    5    0  502 -0.20637100056E+02  0.96585666038E+01  0.16960587566E+03  0.17119410290E+03  0.47000000000E+01 0.  1.
         13    1    6    6    0    0 -0.85187982807E+01 -0.56250378336E+02  0.14608893884E+03  0.15677580502E+03  0.00000000000E+00 0. -1.
        -14    1    6    6    0    0 -0.11406350965E+03 -0.12508179082E+03  0.22652949608E+03  0.28279241719E+03  0.00000000000E+00 0.  1.
<mgrwt>
<rscale>  2 0.28468210E+03</rscale>
<asrwt>0</asrwt>
<pdfrwt beam="1">  1       21 0.15054066E+00 0.28588251E+03</pdfrwt>
<pdfrwt beam="2">  1       21 0.13091189E-01 0.28588251E+03</pdfrwt>
<totfact> 0.14049643E+04</totfact>
</mgrwt>
</event>
<event>
12    1  0.1029207E-001  0.1881072E+03  0.7546771E-02  0.1160234E+00
         21   -1    0    0  501  502  0.00000000000E+00  0.00000000000E+00  0.13414345940E+03  0.13414345940E+03  0.00000000000E+00 0. -1.
         21   -1    0    0  502  503 -0.00000000000E+00 -0.00000000000E+00 -0.46446392203E+03  0.46446392203E+03  0.00000000000E+00 0.  1.
         -6    2    1    2    0  503  0.23511225349E+02 -0.70573869119E+02 -0.36212087326E+03  0.40806352216E+03  0.17277402163E+03 0.  0.
        -24    2    3    3    0    0  0.16114765416E+01  0.25588082478E+02 -0.21691224138E+03  0.23246637895E+03  0.79576064611E+02 0.  0.
          6    2    1    2  501    0 -0.23511225349E+02  0.70573869119E+02  0.31800410621E+02  0.19054385928E+03  0.17251738310E+03 0.  0.
         24    2    5    5    0    0 -0.46785542995E+02  0.10404345207E+03  0.11764636505E+01  0.13934011944E+03  0.80002236633E+02 0.  0.
          5    1    5    5  501    0  0.23274317646E+02 -0.33469582955E+02  0.30623946971E+02  0.51203739835E+02  0.47000000000E+01 0. -1.
        -11    1    6    6    0    0 -0.37828685881E+02  0.73977815912E+02  0.37658647918E+02  0.91224451139E+02  0.00000000000E+00 0.  1.
         12    1    6    6    0    0 -0.89568571144E+01  0.30065636163E+02 -0.36482184268E+02  0.48115668302E+02  0.00000000000E+00 0. -1.
         -5    1    3    3    0  503  0.21899748807E+02 -0.96161951597E+02 -0.14520863188E+03  0.17559714321E+03  0.47000000000E+01 0.  1.
         11    1    4    4    0    0  0.37737387682E+02 -0.80202619434E+00 -0.11840338697E+03  0.12427435665E+03  0.00000000000E+00 0. -1.
        -12    1    4    4    0    0 -0.36125911140E+02  0.26390108672E+02 -0.98508854409E+02  0.10819202230E+03  0.00000000000E+00 0.  1.
<mgrwt>
<rscale>  2 0.18804823E+03</rscale>
<asrwt>0</asrwt>
<pdfrwt beam="1">  1       21 0.20637455E-01 0.18810718E+03</pdfrwt>
<pdfrwt beam="2">  1       21 0.71455988E-01 0.18810718E+03</pdfrwt>
<totfact> 0.38629506E+04</totfact>
</mgrwt>
</event>
<event>
12    1  0.1029207E-001  0.2102115E+03  0.7546771E-02  0.1141454E+00
         21   -1    0    0  501  502  0.00000000000E+00  0.00000000000E+00  0.10821291302E+03  0.10821291302E+03  0.00000000000E+00 0. -1.
         21   -1    0    0  502  503 -0.00000000000E+00 -0.00000000000E+00 -0.41267953601E+03  0.41267953601E+03  0.00000000000E+00 0.  1.
         -6    2    1    2    0  503 -0.76841340503E+02 -0.91621388398E+02 -0.18043665041E+03  0.27681807570E+03  0.17254504282E+03 0.  0.
        -24    2    3    3    0    0 -0.79023813277E+02  0.11344863595E+01 -0.63107891977E+02  0.12716332955E+03  0.77083436803E+02 0.  0.
          6    2    1    2  501    0  0.76841340503E+02  0.91621388398E+02 -0.12402997258E+03  0.24407437332E+03  0.17288665417E+03 0.  0.
         24    2    5    5    0    0  0.23670977786E+02  0.11295323790E+03 -0.90193796255E+02  0.17737270840E+03  0.10003703145E+03 0.  0.
          5    1    5    5  501    0  0.53170362718E+02 -0.21331849502E+02 -0.33836176322E+02  0.66701664918E+02  0.47000000000E+01 0. -1.
        -13    1    6    6    0    0  0.29407720658E+02  0.13984382356E+02 -0.68566358759E+02  0.75906011209E+02  0.00000000000E+00 0.  1.
         14    1    6    6    0    0 -0.57367428723E+01  0.98968855544E+02 -0.21627437496E+02  0.10146669719E+03  0.00000000000E+00 0. -1.
         -5    1    3    3    0  503  0.21824727733E+01 -0.92755874758E+02 -0.11732875843E+03  0.14965474615E+03  0.47000000000E+01 0.  1.
         11    1    4    4    0    0 -0.88022103507E+02 -0.16115447932E+02 -0.59266753823E+02  0.10733194527E+03  0.00000000000E+00 0. -1.
        -12    1    4    4    0    0  0.89982902299E+01  0.17249934291E+02 -0.38411381546E+01  0.19831384279E+02  0.00000000000E+00 0.  1.
<mgrwt>
<rscale>  2 0.21014123E+03</rscale>
<asrwt>0</asrwt>
<pdfrwt beam="1">  1       21 0.16648140E-01 0.21021148E+03</pdfrwt>
<pdfrwt beam="2">  1       21 0.63489160E-01 0.21021148E+03</pdfrwt>
<totfact> 0.73786981E+04</totfact>
</mgrwt>
</event>
<event>
12    1  0.1029207E-001  0.1745678E+03  0.7546771E-02  0.1173629E+00
         21   -1    0    0  503  502  0.00000000000E+00  0.00000000000E+00  0.42338456303E+03  0.42338456303E+03  0.00000000000E+00 0.  1.
         21   -1    0    0  501  503 -0.00000000000E+00 -0.00000000000E+00 -0.13337009802E+03  0.13337009802E+03  0.00000000000E+00 0.  1.
          6    2    1    2  501    0 -0.87026277317E+01 -0.23315879813E+02 -0.45422677633E+02  0.17861185618E+03  0.17093744337E+03 0.  0.
         24    2    3    3    0    0 -0.49152190484E+01  0.93304706133E+01 -0.91471789097E+02  0.12184268033E+03  0.79795573115E+02 0.  0.
         -6    2    1    2    0  502  0.87026277317E+01  0.23315879813E+02  0.33543714264E+03  0.37814280487E+03  0.17278465856E+03 0.  0.
        -24    2    5    5    0    0  0.44477301398E+02 -0.29144701254E+02  0.12172438838E+03  0.15514690541E+03  0.80162906525E+02 0.  0.
          5    1    3    3  501    0 -0.37874086834E+01 -0.32646350426E+02  0.46049111464E+02  0.56769175855E+02  0.47000000000E+01 0. -1.
        -13    1    4    4    0    0  0.21282677064E+02 -0.90907967878E+01 -0.86364923795E+02  0.89411939871E+02  0.00000000000E+00 0.  1.
         14    1    4    4    0    0 -0.26197896112E+02  0.18421267401E+02 -0.51068653013E+01  0.32430740457E+02  0.00000000000E+00 0. -1.
         -5    1    5    5    0  502 -0.35774673666E+02  0.52460581067E+02  0.21371275426E+03  0.22299589946E+03  0.47000000000E+01 0.  1.
         11    1    6    6    0    0  0.48834731964E+02  0.15574606735E+02  0.65803694773E+02  0.83411783740E+02  0.00000000000E+00 0. -1.
        -12    1    6    6    0    0 -0.43574305661E+01 -0.44719307989E+02  0.55920693603E+02  0.71735121672E+02  0.00000000000E+00 0.  1.
<mgrwt>
<rscale>  2 0.17410892E+03</rscale>
<asrwt>0</asrwt>
<pdfrwt beam="1">  1       21 0.65136086E-01 0.17456776E+03</pdfrwt>
<pdfrwt beam="2">  1       21 0.20518477E-01 0.17456776E+03</pdfrwt>
<totfact> 0.48162600E+04</totfact>
</mgrwt>
</event>
<event>
12    1  0.1029207E-001  0.3381199E+03  0.7546771E-02  0.1068148E+00
         21   -1    0    0  501  502  0.00000000000E+00  0.00000000000E+00  0.79671679591E+02  0.79671679591E+02  0.00000000000E+00 0.  1.
         21   -1    0    0  502  503 -0.00000000000E+00 -0.00000000000E+00 -0.14933986758E+04  0.14933986758E+04  0.00000000000E+00 0.  1.
         -6    2    1    2    0  503 -0.12193034264E+03 -0.25764026770E+03 -0.88372492223E+03  0.94439931170E+03  0.17226376803E+03 0.  0.
        -24    2    3    3    0    0 -0.47426579029E+02 -0.48921980909E+02 -0.37400702440E+03  0.38856789895E+03  0.80381074758E+02 0.  0.
          6    2    1    2  501    0  0.12193034264E+03  0.25764026770E+03 -0.53000207396E+03  0.62867104367E+03  0.18187788966E+03 0.  0.
         24    2    5    5    0    0  0.69394771459E+02  0.40860268818E+02 -0.18715389840E+03  0.21962273889E+03  0.81990059629E+02 0.  0.
          5    1    5    5  501    0  0.52535571178E+02  0.21677999889E+03 -0.34284817556E+03  0.40904830478E+03  0.47000000000E+01 0. -1.
        -13    1    6    6    0    0  0.68898358340E+02  0.62621735209E+02 -0.15423778113E+03  0.18016036920E+03  0.00000000000E+00 0.  1.
         14    1    6    6    0    0  0.49641311895E+00 -0.21761466391E+02 -0.32916117277E+02  0.39462369697E+02  0.00000000000E+00 0. -1.
         -5    1    3    3    0  503 -0.74503763608E+02 -0.20871828680E+03 -0.50971789782E+03  0.55583141275E+03  0.47000000000E+01 0.  1.
         13    1    4    4    0    0 -0.49654390595E+02 -0.11616839556E+01 -0.26382016124E+03  0.26845481089E+03  0.00000000000E+00 0. -1.
        -14    1    4    4    0    0  0.22278115662E+01 -0.47760296954E+02 -0.11018686316E+03  0.12011308806E+03  0.00000000000E+00 0.  1.
<mgrwt>
<rscale>  2 0.33684450E+03</rscale>
<asrwt>0</asrwt>
<pdfrwt beam="1">  1       21 0.12257182E-01 0.33811992E+03</pdfrwt>
<pdfrwt beam="2">  1       21 0.22975364E+00 0.33811992E+03</pdfrwt>
<totfact> 0.44441216E+03</totfact>
</mgrwt>
</event>
<event>
12    1  0.1029207E-001  0.1957845E+03  0.7546771E-02  0.1153671E+00
         21   -1    0    0  501  502  0.00000000000E+00  0.00000000000E+00  0.12018738070E+04  0.12018738070E+04  0.00000000000E+00 0. -1.
         21   -1    0    0  502  503 -0.00000000000E+00 -0.00000000000E+00 -0.32754768494E+02  0.32754768494E+02  0.00000000000E+00 0.  1.
         -6    2    1    2    0  503 -0.86138518540E+02 -0.25261918504E+02  0.70010565495E+03  0.72696594306E+03  0.17399294631E+03 0.  0.
        -24    2    3    3    0    0  0.87199088379E+01  0.87207230942E+01  0.18866218249E+03  0.20567000340E+03  0.80960752076E+02 0.  0.
          6    2    1    2  501    0  0.86138518540E+02  0.25261918504E+02  0.46901338356E+03  0.50766263244E+03  0.17230724163E+03 0.  0.
         24    2    5    5    0    0  0.75691077813E+02 -0.18704036894E+01  0.14448711427E+03  0.18180269108E+03  0.80268640354E+02 0.  0.
          5    1    5    5  501    0  0.10447440727E+02  0.27132322193E+02  0.32452626929E+03  0.32585994136E+03  0.47000000000E+01 0. -1.
        -13    1    6    6    0    0 -0.48070139626E+01 -0.11542464671E+02 -0.35671684399E+01  0.13002329199E+02  0.00000000000E+00 0.  1.
         14    1    6    6    0    0  0.80498091776E+02  0.96720609817E+01  0.14805428271E+03  0.16880036189E+03  0.00000000000E+00 0. -1.
         -5    1    3    3    0  503 -0.94858427378E+02 -0.33982641598E+02  0.51144347247E+03  0.52129593966E+03  0.47000000000E+01 0.  1.
         11    1    4    4    0    0  0.41564053135E+02  0.18355789254E+02  0.13049814373E+03  0.13818202136E+03  0.00000000000E+00 0. -1.
        -12    1    4    4    0    0 -0.32844144297E+02 -0.96350661595E+01  0.58164038760E+02  0.67487982036E+02  0.00000000000E+00 0.  1.
<mgrwt>
<rscale>  2 0.19540925E+03</rscale>
<asrwt>0</asrwt>
<pdfrwt beam="1">  1       21 0.18490363E+00 0.19578446E+03</pdfrwt>
<pdfrwt beam="2">  1       21 0.50391961E-02 0.19578446E+03</pdfrwt>
<totfact> 0.44668221E+04</totfact>
</mgrwt>
</event>
<event>
12    1  0.1029207E-001  0.2117312E+03  0.7546771E-02  0.1140524E+00
         21   -1    0    0  503  502  0.00000000000E+00  0.00000000000E+00  0.31111125006E+03  0.31111125006E+03  0.00000000000E+00 0.  1.
         21   -1    0    0  501  503 -0.00000000000E+00 -0.00000000000E+00 -0.22614383665E+03  0.22614383665E+03  0.00000000000E+00 0.  1.
          6    2    1    2  501    0  0.11973235466E+03 -0.15623300034E+02 -0.12051644112E+03  0.24220639727E+03  0.17192964271E+03 0.  0.
         24    2    3    3    0    0  0.10798918008E+03 -0.70497092158E+02 -0.81881952228E+02  0.17391475106E+03  0.83127513600E+02 0.  0.
         -6    2    1    2    0  502 -0.11973235466E+03  0.15623300034E+02  0.20548385453E+03  0.29504868943E+03  0.17392581869E+03 0.  0.
        -24    2    5    5    0    0  0.11364659167E+02 -0.33667960090E+01  0.72226547659E+02  0.10709483707E+03  0.78180171066E+02 0.  0.
          5    1    3    3  501    0  0.11743174584E+02  0.54873792124E+02 -0.38634488893E+02  0.68291646219E+02  0.47000000000E+01 0. -1.
        -13    1    4    4    0    0  0.45657577532E+02  0.52233740317E+01 -0.56075572179E+02  0.72500812530E+02  0.00000000000E+00 0.  1.
         14    1    4    4    0    0  0.62331602546E+02 -0.75720466190E+02 -0.25806380049E+02  0.10141393853E+03  0.00000000000E+00 0. -1.
         -5    1    5    5    0  502 -0.13109701383E+03  0.18990096043E+02  0.13325730687E+03  0.18795385236E+03  0.47000000000E+01 0.  1.
         11    1    6    6    0    0 -0.25861874902E+01  0.11193548288E+02 -0.14246598023E+02  0.18301624087E+02  0.00000000000E+00 0. -1.
        -12    1    6    6    0    0  0.13950846657E+02 -0.14560344297E+02  0.86473145681E+02  0.88793212987E+02  0.00000000000E+00 0.  1.
<mgrwt>
<rscale>  2 0.21132087E+03</rscale>
<asrwt>0</asrwt>
<pdfrwt beam="1">  1       21 0.47863270E-01 0.21173123E+03</pdfrwt>
<pdfrwt beam="2">  1       21 0.34791359E-01 0.21173123E+03</pdfrwt>
<totfact> 0.32891295E+04</totfact>
</mgrwt>
</event>
<event>
12    1  0.1029207E-001  0.2592155E+03  0.7546771E-02  0.1107644E+00
         21   -1    0    0  503  502  0.00000000000E+00  0.00000000000E+00  0.13420191720E+04  0.13420191720E+04  0.00000000000E+00 0. -1.
         21   -1    0    0  501  503 -0.00000000000E+00 -0.00000000000E+00 -0.57004925217E+02  0.57004925217E+02  0.00000000000E+00 0. -1.
          6    2    1    2  501    0  0.50417017417E+02  0.18559248317E+03  0.39765239638E+03  0.47457629631E+03  0.17351883824E+03 0.  0.
         24    2    3    3    0    0  0.23066716841E+02  0.19089899942E+02  0.10098590432E+03  0.13324911212E+03  0.81612960386E+02 0.  0.
         -6    2    1    2    0  502 -0.50417017417E+02 -0.18559248317E+03  0.88736185041E+03  0.92444780091E+03  0.17379941769E+03 0.  0.
        -24    2    5    5    0    0 -0.33902555988E+02 -0.74415374819E+02  0.66744992327E+03  0.67743277595E+03  0.82089795641E+02 0.  0.
          5    1    3    3  501    0  0.27350300575E+02  0.16650258322E+03  0.29666649206E+03  0.34132718420E+03  0.47000000000E+01 0. -1.
        -13    1    4    4    0    0  0.48887316685E+02 -0.17570032585E+01  0.80654937373E+02  0.94330672190E+02  0.00000000000E+00 0.  1.
         14    1    4    4    0    0 -0.25820599844E+02  0.20846903201E+02  0.20330966946E+02  0.38918439926E+02  0.00000000000E+00 0. -1.
         -5    1    5    5    0  502 -0.16514461429E+02 -0.11117710835E+03  0.21991192715E+03  0.24701502496E+03  0.47000000000E+01 0.  1.
         11    1    6    6    0    0 -0.10667740288E+02 -0.86577206276E+02  0.56423132137E+03  0.57093466994E+03  0.00000000000E+00 0. -1.
        -12    1    6    6    0    0 -0.23234815700E+02  0.12161831456E+02  0.10321860190E+03  0.10649810601E+03  0.00000000000E+00 0.  1.
<mgrwt>
<rscale>  2 0.25916849E+03</rscale>
<asrwt>0</asrwt>
<pdfrwt beam="1">  1       21 0.20646446E+00 0.25921551E+03</pdfrwt>
<pdfrwt beam="2">  1       21 0.87699895E-02 0.25921551E+03</pdfrwt>
<totfact> 0.11887855E+04</totfact>
</mgrwt>
</event>
<event>
12    1  0.1029207E-001  0.1895094E+03  0.7546771E-02  0.1159310E+00
         21   -1    0    0  503  502  0.00000000000E+00  0.00000000000E+00  0.40851205781E+02  0.40851205781E+02  0.00000000000E+00 0.  1.
         21   -1    0    0  501  503 -0.00000000000E+00 -0.00000000000E+00 -0.95311464126E+03  0.95311464126E+03  0.00000000000E+00 0. -1.
          6    2    1    2  501    0  0.38575715638E+02 -0.67910139966E+02 -0.31212729471E+03  0.36515374932E+03  0.17266713524E+03 0.  0.
         24    2    3    3    0    0  0.82039717622E+02 -0.84038529461E+01 -0.20778260044E+03  0.23732565035E+03  0.79678825651E+02 0.  0.
         -6    2    1    2    0  502 -0.38575715638E+02  0.67910139966E+02 -0.60013614077E+03  0.62881209772E+03  0.17070850546E+03 0.  0.
        -24    2    5    5    0    0  0.13824943027E+02  0.94256363946E+02 -0.47339186578E+03  0.48907608307E+03  0.77589723915E+02 0.  0.
          5    1    3    3  501    0 -0.43464001984E+02 -0.59506287020E+02 -0.10434469427E+03  0.12782809897E+03  0.47000000000E+01 0. -1.
        -11    1    4    4    0    0 -0.13410492148E+02 -0.37460715240E+01 -0.84972745143E+01  0.16311898286E+02  0.00000000000E+00 0.  1.
         12    1    4    4    0    0  0.95450209770E+02 -0.46577814221E+01 -0.19928532592E+03  0.22101375206E+03  0.00000000000E+00 0. -1.
         -5    1    5    5    0  502 -0.52400658665E+02 -0.26346223980E+02 -0.12674427499E+03  0.13973601465E+03  0.47000000000E+01 0.  1.
         11    1    6    6    0    0 -0.11249750290E+02  0.58733488123E+02 -0.39439829504E+03  0.39890624793E+03  0.00000000000E+00 0. -1.
        -12    1    6    6    0    0  0.25074693317E+02  0.35522875824E+02 -0.78993570734E+02  0.90169835139E+02  0.00000000000E+00 0.  1.
<mgrwt>
<rscale>  2 0.18906211E+03</rscale>
<asrwt>0</asrwt>
<pdfrwt beam="1">  1       21 0.62848003E-02 0.18950940E+03</pdfrwt>
<pdfrwt beam="2">  1       21 0.14663303E+00 0.18950940E+03</pdfrwt>
<totfact> 0.57872320E+04</totfact>
</mgrwt>
</event>
<event>
12    1  0.1029207E-001  0.1798761E+03  0.7546771E-02  0.1168277E+00
         21   -1    0    0  503  502  0.00000000000E+00  0.00000000000E+00  0.14870842025E+04  0.14870842025E+04  0.00000000000E+00 0. -1.
         21   -1    0    0  501  503 -0.00000000000E+00 -0.00000000000E+00 -0.93284084114E+02  0.93284084114E+02  0.00000000000E+00 0. -1.
          6    2    1    2  501    0  0.12524412671E+02  0.41463003866E+02  0.34742764262E+01  0.17845482864E+03  0.17308383421E+03 0.  0.
         24    2    3    3    0    0 -0.16050851886E+02  0.87632159072E+02 -0.16922290468E+02  0.12026336382E+03  0.78992959258E+02 0.  0.
         -6    2    1    2    0  502 -0.12524412671E+02 -0.41463003866E+02  0.13903258420E+04  0.14019134580E+04  0.17458337616E+03 0.  0.
        -24    2    5    5    0    0 -0.11712155571E+02  0.36604922796E+02  0.47468977749E+03  0.48294297233E+03  0.80165046661E+02 0.  0.
          5    1    3    3  501    0  0.28575264558E+02 -0.46169155205E+02  0.20396566894E+02  0.58191464820E+02  0.47000000000E+01 0. -1.
        -11    1    4    4    0    0 -0.85894506580E+00  0.70805062105E+02  0.22916224899E+02  0.74426124244E+02  0.00000000000E+00 0.  1.
         12    1    4    4    0    0 -0.15191906820E+02  0.16827096966E+02 -0.39838515367E+02  0.45837239574E+02  0.00000000000E+00 0. -1.
         -5    1    5    5    0  502 -0.81225710007E+00 -0.78067926663E+02  0.91563606451E+03  0.91897048569E+03  0.47000000000E+01 0.  1.
         13    1    6    6    0    0  0.20617065190E+02 -0.16190004593E+02  0.17213393935E+03  0.17411855933E+03  0.00000000000E+00 0. -1.
        -14    1    6    6    0    0 -0.32329220761E+02  0.52794927389E+02  0.30255583814E+03  0.30882441300E+03  0.00000000000E+00 0.  1.
<mgrwt>
<rscale>  2 0.17951119E+03</rscale>
<asrwt>0</asrwt>
<pdfrwt beam="1">  1       21 0.22878217E+00 0.17987606E+03</pdfrwt>
<pdfrwt beam="2">  1       21 0.14351399E-01 0.17987606E+03</pdfrwt>
<totfact> 0.38323126E+03</totfact>
</mgrwt>
</event>
<event>
12    1  0.1029207E-001  0.2000050E+03  0.7546771E-02  0.1150289E+00
         21   -1    0    0  503  502  0.00000000000E+00  0.00000000000E+00  0.13619837139E+04  0.13619837139E+04  0.00000000000E+00 0. -1.
         21   -1    0    0  501  503 -0.00000000000E+00 -0.00000000000E+00 -0.35267840853E+02  0.35267840853E+02  0.00000000000E+00 0. -1.
          6    2    1    2  501    0  0.33353173049E+02  0.92876255827E+02  0.37215636749E+03  0.42249537504E+03  0.17396421188E+03 0.  0.
         24    2    3    3    0    0  0.18387891214E+01  0.81357132652E+02  0.11302477859E+03  0.16115820401E+03  0.81086385826E+02 0.  0.
         -6    2    1    2    0  502 -0.33353173049E+02 -0.92876255827E+02  0.95455950551E+03  0.97475617967E+03  0.17096001637E+03 0.  0.
        -24    2    5    5    0    0  0.24875960125E+02 -0.27763443668E+02  0.26335593276E+03  0.27803903531E+03  0.80992194945E+02 0.  0.
          5    1    3    3  501    0  0.31514383927E+02  0.11519123175E+02  0.25913158890E+03  0.26133717102E+03  0.47000000000E+01 0. -1.
        -13    1    4    4    0    0  0.30460789261E+02  0.26691389753E+02  0.11072518817E+02  0.41986791284E+02  0.00000000000E+00 0.  1.
         14    1    4    4    0    0 -0.28622000140E+02  0.54665742899E+02  0.10195225978E+03  0.11917141273E+03  0.00000000000E+00 0. -1.
         -5    1    5    5    0  502 -0.58229133174E+02 -0.65112812159E+02  0.69120357275E+03  0.69671714436E+03  0.47000000000E+01 0.  1.
         11    1    6    6    0    0  0.21429706161E+02 -0.55784087080E+02  0.15664298508E+03  0.16765476866E+03  0.00000000000E+00 0. -1.
        -12    1    6    6    0    0  0.34462539639E+01  0.28020643412E+02  0.10671294768E+03  0.11038426666E+03  0.00000000000E+00 0.  1.
<mgrwt>
<rscale>  2 0.19934987E+03</rscale>
<asrwt>0</asrwt>
<pdfrwt beam="1">  1       21 0.20953592E+00 0.20000495E+03</pdfrwt>
<pdfrwt beam="2">  1       21 0.54258227E-02 0.20000495E+03</pdfrwt>
<totfact> 0.27200290E+04</totfact>
</mgrwt>
</event>
<event>
12    1  0.1029207E-001  0.2031074E+03  0.7546771E-02  0.1147220E+00
         21   -1    0    0  501  502  0.00000000000E+00  0.00000000000E+00  0.43350095511E+03  0.43350095511E+03  0.00000000000E+00 0. -1.
         21   -1    0    0  502  503 -0.00000000000E+00 -0.00000000000E+00 -0.97311556504E+02  0.97311556504E+02  0.00000000000E+00 0. -1.
         -6    2    1    2    0  503  0.86880248054E+02 -0.59817517130E+02  0.12723135673E+03  0.23966729877E+03  0.17356924585E+03 0.  0.
        -24    2    3    3    0    0  0.24657459609E+02 -0.87313832193E+02  0.37928186414E+02  0.12730685656E+03  0.80850434730E+02 0.  0.
          6    2    1    2  501    0 -0.86880248054E+02  0.59817517130E+02  0.20895804187E+03  0.29114521284E+03  0.17313508842E+03 0.  0.
         24    2    5    5    0    0  0.13383651632E+02 -0.60874286841E+01  0.96859732372E+02  0.12687582295E+03  0.80619400739E+02 0.  0.
          5    1    5    5  501    0 -0.10026389969E+03  0.65904945814E+02  0.11209830950E+03  0.16426938989E+03  0.47000000000E+01 0. -1.
        -13    1    6    6    0    0 -0.26894722312E+01 -0.17053834347E+02  0.10454078195E+03  0.10595679127E+03  0.00000000000E+00 0.  1.
         14    1    6    6    0    0  0.16073123863E+02  0.10966405663E+02 -0.76810495738E+01  0.20919031680E+02  0.00000000000E+00 0. -1.
         -5    1    3    3    0  503  0.62222788445E+02  0.27496315063E+02  0.89303170317E+02  0.11236044221E+03  0.47000000000E+01 0.  1.
         11    1    4    4    0    0  0.14564185607E+02 -0.58274459465E+02  0.63433868152E+02  0.87360653369E+02  0.00000000000E+00 0. -1.
        -12    1    4    4    0    0  0.10093274002E+02 -0.29039372728E+02 -0.25505681738E+02  0.39946203192E+02  0.00000000000E+00 0.  1.
<mgrwt>
<rscale>  2 0.20301456E+03</rscale>
<asrwt>0</asrwt>
<pdfrwt beam="1">  1       21 0.66692454E-01 0.20310735E+03</pdfrwt>
<pdfrwt beam="2">  1       21 0.14971009E-01 0.20310735E+03</pdfrwt>
<totfact> 0.80751622E+04</totfact>
</mgrwt>
</event>
<event>
12    1  0.1029207E-001  0.2845270E+03  0.7546771E-02  0.1093539E+00
         21   -1    0    0  503  502  0.00000000000E+00  0.00000000000E+00  0.69925394277E+03  0.69925394277E+03  0.00000000000E+00 0.  1.
         21   -1    0    0  501  503 -0.00000000000E+00 -0.00000000000E+00 -0.43075256290E+03  0.43075256290E+03  0.00000000000E+00 0.  1.
          6    2    1    2  501    0 -0.22560178301E+03  0.17993712269E+02 -0.34972256667E+03  0.44945049538E+03  0.16875999521E+03 0.  0.
         24    2    3    3    0    0 -0.44692654914E+02 -0.15136245918E+02 -0.16029638579E+03  0.18538596774E+03  0.80290014278E+02 0.  0.
         -6    2    1    2    0  502  0.22560178301E+03 -0.17993712269E+02  0.61822394654E+03  0.68055601030E+03  0.17244041548E+03 0.  0.
        -24    2    5    5    0    0  0.49931545777E+02  0.29641875840E+02  0.26984068210E+03  0.28746292915E+03  0.80306549238E+02 0.  0.
          5    1    3    3  501    0 -0.18090912809E+03  0.33129958187E+02 -0.18942618088E+03  0.26406452764E+03  0.47000000000E+01 0. -1.
        -13    1    4    4    0    0 -0.64500508161E+02 -0.15227899235E+02 -0.86456710209E+02  0.10893561038E+03  0.00000000000E+00 0.  1.
         14    1    4    4    0    0  0.19807853247E+02  0.91653316773E-01 -0.73839675582E+02  0.76450357361E+02  0.00000000000E+00 0. -1.
         -5    1    5    5    0  502  0.17567023723E+03 -0.47635588109E+02  0.34838326444E+03  0.39309308115E+03  0.47000000000E+01 0.  1.
         13    1    6    6    0    0  0.20039394976E+02  0.46911597695E+02  0.82722871314E+02  0.97187184277E+02  0.00000000000E+00 0. -1.
        -14    1    6    6    0    0  0.29892150801E+02 -0.17269721854E+02  0.18711781078E+03  0.19027574487E+03  0.00000000000E+00 0.  1.
<mgrwt>
<rscale>  2 0.28397157E+03</rscale>
<asrwt>0</asrwt>
<pdfrwt beam="1">  1       21 0.10757753E+00 0.28452704E+03</pdfrwt>
<pdfrwt beam="2">  1       21 0.66269625E-01 0.28452704E+03</pdfrwt>
<totfact> 0.13373638E+03</totfact>
</mgrwt>
</event>
<event>
12    1  0.1029207E-001  0.1771299E+03  0.7546771E-02  0.1171011E+00
         21   -1    0    0  501  502  0.00000000000E+00  0.00000000000E+00  0.65192693987E+02  0.65192693987E+02  0.00000000000E+00 0. -1.
         21   -1    0    0  502  503 -0.00000000000E+00 -0.00000000000E+00 -0.63090081027E+03  0.63090081027E+03  0.00000000000E+00 0. -1.
         -6    2    1    2    0  503 -0.18643996470E+01 -0.32082182907E+02 -0.45579481598E+03  0.48900297130E+03  0.17419026730E+03 0.  0.
        -24    2    3    3    0    0  0.55206351375E+02 -0.42876455200E+02 -0.37096326744E+03  0.38608519556E+03  0.81005560273E+02 0.  0.
          6    2    1    2  501    0  0.18643996470E+01  0.32082182907E+02 -0.10991330030E+03  0.20709053295E+03  0.17254800146E+03 0.  0.
         24    2    5    5    0    0 -0.29867739155E+02  0.78123717821E+02 -0.94283970572E+02  0.14884006070E+03  0.79173855739E+02 0.  0.
          5    1    5    5  501    0  0.31732138802E+02 -0.46041534915E+02 -0.15629329724E+02  0.58250472255E+02  0.47000000000E+01 0. -1.
        -13    1    6    6    0    0  0.44095173330E+01 -0.12695838260E+02 -0.28694174450E+02  0.31685703395E+02  0.00000000000E+00 0.  1.
         14    1    6    6    0    0 -0.34277256488E+02  0.90819556082E+02 -0.65589796122E+02  0.11715435730E+03  0.00000000000E+00 0. -1.
         -5    1    3    3    0  503 -0.57070751022E+02  0.10794272293E+02 -0.84831548543E+02  0.10291777575E+03  0.47000000000E+01 0.  1.
         13    1    4    4    0    0  0.35582796134E+02 -0.47796087599E+02 -0.35592231387E+03  0.36087573329E+03  0.00000000000E+00 0. -1.
        -14    1    4    4    0    0  0.19623555241E+02  0.49196323992E+01 -0.15040953572E+02  0.25209462263E+02  0.00000000000E+00 0.  1.
<mgrwt>
<rscale>  2 0.17672480E+03</rscale>
<asrwt>0</asrwt>
<pdfrwt beam="1">  1       21 0.10029646E-01 0.17712987E+03</pdfrwt>
<pdfrwt beam="2">  1       21 0.97061659E-01 0.17712987E+03</pdfrwt>
<totfact> 0.71604493E+04</totfact>
</mgrwt>
</event>
<event>
12    1  0.1029207E-001  0.2192484E+03  0.7546771E-02  0.1136617E+00
         21   -1    0    0  503  502  0.00000000000E+00  0.00000000000E+00  0.69682055597E+02  0.69682055597E+02  0.00000000000E+00 0. -1.
         21   -1    0    0  501  503 -0.00000000000E+00 -0.00000000000E+00 -0.81097738388E+03  0.81097738388E+03  0.00000000000E+00 0. -1.
          6    2    1    2  501    0 -0.11779317995E+03 -0.11511838400E+02 -0.55591619265E+03  0.59354398506E+03  0.17100845970E+03 0.  0.
         24    2    3    3    0    0 -0.91872916237E+01  0.71912083992E+01 -0.12642814658E+03  0.15011742445E+03  0.80093976498E+02 0.  0.
         -6    2    1    2    0  502  0.11779317995E+03  0.11511838400E+02 -0.18537913563E+03  0.28711545441E+03  0.18455921697E+03 0.  0.
        -24    2    5    5    0    0  0.12174810874E+03 -0.48648713686E+02 -0.14734764350E+03  0.21567724417E+03  0.87269962080E+02 0.  0.
          5    1    3    3  501    0 -0.10860588832E+03 -0.18703046799E+02 -0.42948804607E+03  0.44342656061E+03  0.47000000000E+01 0. -1.
        -13    1    4    4    0    0 -0.16174139471E+02 -0.32781280726E+02 -0.37499708423E+02  0.52368342397E+02  0.00000000000E+00 0.  1.
         14    1    4    4    0    0  0.69868478474E+01  0.39972489125E+02 -0.88928438155E+02  0.97749082054E+02  0.00000000000E+00 0. -1.
         -5    1    5    5    0  502 -0.39549287914E+01  0.60160552086E+02 -0.38031492126E+02  0.71438210241E+02  0.47000000000E+01 0.  1.
         13    1    6    6    0    0  0.12834179617E+03 -0.22419301261E+02 -0.11817354314E+03  0.17589550310E+03  0.00000000000E+00 0. -1.
        -14    1    6    6    0    0 -0.65936874334E+01 -0.26229412425E+02 -0.29174100366E+02  0.39781741067E+02  0.00000000000E+00 0.  1.
<mgrwt>
<rscale>  2 0.21637280E+03</rscale>
<asrwt>0</asrwt>
<pdfrwt beam="1">  1       21 0.10720316E-01 0.21924840E+03</pdfrwt>
<pdfrwt beam="2">  1       21 0.12476575E+00 0.21924840E+03</pdfrwt>
<totfact> 0.33870673E+04</totfact>
</mgrwt>
</event>
<event>
12    1  0.1029207E-001  0.2657099E+03  0.7546771E-02  0.1104128E+00
         21   -1    0    0  501  502  0.00000000000E+00  0.00000000000E+00  0.30766638436E+03  0.30766638436E+03  0.00000000000E+00 0. -1.
         21   -1    0    0  502  503 -0.00000000000E+00 -0.00000000000E+00 -0.27940431644E+03  0.27940431644E+03  0.00000000000E+00 0.  1.
         -6    2    1    2    0  503 -0.81619984437E+02  0.18370143708E+03  0.14092104120E+03  0.30076651902E+03  0.17376340025E+03 0.  0.
        -24    2    3    3    0    0 -0.55446291373E+02  0.20071154116E+03  0.89825286884E+02  0.24070594994E+03  0.80692987228E+02 0.  0.
          6    2    1    2  501    0  0.81619984437E+02 -0.18370143708E+03 -0.11265897328E+03  0.28630418177E+03  0.16991174295E+03 0.  0.
         24    2    5    5    0    0 -0.11924583891E+02 -0.83055194425E+02 -0.89046681909E+02  0.14680549816E+03  0.81130645937E+02 0.  0.
          5    1    5    5  501    0  0.93544568327E+02 -0.10064624266E+03 -0.23612291372E+02  0.13949868361E+03  0.47000000000E+01 0. -1.
        -11    1    6    6    0    0  0.21173654735E+02 -0.37700071602E+02 -0.78579486932E+02  0.89690327350E+02  0.00000000000E+00 0.  1.
         12    1    6    6    0    0 -0.33098238625E+02 -0.45355122823E+02 -0.10467194977E+02  0.57115170814E+02  0.00000000000E+00 0. -1.
         -5    1    3    3    0  503 -0.26173693064E+02 -0.17010104084E+02  0.51095754318E+02  0.60060569086E+02  0.47000000000E+01 0.  1.
         13    1    4    4    0    0 -0.23482240956E+02  0.13818542024E+03  0.96490551250E+02  0.17016771870E+03  0.00000000000E+00 0. -1.
        -14    1    4    4    0    0 -0.31964050417E+02  0.62526120922E+02 -0.66652643669E+01  0.70538231234E+02  0.00000000000E+00 0.  1.
<mgrwt>
<rscale>  2 0.26508202E+03</rscale>
<asrwt>0</asrwt>
<pdfrwt beam="1">  1       21 0.47333290E-01 0.26570992E+03</pdfrwt>
<pdfrwt beam="2">  1       21 0.42985279E-01 0.26570992E+03</pdfrwt>
<totfact> 0.21393922E+04</totfact>
</mgrwt>
</event>
<event>
12    1  0.1029207E-001  0.1798601E+03  0.7546771E-02  0.1168043E+00
         21   -1    0    0  503  502  0.00000000000E+00  0.00000000000E+00  0.11172670357E+03  0.11172670357E+03  0.00000000000E+00 0.  1.
         21   -1    0    0  501  503 -0.00000000000E+00 -0.00000000000E+00 -0.29030399190E+03  0.29030399190E+03  0.00000000000E+00 0.  1.
          6    2    1    2  501    0  0.82423054151E+01 -0.49086615902E+02 -0.74947485245E+02  0.19445231791E+03  0.17238662053E+03 0.  0.
         24    2    3    3    0    0 -0.47797766655E+02 -0.38005241377E+02 -0.90590176463E+02  0.13503792296E+03  0.79370244404E+02 0.  0.
         -6    2    1    2    0  502 -0.82423054151E+01  0.49086615902E+02 -0.10362980308E+03  0.20757837755E+03  0.17283580440E+03 0.  0.
        -24    2    5    5    0    0 -0.60893311989E+02  0.14968231813E+02 -0.10257214135E+03  0.14465460403E+03  0.80447914065E+02 0.  0.
          5    1    3    3  501    0  0.56040072071E+02 -0.11081374526E+02  0.15642691217E+02  0.59414394953E+02  0.47000000000E+01 0. -1.
        -13    1    4    4    0    0  0.70416556408E+01 -0.35149249507E+02 -0.65490960477E+02  0.74660033213E+02  0.00000000000E+00 0.  1.
         14    1    4    4    0    0 -0.54839422296E+02 -0.28559918693E+01 -0.25099215985E+02  0.60377889748E+02  0.00000000000E+00 0. -1.
         -5    1    5    5    0  502  0.52651006574E+02  0.34118384089E+02 -0.10576617330E+01  0.62923773524E+02  0.47000000000E+01 0.  1.
         13    1    6    6    0    0 -0.12395796374E+02  0.34586271529E+01 -0.93016274480E+02  0.93902317265E+02  0.00000000000E+00 0. -1.
        -14    1    6    6    0    0 -0.48497515615E+02  0.11509604661E+02 -0.95558668697E+01  0.50752286765E+02  0.00000000000E+00 0.  1.
<mgrwt>
<rscale>  2 0.17975208E+03</rscale>
<asrwt>0</asrwt>
<pdfrwt beam="1">  1       21 0.17188724E-01 0.17986008E+03</pdfrwt>
<pdfrwt beam="2">  1       21 0.44662153E-01 0.17986008E+03</pdfrwt>
<totfact> 0.14773031E+05</totfact>
</mgrwt>
</event>
<event>
12    1  0.1029207E-001  0.1937653E+03  0.7546771E-02  0.1155303E+00
         21   -1    0    0  503  502  0.00000000000E+00  0.00000000000E+00  0.45697192163E+03  0.45697192163E+03  0.00000000000E+00 0.  1.
         21   -1    0    0  501  503 -0.00000000000E+00 -0.00000000000E+00 -0.18995515373E+03  0.18995515373E+03  0.00000000000E+00 0.  1.
          6    2    1    2  501    0  0.86989102515E+02  0.14261835692E+02 -0.11071271047E+03  0.22239843157E+03  0.17156122578E+03 0.  0.
         24    2    3    3    0    0  0.94315060577E+02 -0.32045022904E+02 -0.11827841738E+03  0.17467710787E+03  0.81240961652E+02 0.  0.
         -6    2    1    2    0  502 -0.86989102515E+02 -0.14261835692E+02  0.37772947837E+03  0.42452864379E+03  0.17255290973E+03 0.  0.
        -24    2    5    5    0    0 -0.48389085586E+02  0.55187142913E+02  0.24972473519E+03  0.27379568054E+03  0.84938253844E+02 0.  0.
          5    1    3    3  501    0 -0.73259580611E+01  0.46306858596E+02  0.75657069165E+01  0.47721323700E+02  0.47000000000E+01 0. -1.
        -11    1    4    4    0    0  0.88885718621E+02 -0.37022750879E+02 -0.54834304447E+02  0.11080684095E+03  0.00000000000E+00 0.  1.
         12    1    4    4    0    0  0.54293419559E+01  0.49777279748E+01 -0.63444112936E+02  0.63870266917E+02  0.00000000000E+00 0. -1.
         -5    1    5    5    0  502 -0.38600016929E+02 -0.69448978605E+02  0.12800474318E+03  0.15073296326E+03  0.47000000000E+01 0.  1.
         11    1    6    6    0    0 -0.44842033057E+02  0.24648998665E+01  0.50039345674E+02  0.67237041692E+02  0.00000000000E+00 0. -1.
        -12    1    6    6    0    0 -0.35470525290E+01  0.52722243046E+02  0.19968538952E+03  0.20655863884E+03  0.00000000000E+00 0.  1.
<mgrwt>
<rscale>  2 0.19354432E+03</rscale>
<asrwt>0</asrwt>
<pdfrwt beam="1">  1       21 0.70303372E-01 0.19376535E+03</pdfrwt>
<pdfrwt beam="2">  1       21 0.29223870E-01 0.19376535E+03</pdfrwt>
<totfact> 0.20568525E+04</totfact>
</mgrwt>
</event>
<event>
12    1  0.1029207E-001  0.2471952E+03  0.7546771E-02  0.1115164E+00
         21   -1    0    0  501  502  0.00000000000E+00  0.00000000000E+00  0.13623166628E+03  0.13623166628E+03  0.00000000000E+00 0.  1.
         21   -1    0    0  502  503 -0.00000000000E+00 -0.00000000000E+00 -0.53556322769E+03  0.53556322769E+03  0.00000000000E+00 0.  1.
         -6    2    1    2    0  503  0.15296714975E+03  0.86638734507E+02 -0.33555377344E+03  0.41650473228E+03  0.17313185127E+03 0.  0.
        -24    2    3    3    0    0  0.96793831450E+02  0.27572847741E+02 -0.30147889189E+03  0.32803209120E+03  0.81155547330E+02 0.  0.
          6    2    1    2  501    0 -0.15296714975E+03 -0.86638734507E+02 -0.63777787966E+02  0.25529016169E+03  0.17378216594E+03 0.  0.
         24    2    5    5    0    0 -0.40084255512E+02 -0.87900671016E+02 -0.19936371460E+01  0.12651317777E+03  0.81659868087E+02 0.  0.
          5    1    5    5  501    0 -0.11288289424E+03  0.12619365085E+01 -0.61784150820E+02  0.12877698392E+03  0.47000000000E+01 0. -1.
        -13    1    6    6    0    0 -0.40885953622E+02 -0.89786725209E+02  0.23108286078E+02  0.10132773615E+03  0.00000000000E+00 0.  1.
         14    1    6    6    0    0  0.80169810997E+00  0.18860541930E+01 -0.25101923224E+02  0.25185441625E+02  0.00000000000E+00 0. -1.
         -5    1    3    3    0  503  0.56173318298E+02  0.59065886766E+02 -0.34074881556E+02  0.88472641088E+02  0.47000000000E+01 0.  1.
         11    1    4    4    0    0  0.12226332829E+02  0.66268541401E+01  0.31908343916E+00  0.13910435812E+02  0.00000000000E+00 0. -1.
        -12    1    4    4    0    0  0.84567498621E+02  0.20945993601E+02 -0.30179797533E+03  0.31412165538E+03  0.00000000000E+00 0.  1.
<mgrwt>
<rscale>  2 0.24708092E+03</rscale>
<asrwt>0</asrwt>
<pdfrwt beam="1">  1       21 0.20958718E-01 0.24719519E+03</pdfrwt>
<pdfrwt beam="2">  1       21 0.82394342E-01 0.24719519E+03</pdfrwt>
<totfact> 0.26431871E+04</totfact>
</mgrwt>
</event>
<event>
12    1  0.1029207E-001  0.1825768E+03  0.7546771E-02  0.1165536E+00
         21   -1    0    0  501  502  0.00000000000E+00  0.00000000000E+00  0.57889926269E+03  0.57889926269E+03  0.00000000000E+00 0. -1.
         21   -1    0    0  502  503 -0.00000000000E+00 -0.00000000000E+00 -0.10416658267E+03  0.10416658267E+03  0.00000000000E+00 0. -1.
         -6    2    1    2    0  503 -0.32575689850E+02  0.48066970894E+02  0.46672725618E+03  0.50116727306E+03  0.17309735605E+03 0.  0.
        -24    2    3    3    0    0 -0.45792607505E+02  0.44992162196E+02  0.47401136417E+03  0.48506480151E+03  0.80497395913E+02 0.  0.
          6    2    1    2  501    0  0.32575689850E+02 -0.48066970894E+02  0.80054238456E+01  0.18189857230E+03  0.17219580289E+03 0.  0.
         24    2    5    5    0    0  0.14865964877E+02 -0.77094587927E+02  0.53711964966E+02  0.12473726711E+03  0.80683568503E+02 0.  0.
          5    1    5    5  501    0  0.17709724973E+02  0.29027617033E+02 -0.45706541121E+02  0.57161305185E+02  0.47000000000E+01 0. -1.
        -13    1    6    6    0    0  0.29709220815E+02 -0.19654442192E+02 -0.10672956198E+02  0.37186649396E+02  0.00000000000E+00 0.  1.
         14    1    6    6    0    0 -0.14843255938E+02 -0.57440145735E+02  0.64384921164E+02  0.87550617715E+02  0.00000000000E+00 0. -1.
         -5    1    3    3    0  503  0.13216917655E+02  0.30748086983E+01 -0.72841079871E+01  0.16102471549E+02  0.47000000000E+01 0.  1.
         13    1    4    4    0    0 -0.47847215233E+01 -0.13926487674E+02  0.17177503262E+02  0.22625367119E+02  0.00000000000E+00 0. -1.
        -14    1    4    4    0    0 -0.41007885981E+02  0.58918649869E+02  0.45683386090E+03  0.46243943440E+03  0.00000000000E+00 0.  1.
<mgrwt>
<rscale>  2 0.18236284E+03</rscale>
<asrwt>0</asrwt>
<pdfrwt beam="1">  1       21 0.89061424E-01 0.18257684E+03</pdfrwt>
<pdfrwt beam="2">  1       21 0.16025628E-01 0.18257684E+03</pdfrwt>
<totfact> 0.37619398E+04</totfact>
</mgrwt>
</event>
<event>
12    1  0.1029207E-001  0.2512222E+03  0.7546771E-02  0.1112795E+00
         21   -1    0    0  501  502  0.00000000000E+00  0.00000000000E+00  0.12535200966E+04  0.12535200966E+04  0.00000000000E+00 0.  1.
         21   -1    0    0  502  503 -0.00000000000E+00 -0.00000000000E+00 -0.12431019154E+03  0.12431019154E+03  0.00000000000E+00 0.  1.
         -6    2    1    2    0  503  0.17361307048E+03  0.51211357476E+02  0.31279192955E+02  0.25152462801E+03  0.17182010711E+03 0.  0.
        -24    2    3    3    0    0  0.11329497425E+03  0.89262420974E+02  0.58056615793E+02  0.17520112874E+03  0.80754776248E+02 0.  0.
          6    2    1    2  501    0 -0.17361307048E+03 -0.51211357476E+02  0.10979307121E+04  0.11263056602E+04  0.17420818028E+03 0.  0.
         24    2    5    5    0    0 -0.13579455600E+03 -0.73167414262E+02  0.10362493261E+04  0.10505495261E+04  0.77768945974E+02 0.  0.
          5    1    5    5  501    0 -0.37818514478E+02  0.21956056786E+02  0.61681386040E+02  0.75756134080E+02  0.47000000000E+01 0. -1.
        -11    1    6    6    0    0 -0.95336607260E+02 -0.85412217600E+02  0.69464486905E+03  0.70633972683E+03  0.00000000000E+00 0.  1.
         12    1    6    6    0    0 -0.40457948742E+02  0.12244803337E+02  0.34160445706E+03  0.34420979926E+03  0.00000000000E+00 0. -1.
         -5    1    3    3    0  503  0.60318096230E+02 -0.38051063498E+02 -0.26777422838E+02  0.76323499264E+02  0.47000000000E+01 0.  1.
         11    1    4    4    0    0  0.12344195892E+03  0.91423736959E+02  0.59490153560E+02  0.16472794321E+03  0.00000000000E+00 0. -1.
        -12    1    4    4    0    0 -0.10146984673E+02 -0.21613159850E+01 -0.14335377670E+01  0.10473185536E+02  0.00000000000E+00 0.  1.
<mgrwt>
<rscale>  2 0.25080866E+03</rscale>
<asrwt>0</asrwt>
<pdfrwt beam="1">  1       21 0.19284924E+00 0.25122220E+03</pdfrwt>
<pdfrwt beam="2">  1       21 0.19124646E-01 0.25122220E+03</pdfrwt>
<totfact> 0.35664561E+03</totfact>
</mgrwt>
</event>
<event>
12    1  0.1029207E-001  0.2741661E+03  0.7546771E-02  0.1100686E+00
         21   -1    0    0  501  502  0.00000000000E+00  0.00000000000E+00  0.24776275779E+03  0.24776275779E+03  0.00000000000E+00 0.  1.
         21   -1    0    0  502  503 -0.00000000000E+00 -0.00000000000E+00 -0.42886065394E+03  0.42886065394E+03  0.00000000000E+00 0.  1.
         -6    2    1    2    0  503  0.18728246388E+03 -0.53915398210E+02  0.10056838933E+03  0.29202923194E+03  0.19283537003E+03 0.  0.
        -24    2    3    3    0    0  0.19355224968E+02 -0.55206690987E+01  0.82681992572E+02  0.11629186949E+03  0.79261494383E+02 0.  0.
          6    2    1    2  501    0 -0.18728246388E+03  0.53915398210E+02 -0.28166628548E+03  0.38459417978E+03  0.17491482300E+03 0.  0.
         24    2    5    5    0    0 -0.18033008163E+03  0.41061518037E+01 -0.17068014381E+03  0.26265439838E+03  0.85555962233E+02 0.  0.
          5    1    5    5  501    0 -0.69523822488E+01  0.49809246406E+02 -0.11098614166E+03  0.12193978140E+03  0.47000000000E+01 0. -1.
        -13    1    6    6    0    0 -0.13550821242E+03  0.40965614051E+02 -0.11857976697E+03  0.18466677639E+03  0.00000000000E+00 0.  1.
         14    1    6    6    0    0 -0.44821869213E+02 -0.36859462247E+02 -0.52100376839E+02  0.77987621990E+02  0.00000000000E+00 0. -1.
         -5    1    3    3    0  503  0.16792723891E+03 -0.48394729111E+02  0.17886396755E+02  0.17573736246E+03  0.47000000000E+01 0.  1.
         11    1    4    4    0    0 -0.22710200832E+02 -0.25934764850E+02  0.41811318033E+02  0.54189958159E+02  0.00000000000E+00 0. -1.
        -12    1    4    4    0    0  0.42065425800E+02  0.20414095752E+02  0.40870674540E+02  0.62101911326E+02  0.00000000000E+00 0.  1.
<mgrwt>
<rscale>  2 0.27103945E+03</rscale>
<asrwt>0</asrwt>
<pdfrwt beam="1">  1       21 0.38117348E-01 0.27416614E+03</pdfrwt>
<pdfrwt beam="2">  1       21 0.65978562E-01 0.27416614E+03</pdfrwt>
<totfact> 0.13375173E+04</totfact>
</mgrwt>
</event>
<event>
12    1  0.1029207E-001  0.1795529E+03  0.7546771E-02  0.1168644E+00
         21   -1    0    0  501  502  0.00000000000E+00  0.00000000000E+00  0.23437761927E+02  0.23437761927E+02  0.00000000000E+00 0.  1.
         21   -1    0    0  502  503 -0.00000000000E+00 -0.00000000000E+00 -0.15159325750E+04  0.15159325750E+04  0.00000000000E+00 0. -1.
         -6    2    1    2    0  503 -0.35375644794E+02  0.28135626917E+02 -0.50472734428E+03  0.53571349789E+03  0.17377056717E+03 0.  0.
        -24    2    3    3    0    0  0.39174694655E+02 -0.87944488700E+01 -0.33960233995E+03  0.35075420328E+03  0.78017708156E+02 0.  0.
          6    2    1    2  501    0  0.35375644794E+02 -0.28135626917E+02 -0.98776746883E+03  0.10036568391E+04  0.17204484412E+03 0.  0.
         24    2    5    5    0    0  0.10843695699E+02 -0.13138005479E+02 -0.22070925431E+03  0.23604551839E+03  0.81943388318E+02 0.  0.
          5    1    5    5  501    0  0.24531949095E+02 -0.14997621438E+02 -0.76705821452E+03  0.76761132069E+03  0.47000000000E+01 0. -1.
        -11    1    6    6    0    0 -0.21766440763E+01  0.26258199586E+02 -0.26190313519E+02  0.37150549756E+02  0.00000000000E+00 0.  1.
         12    1    6    6    0    0  0.13020339776E+02 -0.39396205064E+02 -0.19451894079E+03  0.19889496863E+03  0.00000000000E+00 0. -1.
         -5    1    3    3    0  503 -0.74550339449E+02  0.36930075787E+02 -0.16512500433E+03  0.18495929461E+03  0.47000000000E+01 0.  1.
         13    1    4    4    0    0  0.21043190453E+02 -0.26281234973E+02 -0.51348857929E+02  0.61402152949E+02  0.00000000000E+00 0. -1.
        -14    1    4    4    0    0  0.18131504201E+02  0.17486786103E+02 -0.28825348202E+03  0.28935205033E+03  0.00000000000E+00 0.  1.
<mgrwt>
<rscale>  2 0.17913408E+03</rscale>
<asrwt>0</asrwt>
<pdfrwt beam="1">  1       21 0.36058092E-02 0.17955294E+03</pdfrwt>
<pdfrwt beam="2">  1       21 0.23322042E+00 0.17955294E+03</pdfrwt>
<totfact> 0.39377968E+04</totfact>
</mgrwt>
</event>
<event>
12    1  0.1029207E-001  0.2136520E+03  0.7546771E-02  0.1138834E+00
         21   -1    0    0  503  502  0.00000000000E+00  0.00000000000E+00  0.30038963384E+04  0.30038963384E+04  0.00000000000E+00 0. -1.
         21   -1    0    0  501  503 -0.00000000000E+00 -0.00000000000E+00 -0.21823372410E+02  0.21823372410E+02  0.00000000000E+00 0. -1.
          6    2    1    2  501    0  0.73334151604E+02 -0.10114572835E+03  0.65599918752E+03  0.68991458163E+03  0.17331716520E+03 0.  0.
         24    2    3    3    0    0  0.27137269276E+02 -0.99934450518E+02  0.26087448879E+03  0.29206883679E+03  0.80779828799E+02 0.  0.
         -6    2    1    2    0  502 -0.73334151604E+02  0.10114572835E+03  0.23260737784E+04  0.23358051292E+04  0.17250513760E+03 0.  0.
        -24    2    5    5    0    0 -0.22117631486E+02  0.77112874406E+02  0.63050999091E+03  0.63929124546E+03  0.68664858994E+02 0.  0.
          5    1    3    3  501    0  0.46196882328E+02 -0.12112778345E+01  0.39512469874E+03  0.39784574483E+03  0.47000000000E+01 0. -1.
        -13    1    4    4    0    0  0.17541521672E+02 -0.64462266486E+01  0.48019381389E+01  0.19295528769E+02  0.00000000000E+00 0.  1.
         14    1    4    4    0    0  0.95957476040E+01 -0.93488223869E+02  0.25607255065E+03  0.27277330802E+03  0.00000000000E+00 0. -1.
         -5    1    5    5    0  502 -0.51216520118E+02  0.24032853947E+02  0.16955637875E+04  0.16965138837E+04  0.47000000000E+01 0.  1.
         13    1    6    6    0    0 -0.45674794167E+02  0.63946840537E+02  0.46315337087E+03  0.46977274313E+03  0.00000000000E+00 0. -1.
        -14    1    6    6    0    0  0.23557162681E+02  0.13166033869E+02  0.16735662004E+03  0.16951850233E+03  0.00000000000E+00 0.  1.
<mgrwt>
<rscale>  2 0.21348730E+03</rscale>
<asrwt>0</asrwt>
<pdfrwt beam="1">  1       21 0.46213757E+00 0.21365204E+03</pdfrwt>
<pdfrwt beam="2">  1       21 0.33574443E-02 0.21365204E+03</pdfrwt>
<totfact> 0.17577313E+03</totfact>
</mgrwt>
</event>
<event>
12    1  0.1029207E-001  0.1752713E+03  0.7546771E-02  0.1172861E+00
         21   -1    0    0  501  502  0.00000000000E+00  0.00000000000E+00  0.11754823186E+03  0.11754823186E+03  0.00000000000E+00 0.  1.
         21   -1    0    0  502  503 -0.00000000000E+00 -0.00000000000E+00 -0.25915327298E+03  0.25915327298E+03  0.00000000000E+00 0.  1.
         -6    2    1    2    0  503 -0.30331247244E+02  0.32246313928E+01 -0.66099601925E+02  0.18732105742E+03  0.17259675076E+03 0.  0.
        -24    2    3    3    0    0 -0.46560772247E+02  0.40226571386E+02  0.15033168910E+02  0.96562269701E+02  0.72884794056E+02 0.  0.
          6    2    1    2  501    0  0.30331247244E+02 -0.32246313928E+01 -0.75505439199E+02  0.18938044742E+03  0.17097806792E+03 0.  0.
         24    2    5    5    0    0  0.46483590909E+02 -0.48197671321E+01  0.17107913139E+02  0.95238184353E+02  0.81201457425E+02 0.  0.
          5    1    5    5  501    0 -0.16152343664E+02  0.15951357393E+01 -0.92613352338E+02  0.94142263066E+02  0.47000000000E+01 0. -1.
        -11    1    6    6    0    0  0.48089496083E+01 -0.98531401002E+01  0.44026488246E+02  0.45371158608E+02  0.00000000000E+00 0.  1.
         12    1    6    6    0    0  0.41674641300E+02  0.50333729681E+01 -0.26918575107E+02  0.49867025746E+02  0.00000000000E+00 0. -1.
         -5    1    3    3    0  503  0.16229525003E+02 -0.37001939993E+02 -0.81132770835E+02  0.90758787720E+02  0.47000000000E+01 0.  1.
         13    1    4    4    0    0 -0.62015678514E+01  0.74409967889E+01  0.38365673605E+02  0.39569594238E+02  0.00000000000E+00 0. -1.
        -14    1    4    4    0    0 -0.40359204396E+02  0.32785574597E+02 -0.23332504694E+02  0.56992675463E+02  0.00000000000E+00 0.  1.
<mgrwt>
<rscale>  2 0.17487147E+03</rscale>
<asrwt>0</asrwt>
<pdfrwt beam="1">  1       21 0.18084343E-01 0.17527128E+03</pdfrwt>
<pdfrwt beam="2">  1       21 0.39869734E-01 0.17527128E+03</pdfrwt>
<totfact> 0.16967475E+05</totfact>
</mgrwt>
</event>
<event>
12    1  0.1029207E-001  0.1790313E+03  0.7546771E-02  0.1168851E+00
         21   -1    0    0  501  502  0.00000000000E+00  0.00000000000E+00  0.14718394992E+03  0.14718394992E+03  0.00000000000E+00 0. -1.
         21   -1    0    0  502  503 -0.00000000000E+00 -0.00000000000E+00 -0.23175933689E+03  0.23175933689E+03  0.00000000000E+00 0. -1.
         -6    2    1    2    0  503 -0.22965936455E+02  0.45518893639E+02 -0.89770847563E+02  0.20027730580E+03  0.17161815239E+03 0.  0.
        -24    2    3    3    0    0  0.73190528855E+01  0.78599842703E+02 -0.10246852913E+03  0.15342807008E+03  0.82515873737E+02 0.  0.
          6    2    1    2  501    0  0.22965936455E+02 -0.45518893639E+02  0.51954605962E+01  0.17866598101E+03  0.17115821933E+03 0.  0.
         24    2    5    5    0    0  0.67249911766E+01 -0.11274403140E+02 -0.61835630868E+02  0.10151865017E+03  0.79435844651E+02 0.  0.
          5    1    5    5  501    0  0.16240945278E+02 -0.34244490500E+02  0.67031091464E+02  0.77147330841E+02  0.47000000000E+01 0. -1.
        -11    1    6    6    0    0  0.21788960122E+02  0.29640342796E+02 -0.25475312952E+02  0.44747070008E+02  0.00000000000E+00 0.  1.
         12    1    6    6    0    0 -0.15063968946E+02 -0.40914745936E+02 -0.36360317916E+02  0.56771580164E+02  0.00000000000E+00 0. -1.
         -5    1    3    3    0  503 -0.30284989340E+02 -0.33080949064E+02  0.12697681565E+02  0.46849235718E+02  0.47000000000E+01 0.  1.
         11    1    4    4    0    0  0.29424645147E+02  0.79663670306E+02 -0.55345399047E+02  0.10136677614E+03  0.00000000000E+00 0. -1.
        -12    1    4    4    0    0 -0.22105592261E+02 -0.10638276034E+01 -0.47123130080E+02  0.52061293942E+02  0.00000000000E+00 0.  1.
<mgrwt>
<rscale>  2 0.17892095E+03</rscale>
<asrwt>0</asrwt>
<pdfrwt beam="1">  1       21 0.22643685E-01 0.17903127E+03</pdfrwt>
<pdfrwt beam="2">  1       21 0.35655283E-01 0.17903127E+03</pdfrwt>
<totfact> 0.13927798E+05</totfact>
</mgrwt>
</event>
<event>
12    1  0.1029207E-001  0.1916563E+03  0.7546771E-02  0.1160317E+00
         21   -1    0    0  501  502  0.00000000000E+00  0.00000000000E+00  0.10743489124E+04  0.10743489124E+04  0.00000000000E+00 0. -1.
         21   -1    0    0  502  503 -0.00000000000E+00 -0.00000000000E+00 -0.88495413459E+02  0.88495413459E+02  0.00000000000E+00 0. -1.
         -6    2    1    2    0  503  0.23295431925E+02  0.14557462816E+02  0.34032914698E+02  0.19465450800E+03  0.18967746658E+03 0.  0.
        -24    2    3    3    0    0 -0.32649480757E+02 -0.20333489864E+02  0.75189344681E+02  0.11678825367E+03  0.80663617809E+02 0.  0.
          6    2    1    2  501    0 -0.23295431925E+02 -0.14557462816E+02  0.95182058428E+03  0.96818981790E+03  0.17514137704E+03 0.  0.
         24    2    5    5    0    0 -0.67060204108E+02  0.34721324369E+02  0.57112081052E+03  0.58179861473E+03  0.81289645984E+02 0.  0.
          5    1    5    5  501    0  0.43764772183E+02 -0.49278787185E+02  0.38069977376E+03  0.38639120317E+03  0.47000000000E+01 0. -1.
        -11    1    6    6    0    0 -0.51725082448E+02  0.34277958851E+02  0.18034437352E+03  0.19072114638E+03  0.00000000000E+00 0.  1.
         12    1    6    6    0    0 -0.15335121660E+02  0.44336551879E+00  0.39077643700E+03  0.39107746835E+03  0.00000000000E+00 0. -1.
         -5    1    3    3    0  503  0.55944912682E+02  0.34890952680E+02 -0.41156429984E+02  0.77866254327E+02  0.47000000000E+01 0.  1.
         13    1    4    4    0    0  0.12207912608E+02 -0.32326600073E+02  0.86009902002E+01  0.35609257714E+02  0.00000000000E+00 0. -1.
        -14    1    4    4    0    0 -0.44857393365E+02  0.11993110209E+02  0.66588354481E+02  0.81178995956E+02  0.00000000000E+00 0.  1.
<mgrwt>
<rscale>  2 0.18795714E+03</rscale>
<asrwt>0</asrwt>
<pdfrwt beam="1">  1       21 0.16528444E+00 0.19165630E+03</pdfrwt>
<pdfrwt beam="2">  1       21 0.13614680E-01 0.19165630E+03</pdfrwt>
<totfact> 0.10786818E+04</totfact>
</mgrwt>
</event>
<event>
12    1  0.1029207E-001  0.2063401E+03  0.7546771E-02  0.1144646E+00
         21   -1    0    0  501  502  0.00000000000E+00  0.00000000000E+00  0.14843326533E+04  0.14843326533E+04  0.00000000000E+00 0.  1.
         21   -1    0    0  502  503 -0.00000000000E+00 -0.00000000000E+00 -0.28903243817E+02  0.28903243817E+02  0.00000000000E+00 0.  1.
         -6    2    1    2    0  503 -0.62339719861E+02  0.92556729372E+02  0.80622446406E+03  0.83202864925E+03  0.17268699399E+03 0.  0.
        -24    2    3    3    0    0 -0.79065514459E+01  0.10670728529E+03  0.69377728016E+03  0.70621264381E+03  0.77203792166E+02 0.  0.
          6    2    1    2  501    0  0.62339719861E+02 -0.92556729372E+02  0.64920494545E+03  0.68120724790E+03  0.17356055014E+03 0.  0.
         24    2    5    5    0    0  0.63762619577E+02 -0.30211380051E+02  0.19618737045E+03  0.22389337266E+03  0.81611021661E+02 0.  0.
          5    1    5    5  501    0 -0.14228997159E+01 -0.62345349322E+02  0.45301757500E+03  0.45731387523E+03  0.47000000000E+01 0. -1.
        -11    1    6    6    0    0  0.41689984616E+02 -0.58284125641E+02  0.12034958651E+03  0.14006825869E+03  0.00000000000E+00 0.  1.
         12    1    6    6    0    0  0.22072634961E+02  0.28072745590E+02  0.75837783947E+02  0.83825113976E+02  0.00000000000E+00 0. -1.
         -5    1    3    3    0  503 -0.54433168415E+02 -0.14150555918E+02  0.11244718390E+03  0.12581600544E+03  0.47000000000E+01 0.  1.
         11    1    4    4    0    0  0.83626583558E+01  0.10026040494E+02  0.13043257660E+02  0.18454866923E+02  0.00000000000E+00 0. -1.
        -12    1    4    4    0    0 -0.16269209802E+02  0.96681244797E+02  0.68073402250E+03  0.68775777689E+03  0.00000000000E+00 0.  1.
<mgrwt>
<rscale>  2 0.20615633E+03</rscale>
<asrwt>0</asrwt>
<pdfrwt beam="1">  1       21 0.22835881E+00 0.20634014E+03</pdfrwt>
<pdfrwt beam="2">  1       21 0.44466540E-02 0.20634014E+03</pdfrwt>
<totfact> 0.29038452E+04</totfact>
</mgrwt>
</event>
<event>
12    1  0.1029207E-001  0.2019499E+03  0.7546771E-02  0.1148280E+00
         21   -1    0    0  503  502  0.00000000000E+00  0.00000000000E+00  0.29818216245E+03  0.29818216245E+03  0.00000000000E+00 0.  1.
         21   -1    0    0  501  503 -0.00000000000E+00 -0.00000000000E+00 -0.28064927589E+03  0.28064927589E+03  0.00000000000E+00 0.  1.
          6    2    1    2  501    0  0.78204913402E+02  0.65641543139E+02 -0.19887232674E+03  0.28283317937E+03  0.17326160665E+03 0.  0.
         24    2    3    3    0    0  0.19694777432E+02  0.98014018122E+02 -0.10184069327E+03  0.16489827765E+03  0.82615271953E+02 0.  0.
         -6    2    1    2    0  502 -0.78204913402E+02 -0.65641543139E+02  0.21640521331E+03  0.29599825897E+03  0.17423814825E+03 0.  0.
        -24    2    5    5    0    0 -0.69292295623E+01 -0.93109262893E+02  0.11242475265E+03  0.16689084271E+03  0.80597018024E+02 0.  0.
          5    1    3    3  501    0  0.58510135971E+02 -0.32372474984E+02 -0.97031633470E+02  0.11793490171E+03  0.47000000000E+01 0. -1.
        -11    1    4    4    0    0  0.29601448828E+02  0.90299276868E+01 -0.23271895665E+01  0.31035482565E+02  0.00000000000E+00 0.  1.
         12    1    4    4    0    0 -0.99066713963E+01  0.88984090435E+02 -0.99513503708E+02  0.13386279509E+03  0.00000000000E+00 0. -1.
         -5    1    5    5    0  502 -0.71275683840E+02  0.27467719754E+02  0.10398046066E+03  0.12910741626E+03  0.47000000000E+01 0.  1.
         13    1    6    6    0    0  0.15412250920E+01 -0.44519152414E+02  0.10864587336E+03  0.11742340527E+03  0.00000000000E+00 0. -1.
        -14    1    6    6    0    0 -0.84704546543E+01 -0.48590110479E+02  0.37788792852E+01  0.49467437442E+02  0.00000000000E+00 0.  1.
<mgrwt>
<rscale>  2 0.20173906E+03</rscale>
<asrwt>0</asrwt>
<pdfrwt beam="1">  1       21 0.45874179E-01 0.20194988E+03</pdfrwt>
<pdfrwt beam="2">  1       21 0.43176812E-01 0.20194988E+03</pdfrwt>
<totfact> 0.23364488E+04</totfact>
</mgrwt>
</event>
<event>
12    1  0.1029207E-001  0.2254599E+03  0.7546771E-02  0.1129897E+00
         21   -1    0    0  501  502  0.00000000000E+00  0.00000000000E+00  0.68531650012E+02  0.68531650012E+02  0.00000000000E+00 0. -1.
         21   -1    0    0  502  503 -0.00000000000E+00 -0.00000000000E+00 -0.89856385046E+03  0.89856385046E+03  0.00000000000E+00 0.  1.
         -6    2    1    2    0  503  0.11360503824E+03  0.89916832020E+02 -0.21284939934E+03  0.31005971319E+03  0.17274552831E+03 0.  0.
        -24    2    3    3    0    0  0.57101754937E+02  0.38952787449E+02 -0.20840985195E+03  0.23369378857E+03  0.80001189722E+02 0.  0.
          6    2    1    2  501    0 -0.11360503824E+03 -0.89916832020E+02 -0.61718280111E+03  0.65703578728E+03  0.17259859323E+03 0.  0.
         24    2    5    5    0    0 -0.10562981892E+03 -0.57083608035E+02 -0.60271018880E+03  0.61997946221E+03  0.81845982976E+02 0.  0.
          5    1    5    5  501    0 -0.79752193198E+01 -0.32833223986E+02 -0.14472612312E+02  0.37056325069E+02  0.47000000000E+01 0. -1.
        -11    1    6    6    0    0 -0.89401979140E+02 -0.24816990068E+02 -0.27382746138E+03  0.28911948304E+03  0.00000000000E+00 0.  1.
         12    1    6    6    0    0 -0.16227839780E+02 -0.32266617967E+02 -0.32888272742E+03  0.33085997917E+03  0.00000000000E+00 0. -1.
         -5    1    3    3    0  503  0.56503283303E+02  0.50964044572E+02 -0.44395473866E+01  0.76365924627E+02  0.47000000000E+01 0.  1.
         13    1    4    4    0    0  0.26659750391E+02  0.43235854159E+02 -0.46413148998E+02  0.68805971947E+02  0.00000000000E+00 0. -1.
        -14    1    4    4    0    0  0.30442004546E+02 -0.42830667103E+01 -0.16199670295E+03  0.16488781662E+03  0.00000000000E+00 0.  1.
<mgrwt>
<rscale>  2 0.22543174E+03</rscale>
<asrwt>0</asrwt>
<pdfrwt beam="1">  1       21 0.10543330E-01 0.22545988E+03</pdfrwt>
<pdfrwt beam="2">  1       21 0.13824060E+00 0.22545988E+03</pdfrwt>
<totfact> 0.26786231E+04</totfact>
</mgrwt>
</event>
<event>
12    1  0.1029207E-001  0.2139992E+03  0.7546771E-02  0.1139443E+00
         21   -1    0    0  503  502  0.00000000000E+00  0.00000000000E+00  0.72209555099E+03  0.72209555099E+03  0.00000000000E+00 0. -1.
         21   -1    0    0  501  503 -0.00000000000E+00 -0.00000000000E+00 -0.66338058782E+02  0.66338058782E+02  0.00000000000E+00 0. -1.
          6    2    1    2  501    0 -0.37428993658E+01 -0.11799277249E+03  0.43347120034E+03  0.48341796410E+03  0.17849185652E+03 0.  0.
         24    2    3    3    0    0  0.17637479293E+02  0.93299117239E+01  0.11104969311E+03  0.13607677042E+03  0.76070527670E+02 0.  0.
         -6    2    1    2    0  502  0.37428993658E+01  0.11799277249E+03  0.22228629188E+03  0.30501564567E+03  0.17229928871E+03 0.  0.
        -24    2    5    5    0    0  0.40700568413E+02  0.13000515679E+03  0.21154597452E+03  0.26442486969E+03  0.81307658397E+02 0.  0.
          5    1    3    3  501    0 -0.21380378659E+02 -0.12732268422E+03  0.32242150722E+03  0.34734119368E+03  0.47000000000E+01 0. -1.
        -13    1    4    4    0    0 -0.16557106068E+02  0.60452790075E+01  0.97611028044E+02  0.99189696821E+02  0.00000000000E+00 0.  1.
         14    1    4    4    0    0  0.34194585361E+02  0.32846327164E+01  0.13438665067E+02  0.36887073601E+02  0.00000000000E+00 0. -1.
         -5    1    5    5    0  502 -0.36957669047E+02 -0.12012384295E+02  0.10740317356E+02  0.40590775981E+02  0.47000000000E+01 0.  1.
         13    1    6    6    0    0  0.53668370533E+01  0.65735314092E+02  0.16465748092E+03  0.17737536605E+03  0.00000000000E+00 0. -1.
        -14    1    6    6    0    0  0.35333731359E+02  0.64269842696E+02  0.46888493605E+02  0.87049503643E+02  0.00000000000E+00 0.  1.
<mgrwt>
<rscale>  2 0.21270316E+03</rscale>
<asrwt>0</asrwt>
<pdfrwt beam="1">  1       21 0.11109162E+00 0.21399917E+03</pdfrwt>
<pdfrwt beam="2">  1       21 0.10205856E-01 0.21399917E+03</pdfrwt>
<totfact> 0.49366893E+04</totfact>
</mgrwt>
</event>
<event>
12    1  0.1029207E-001  0.1853790E+03  0.7546771E-02  0.1162736E+00
         21   -1    0    0  503  502  0.00000000000E+00  0.00000000000E+00  0.49650456287E+03  0.49650456287E+03  0.00000000000E+00 0. -1.
         21   -1    0    0  501  503 -0.00000000000E+00 -0.00000000000E+00 -0.77993274485E+02  0.77993274485E+02  0.00000000000E+00 0. -1.
          6    2    1    2  501    0  0.22994978032E+02 -0.62373129994E+02  0.11244906907E+03  0.21667183271E+03  0.17286617250E+03 0.  0.
         24    2    3    3    0    0  0.26131422930E+02 -0.34440382327E+02  0.14704209559E+03  0.17185171264E+03  0.77734432929E+02 0.  0.
         -6    2    1    2    0  502 -0.22994978032E+02  0.62373129994E+02  0.30606221931E+03  0.35782600464E+03  0.17304967826E+03 0.  0.
        -24    2    5    5    0    0 -0.35663624172E+02  0.10433644768E+02  0.28820489995E+03  0.30126472305E+03  0.79483419438E+02 0.  0.
          5    1    3    3  501    0 -0.31364448974E+01 -0.27932747667E+02 -0.34593026523E+02  0.44820120067E+02  0.47000000000E+01 0. -1.
        -13    1    4    4    0    0 -0.14278320595E+02 -0.51150487998E+01  0.10639107037E+03  0.10746671120E+03  0.00000000000E+00 0.  1.
         14    1    4    4    0    0  0.40409743525E+02 -0.29325333527E+02  0.40651025223E+02  0.64385001436E+02  0.00000000000E+00 0. -1.
         -5    1    5    5    0  502  0.12668646140E+02  0.51939485226E+02  0.17857319361E+02  0.56561281592E+02  0.47000000000E+01 0.  1.
         11    1    6    6    0    0  0.18850081195E+02  0.14573857900E+02  0.35781715485E+02  0.42988999269E+02  0.00000000000E+00 0. -1.
        -12    1    6    6    0    0 -0.54513705367E+02 -0.41402131329E+01  0.25242318447E+03  0.25827572378E+03  0.00000000000E+00 0.  1.
<mgrwt>
<rscale>  2 0.18533615E+03</rscale>
<asrwt>0</asrwt>
<pdfrwt beam="1">  1       21 0.76385316E-01 0.18537898E+03</pdfrwt>
<pdfrwt beam="2">  1       21 0.11998966E-01 0.18537898E+03</pdfrwt>
<totfact> 0.89834955E+04</totfact>
</mgrwt>
</event>
<event>
12    1  0.1029207E-001  0.2365200E+03  0.7546771E-02  0.1122422E+00
         21   -1    0    0  501  502  0.00000000000E+00  0.00000000000E+00  0.33538322663E+02  0.33538322663E+02  0.00000000000E+00 0.  1.
         21   -1    0    0  502  503 -0.00000000000E+00 -0.00000000000E+00 -0.17823624060E+04  0.17823624060E+04  0.00000000000E+00 0.  1.
         -6    2    1    2    0  503 -0.12087370309E+03  0.10296242022E+03 -0.11190268398E+04  0.11437494359E+04  0.17529972007E+03 0.  0.
        -24    2    3    3    0    0 -0.13532505431E+03  0.11019759855E+03 -0.11057354539E+04  0.11223032172E+04  0.80356930252E+02 0.  0.
          6    2    1    2  501    0  0.12087370309E+03 -0.10296242022E+03 -0.62979724362E+03  0.67215129285E+03  0.17300601239E+03 0.  0.
         24    2    5    5    0    0  0.11170098702E+03 -0.13722245408E+03 -0.56917900724E+03  0.60176273396E+03  0.82743781023E+02 0.  0.
          5    1    5    5  501    0  0.91727160680E+01  0.34260033853E+02 -0.60618236388E+02  0.70388558889E+02  0.47000000000E+01 0. -1.
        -11    1    6    6    0    0  0.78163234075E+02 -0.13805761947E+03 -0.42271483304E+03  0.45150551217E+03  0.00000000000E+00 0.  1.
         12    1    6    6    0    0  0.33537752945E+02  0.83516539574E+00 -0.14646417420E+03  0.15025722178E+03  0.00000000000E+00 0. -1.
         -5    1    3    3    0  503  0.14451351218E+02 -0.72351783221E+01 -0.13291385844E+02  0.21446218665E+02  0.47000000000E+01 0.  1.
         13    1    4    4    0    0 -0.78971463250E+02  0.16385883839E+02 -0.39030331414E+03  0.39854945267E+03  0.00000000000E+00 0. -1.
        -14    1    4    4    0    0 -0.56353591056E+02  0.93811714707E+02 -0.71543213977E+03  0.72375376452E+03  0.00000000000E+00 0.  1.
<mgrwt>
<rscale>  2 0.23609510E+03</rscale>
<asrwt>0</asrwt>
<pdfrwt beam="1">  1       21 0.51597397E-02 0.23651999E+03</pdfrwt>
<pdfrwt beam="2">  1       21 0.27420972E+00 0.23651999E+03</pdfrwt>
<totfact> 0.11773739E+04</totfact>
</mgrwt>
</event>
<event>
12    1  0.1029207E-001  0.1753309E+03  0.7546771E-02  0.1173176E+00
         21   -1    0    0  501  502  0.00000000000E+00  0.00000000000E+00  0.56202970796E+02  0.56202970796E+02  0.00000000000E+00 0.  1.
         21   -1    0    0  502  503 -0.00000000000E+00 -0.00000000000E+00 -0.11132608229E+04  0.11132608229E+04  0.00000000000E+00 0.  1.
         -6    2    1    2    0  503 -0.19724067099E+02  0.28370838152E+02 -0.94680757215E+03  0.96235021324E+03  0.16875843967E+03 0.  0.
        -24    2    3    3    0    0 -0.62176207459E+02  0.29423780994E+02 -0.84046155981E+03  0.84774280837E+03  0.86951687539E+02 0.  0.
          6    2    1    2  501    0  0.19724067099E+02 -0.28370838152E+02 -0.11025027999E+03  0.20711358050E+03  0.17189231428E+03 0.  0.
         24    2    5    5    0    0  0.69164443098E+02 -0.28803709594E+02 -0.11239397487E+03  0.15740217754E+03  0.80806348954E+02 0.  0.
          5    1    5    5  501    0 -0.49440375999E+02  0.43287144150E+00  0.21436948732E+01  0.49711402961E+02  0.47000000000E+01 0. -1.
        -11    1    6    6    0    0  0.22610011094E+02  0.14320586452E+02 -0.83482616249E+02  0.87667776370E+02  0.00000000000E+00 0.  1.
         12    1    6    6    0    0  0.46554432004E+02 -0.43124296046E+02 -0.28911358617E+02  0.69734401165E+02  0.00000000000E+00 0. -1.
         -5    1    3    3    0  503  0.42452140360E+02 -0.10529428413E+01 -0.10634601233E+03  0.11460740486E+03  0.47000000000E+01 0.  1.
         11    1    4    4    0    0  0.17455345794E+02  0.11895947243E+02 -0.73984078315E+02  0.76940538741E+02  0.00000000000E+00 0. -1.
        -12    1    4    4    0    0 -0.79631553253E+02  0.17527833751E+02 -0.76647748150E+03  0.77080226963E+03  0.00000000000E+00 0.  1.
<mgrwt>
<rscale>  2 0.17455794E+03</rscale>
<asrwt>0</asrwt>
<pdfrwt beam="1">  1       21 0.86466116E-02 0.17533086E+03</pdfrwt>
<pdfrwt beam="2">  1       21 0.17127088E+00 0.17533086E+03</pdfrwt>
<totfact> 0.22174747E+04</totfact>
</mgrwt>
</event>
<event>
12    1  0.1029207E-001  0.2050808E+03  0.7546771E-02  0.1145835E+00
         21   -1    0    0  503  502  0.00000000000E+00  0.00000000000E+00  0.30161083421E+03  0.30161083421E+03  0.00000000000E+00 0.  1.
         21   -1    0    0  501  503 -0.00000000000E+00 -0.00000000000E+00 -0.17460215582E+03  0.17460215582E+03  0.00000000000E+00 0.  1.
          6    2    1    2  501    0  0.10220964145E+03  0.36937376645E+02 -0.44714849417E+02  0.20989886928E+03  0.17391646548E+03 0.  0.
         24    2    3    3    0    0  0.56417793135E+02  0.47236389536E+02 -0.93358235808E+02  0.14214023825E+03  0.77934865488E+02 0.  0.
         -6    2    1    2    0  502 -0.10220964145E+03 -0.36937376645E+02  0.17172352781E+03  0.26631412075E+03  0.17211350995E+03 0.  0.
        -24    2    5    5    0    0 -0.39098446306E+02  0.37400780883E+02  0.12459523162E+03  0.15790586037E+03  0.80515725674E+02 0.  0.
          5    1    3    3  501    0  0.45791848318E+02 -0.10299012890E+02  0.48643386391E+02  0.67758631026E+02  0.47000000000E+01 0. -1.
        -11    1    4    4    0    0  0.60991799722E+02  0.35355483647E+02 -0.28494782439E+02  0.76039216747E+02  0.00000000000E+00 0.  1.
         12    1    4    4    0    0 -0.45740065874E+01  0.11880905888E+02 -0.64863453370E+02  0.66101021505E+02  0.00000000000E+00 0. -1.
         -5    1    5    5    0  502 -0.63111195147E+02 -0.74338157528E+02  0.47128296186E+02  0.10840826038E+03  0.47000000000E+01 0.  1.
         11    1    6    6    0    0 -0.15375016076E+01  0.19893090186E+02 -0.60468513131E+01  0.20848581706E+02  0.00000000000E+00 0. -1.
        -12    1    6    6    0    0 -0.37560944698E+02  0.17507690697E+02  0.13064208293E+03  0.13705727866E+03  0.00000000000E+00 0.  1.
<mgrwt>
<rscale>  2 0.20469800E+03</rscale>
<asrwt>0</asrwt>
<pdfrwt beam="1">  1       21 0.46401667E-01 0.20508076E+03</pdfrwt>
<pdfrwt beam="2">  1       21 0.26861870E-01 0.20508076E+03</pdfrwt>
<totfact> 0.58377871E+04</totfact>
</mgrwt>
</event>
<event>
12    1  0.1029207E-001  0.3393647E+03  0.7546771E-02  0.1067083E+00
         21   -1    0    0  503  502  0.00000000000E+00  0.00000000000E+00  0.17105009161E+04  0.17105009161E+04  0.00000000000E+00 0.  1.
         21   -1    0    0  501  503 -0.00000000000E+00 -0.00000000000E+00 -0.51325796999E+03  0.51325796999E+03  0.00000000000E+00 0. -1.
          6    2    1    2  501    0  0.79409897540E+02 -0.28097944114E+03 -0.43778331545E+03  0.55391571118E+03  0.17295376734E+03 0.  0.
         24    2    3    3    0    0  0.11237423683E+03 -0.25254189242E+03 -0.32816178398E+03  0.43587202433E+03  0.76739094339E+02 0.  0.
         -6    2    1    2    0  502 -0.79409897540E+02  0.28097944114E+03  0.16350262616E+04  0.16698431749E+04  0.17265565329E+03 0.  0.
        -24    2    5    5    0    0 -0.11015698185E+03  0.25140603376E+03  0.12456324267E+04  0.12780911892E+04  0.81101117085E+02 0.  0.
          5    1    3    3  501    0 -0.32964339295E+02 -0.28437548718E+02 -0.10962153148E+03  0.11804368685E+03  0.47000000000E+01 0. -1.
        -13    1    4    4    0    0  0.10375212078E+03 -0.15004952515E+03 -0.18733336215E+03  0.26148260198E+03  0.00000000000E+00 0.  1.
         14    1    4    4    0    0  0.86221160582E+01 -0.10249236728E+03 -0.14082842182E+03  0.17438942235E+03  0.00000000000E+00 0. -1.
         -5    1    5    5    0  502  0.30747084311E+02  0.29573407377E+02  0.38939383489E+03  0.39175198566E+03  0.47000000000E+01 0.  1.
         11    1    6    6    0    0 -0.69988690552E+02  0.15804645275E+03  0.59607772609E+03  0.62063334875E+03  0.00000000000E+00 0. -1.
        -12    1    6    6    0    0 -0.40168291299E+02  0.93359581016E+02  0.64955470057E+03  0.65745784049E+03  0.00000000000E+00 0.  1.
<mgrwt>
<rscale>  2 0.33932671E+03</rscale>
<asrwt>0</asrwt>
<pdfrwt beam="1">  1       21 0.26315398E+00 0.33936468E+03</pdfrwt>
<pdfrwt beam="2">  1       21 0.78962765E-01 0.33936468E+03</pdfrwt>
<totfact> 0.66324282E+01</totfact>
</mgrwt>
</event>
<event>
12    1  0.1029207E-001  0.1827175E+03  0.7546771E-02  0.1165488E+00
         21   -1    0    0  501  502  0.00000000000E+00  0.00000000000E+00  0.48919493044E+03  0.48919493044E+03  0.00000000000E+00 0. -1.
         21   -1    0    0  502  503 -0.00000000000E+00 -0.00000000000E+00 -0.21590340157E+03  0.21590340157E+03  0.00000000000E+00 0. -1.
         -6    2    1    2    0  503 -0.50426485909E+02 -0.21983210180E+02 -0.15549746763E+03  0.23900210859E+03  0.17296373452E+03 0.  0.
        -24    2    3    3    0    0 -0.49495689610E+02  0.48998613330E+02 -0.11178323933E+03  0.15550175286E+03  0.82671731266E+02 0.  0.
          6    2    1    2  501    0  0.50426485909E+02  0.21983210180E+02  0.42878899650E+03  0.46609622343E+03  0.17424004695E+03 0.  0.
         24    2    5    5    0    0  0.57862104871E+02 -0.81628580549E+01  0.13600938064E+03  0.17163728347E+03  0.86868579024E+02 0.  0.
          5    1    5    5  501    0 -0.74356189623E+01  0.30146068235E+02  0.29277961586E+03  0.29445893996E+03  0.47000000000E+01 0. -1.
        -11    1    6    6    0    0  0.10549114484E+02  0.72498918024E+01 -0.10722347088E+02  0.16697708664E+02  0.00000000000E+00 0.  1.
         12    1    6    6    0    0  0.47312990388E+02 -0.15412749857E+02  0.14673172773E+03  0.15493957480E+03  0.00000000000E+00 0. -1.
         -5    1    3    3    0  503 -0.93079629918E+00 -0.70981823510E+02 -0.43714228304E+02  0.83500355728E+02  0.47000000000E+01 0.  1.
         13    1    4    4    0    0 -0.10198803378E+02 -0.68765582029E+01 -0.78602977703E+02  0.79559604994E+02  0.00000000000E+00 0. -1.
        -14    1    4    4    0    0 -0.39296886232E+02  0.55875171532E+02 -0.33180261624E+02  0.75942147868E+02  0.00000000000E+00 0.  1.
<mgrwt>
<rscale>  2 0.18241257E+03</rscale>
<asrwt>0</asrwt>
<pdfrwt beam="1">  1       21 0.75260758E-01 0.18271750E+03</pdfrwt>
<pdfrwt beam="2">  1       21 0.33215908E-01 0.18271750E+03</pdfrwt>
<totfact> 0.13858307E+04</totfact>
</mgrwt>
</event>
<event>
12    1  0.1029207E-001  0.1807176E+03  0.7546771E-02  0.1167153E+00
         21   -1    0    0  503  502  0.00000000000E+00  0.00000000000E+00  0.26475549568E+03  0.26475549568E+03  0.00000000000E+00 0.  1.
         21   -1    0    0  501  503 -0.00000000000E+00 -0.00000000000E+00 -0.14267472243E+03  0.14267472243E+03  0.00000000000E+00 0. -1.
          6    2    1    2  501    0 -0.20562083104E+02  0.46531822631E+02 -0.14183541516E+02  0.18109681355E+03  0.17322492099E+03 0.  0.
         24    2    3    3    0    0  0.39094314623E+02 -0.11319792500E+02  0.18040751208E+02  0.91843297072E+02  0.80331932473E+02 0.  0.
         -6    2    1    2    0  502  0.20562083104E+02 -0.46531822631E+02  0.13626431477E+03  0.22633340456E+03  0.17340944830E+03 0.  0.
        -24    2    5    5    0    0  0.64536588776E+02 -0.68812996754E+02  0.62748455306E+02  0.13769436428E+03  0.78244293704E+02 0.  0.
          5    1    3    3  501    0 -0.59656397726E+02  0.57851615131E+02 -0.32224292724E+02  0.89253516483E+02  0.47000000000E+01 0. -1.
        -13    1    4    4    0    0 -0.25079354831E+02 -0.14639555602E+01  0.45636950568E+01  0.25533204209E+02  0.00000000000E+00 0.  1.
         14    1    4    4    0    0  0.64173669454E+02 -0.98558369394E+01  0.13477056151E+02  0.66310092862E+02  0.00000000000E+00 0. -1.
         -5    1    5    5    0  502 -0.43974505673E+02  0.22281174123E+02  0.73515859463E+02  0.88639040282E+02  0.47000000000E+01 0.  1.
         11    1    6    6    0    0 -0.91959162092E+01 -0.37342068570E+02  0.37323166894E+02  0.53591172286E+02  0.00000000000E+00 0. -1.
        -12    1    6    6    0    0  0.73732504986E+02 -0.31470928184E+02  0.25425288412E+02  0.84103191991E+02  0.00000000000E+00 0.  1.
<mgrwt>
<rscale>  2 0.18067331E+03</rscale>
<asrwt>0</asrwt>
<pdfrwt beam="1">  1       21 0.40731615E-01 0.18071759E+03</pdfrwt>
<pdfrwt beam="2">  1       21 0.21949957E-01 0.18071759E+03</pdfrwt>
<totfact> 0.11305258E+05</totfact>
</mgrwt>
</event>
<event>
12    1  0.1029207E-001  0.2237030E+03  0.7546771E-02  0.1131319E+00
         21   -1    0    0  503  502  0.00000000000E+00  0.00000000000E+00  0.44840737335E+03  0.44840737335E+03  0.00000000000E+00 0.  1.
         21   -1    0    0  501  503 -0.00000000000E+00 -0.00000000000E+00 -0.15261966896E+03  0.15261966896E+03  0.00000000000E+00 0. -1.
          6    2    1    2  501    0  0.13491584836E+03 -0.43132893828E+02 -0.89782055604E+01  0.22297245110E+03  0.17196910510E+03 0.  0.
         24    2    3    3    0    0  0.11880316406E+03 -0.69541267937E+02  0.39311147882E+02  0.16543140076E+03  0.82897540823E+02 0.  0.
         -6    2    1    2    0  502 -0.13491584836E+03  0.43132893828E+02  0.30476590995E+03  0.37805459121E+03  0.17314814869E+03 0.  0.
        -24    2    5    5    0    0 -0.54070781949E+02 -0.40131676349E+02  0.17393055769E+03  0.20310061780E+03  0.80397892665E+02 0.  0.
          5    1    3    3  501    0  0.16112684301E+02  0.26408374109E+02 -0.48289353443E+02  0.57541050341E+02  0.47000000000E+01 0. -1.
        -13    1    4    4    0    0  0.53919366905E+02 -0.51288303977E+02  0.59270872472E+02  0.95135821729E+02  0.00000000000E+00 0.  1.
         14    1    4    4    0    0  0.64883797151E+02 -0.18252963960E+02 -0.19959724590E+02  0.70295579035E+02  0.00000000000E+00 0. -1.
         -5    1    5    5    0  502 -0.80845066408E+02  0.83264570177E+02  0.13083535226E+03  0.17495397340E+03  0.47000000000E+01 0.  1.
         13    1    6    6    0    0 -0.65798023889E+02 -0.36288091149E+02  0.85555822824E+02  0.11386836403E+03  0.00000000000E+00 0. -1.
        -14    1    6    6    0    0  0.11727241940E+02 -0.38435852003E+01  0.88374734869E+02  0.89232253776E+02  0.00000000000E+00 0.  1.
<mgrwt>
<rscale>  2 0.22347478E+03</rscale>
<asrwt>0</asrwt>
<pdfrwt beam="1">  1       21 0.68985749E-01 0.22370296E+03</pdfrwt>
<pdfrwt beam="2">  1       21 0.23479949E-01 0.22370296E+03</pdfrwt>
<totfact> 0.32126854E+04</totfact>
</mgrwt>
</event>
<event>
12    1  0.1029207E-001  0.1863561E+03  0.7546771E-02  0.1162153E+00
         21   -1    0    0  501  502  0.00000000000E+00  0.00000000000E+00  0.11894251919E+04  0.11894251919E+04  0.00000000000E+00 0.  1.
         21   -1    0    0  502  503 -0.00000000000E+00 -0.00000000000E+00 -0.75990621344E+02  0.75990621344E+02  0.00000000000E+00 0.  1.
         -6    2    1    2    0  503 -0.17831960388E+02 -0.69802787331E+02  0.58038776565E+02  0.19369343155E+03  0.17017120176E+03 0.  0.
        -24    2    3    3    0    0 -0.26819416941E+02 -0.75648737831E+02 -0.17746359205E+02  0.11700949375E+03  0.83272298525E+02 0.  0.
          6    2    1    2  501    0  0.17831960388E+02  0.69802787331E+02  0.10553957940E+04  0.10717223817E+04  0.17186673189E+03 0.  0.
         24    2    5    5    0    0 -0.31587769096E+02  0.83046153045E+02  0.90161277927E+03  0.90958354609E+03  0.80883699688E+02 0.  0.
          5    1    5    5  501    0  0.49419729484E+02 -0.13243365714E+02  0.15378301477E+03  0.16213883566E+03  0.47000000000E+01 0. -1.
        -13    1    6    6    0    0  0.46618310076E+01  0.86066166003E+01  0.46995101664E+03  0.47005293804E+03  0.00000000000E+00 0.  1.
         14    1    6    6    0    0 -0.36249600103E+02  0.74439536445E+02  0.43166176263E+03  0.43953060805E+03  0.00000000000E+00 0. -1.
         -5    1    3    3    0  503  0.89874565534E+01  0.58459504998E+01  0.75785135769E+02  0.76683937798E+02  0.47000000000E+01 0.  1.
         11    1    4    4    0    0 -0.12167152661E+02 -0.14515537499E+02  0.31768716989E+02  0.36986373328E+02  0.00000000000E+00 0. -1.
        -12    1    4    4    0    0 -0.14652264280E+02 -0.61133200332E+02 -0.49515076194E+02  0.80023120420E+02  0.00000000000E+00 0.  1.
<mgrwt>
<rscale>  2 0.18596419E+03</rscale>
<asrwt>0</asrwt>
<pdfrwt beam="1">  1       21 0.18298848E+00 0.18635606E+03</pdfrwt>
<pdfrwt beam="2">  1       21 0.11690866E-01 0.18635606E+03</pdfrwt>
<totfact> 0.10732784E+04</totfact>
</mgrwt>
</event>
<event>
12    1  0.1029207E-001  0.2233920E+03  0.7546771E-02  0.1131905E+00
         21   -1    0    0  503  502  0.00000000000E+00  0.00000000000E+00  0.48908423817E+03  0.48908423817E+03  0.00000000000E+00 0. -1.
         21   -1    0    0  501  503 -0.00000000000E+00 -0.00000000000E+00 -0.11922057561E+03  0.11922057561E+03  0.00000000000E+00 0. -1.
          6    2    1    2  501    0 -0.63792250726E+02 -0.12671409208E+03  0.66169316619E+02  0.23298576791E+03  0.17256325565E+03 0.  0.
         24    2    3    3    0    0 -0.36117891677E+02  0.59856911851E+01  0.29360767893E+02  0.92443739011E+02  0.79645838516E+02 0.  0.
         -6    2    1    2    0  502  0.63792250726E+02  0.12671409208E+03  0.30369434594E+03  0.37531904587E+03  0.16884376818E+03 0.  0.
        -24    2    5    5    0    0  0.13530328189E+01  0.10884137579E+03  0.12446059124E+03  0.18462316562E+03  0.82140116445E+02 0.  0.
          5    1    3    3  501    0 -0.27674359049E+02 -0.13269978326E+03  0.36808548726E+02  0.14054202890E+03  0.47000000000E+01 0. -1.
        -13    1    4    4    0    0 -0.40243343927E+02 -0.20448220758E+02 -0.86498856876E+01  0.45961690406E+02  0.00000000000E+00 0.  1.
         14    1    4    4    0    0  0.41254522501E+01  0.26433911943E+02  0.38010653581E+02  0.46482048605E+02  0.00000000000E+00 0. -1.
         -5    1    5    5    0  502  0.62439217907E+02  0.17872716284E+02  0.17923375471E+03  0.19069588025E+03  0.47000000000E+01 0.  1.
         11    1    6    6    0    0  0.28915994910E+02  0.98854021777E+02  0.11364900540E+03  0.15337649367E+03  0.00000000000E+00 0. -1.
        -12    1    6    6    0    0 -0.27562962091E+02  0.99873540175E+01  0.10811585841E+02  0.31246671949E+02  0.00000000000E+00 0.  1.
<mgrwt>
<rscale>  2 0.22267341E+03</rscale>
<asrwt>0</asrwt>
<pdfrwt beam="1">  1       21 0.75243728E-01 0.22339201E+03</pdfrwt>
<pdfrwt beam="2">  1       21 0.18341627E-01 0.22339201E+03</pdfrwt>
<totfact> 0.42149264E+04</totfact>
</mgrwt>
</event>
<event>
12    1  0.1029207E-001  0.1835243E+03  0.7546771E-02  0.1164582E+00
         21   -1    0    0  503  502  0.00000000000E+00  0.00000000000E+00  0.99436591513E+02  0.99436591513E+02  0.00000000000E+00 0. -1.
         21   -1    0    0  501  503 -0.00000000000E+00 -0.00000000000E+00 -0.43314632306E+03  0.43314632306E+03  0.00000000000E+00 0. -1.
          6    2    1    2  501    0 -0.37850068728E+01 -0.60174182937E+02 -0.29171960529E+03  0.34431624373E+03  0.17267915048E+03 0.  0.
         24    2    3    3    0    0 -0.29863389232E+02  0.20559636600E+02 -0.90255122433E+02  0.12566570177E+03  0.79569848575E+02 0.  0.
         -6    2    1    2    0  502  0.37850068728E+01  0.60174182937E+02 -0.41990126255E+02  0.18826667085E+03  0.17333756108E+03 0.  0.
        -24    2    5    5    0    0  0.62702680928E+02  0.55704368357E+01 -0.34428426141E+02  0.10744507279E+03  0.79977941820E+02 0.  0.
          5    1    3    3  501    0  0.26078382359E+02 -0.80733819538E+02 -0.20146448286E+03  0.21865054196E+03  0.47000000000E+01 0. -1.
        -11    1    4    4    0    0 -0.55371999072E+02  0.23815070417E+02 -0.73132473611E+02  0.94771169438E+02  0.00000000000E+00 0.  1.
         12    1    4    4    0    0  0.25508609840E+02 -0.32554338167E+01 -0.17122648822E+02  0.30894532331E+02  0.00000000000E+00 0. -1.
         -5    1    5    5    0  502 -0.58917674055E+02  0.54603746102E+02 -0.75617001136E+01  0.80821598060E+02  0.47000000000E+01 0.  1.
         11    1    6    6    0    0 -0.77608813970E+01  0.15245909310E+02 -0.31991689306E+02  0.36278605477E+02  0.00000000000E+00 0. -1.
        -12    1    6    6    0    0  0.70463562325E+02 -0.96754724739E+01 -0.24367368359E+01  0.71166467311E+02  0.00000000000E+00 0.  1.
<mgrwt>
<rscale>  2 0.18336867E+03</rscale>
<asrwt>0</asrwt>
<pdfrwt beam="1">  1       21 0.15297937E-01 0.18352430E+03</pdfrwt>
<pdfrwt beam="2">  1       21 0.66637895E-01 0.18352430E+03</pdfrwt>
<totfact> 0.78426845E+04</totfact>
</mgrwt>
</event>
<event>
12    1  0.1029207E-001  0.1940139E+03  0.7546771E-02  0.1155432E+00
         21   -1    0    0  503  502  0.00000000000E+00  0.00000000000E+00  0.12959075313E+03  0.12959075313E+03  0.00000000000E+00 0.  1.
         21   -1    0    0  501  503 -0.00000000000E+00 -0.00000000000E+00 -0.32548706861E+03  0.32548706861E+03  0.00000000000E+00 0.  1.
          6    2    1    2  501    0  0.12188334793E+02 -0.85588848086E+02 -0.18957145493E+02  0.19249666043E+03  0.17094322007E+03 0.  0.
         24    2    3    3    0    0  0.25692806514E+02 -0.45507871401E+02  0.51928703965E+02  0.10981807129E+03  0.81439129537E+02 0.  0.
         -6    2    1    2    0  502 -0.12188334793E+02  0.85588848086E+02 -0.17693916999E+03  0.26258116131E+03  0.17368762184E+03 0.  0.
        -24    2    5    5    0    0 -0.49504110570E+02  0.48305540835E+02 -0.20180544464E+02  0.97118570986E+02  0.65120505347E+02 0.  0.
          5    1    3    3  501    0 -0.13504471721E+02 -0.40080976685E+02 -0.70885849458E+02  0.82678589138E+02  0.47000000000E+01 0. -1.
        -11    1    4    4    0    0  0.60583587618E+01 -0.66352863067E+02  0.27144015852E+02  0.71945838967E+02  0.00000000000E+00 0.  1.
         12    1    4    4    0    0  0.19634447753E+02  0.20844991665E+02  0.24784688113E+02  0.37872232321E+02  0.00000000000E+00 0. -1.
         -5    1    5    5    0  502  0.37315775777E+02  0.37283307251E+02 -0.15675862553E+03  0.16546259033E+03  0.47000000000E+01 0.  1.
         11    1    6    6    0    0  0.13230477749E+02  0.56430419055E+01 -0.15443633424E+02  0.21104389988E+02  0.00000000000E+00 0. -1.
        -12    1    6    6    0    0 -0.62734588320E+02  0.42662498930E+02 -0.47369110398E+01  0.76014180998E+02  0.00000000000E+00 0.  1.
<mgrwt>
<rscale>  2 0.19339773E+03</rscale>
<asrwt>0</asrwt>
<pdfrwt beam="1">  1       21 0.19937039E-01 0.19401391E+03</pdfrwt>
<pdfrwt beam="2">  1       21 0.50074933E-01 0.19401391E+03</pdfrwt>
<totfact> 0.88155116E+04</totfact>
</mgrwt>
</event>
<event>
12    1  0.1029207E-001  0.1836231E+03  0.7546771E-02  0.1164667E+00
         21   -1    0    0  503  502  0.00000000000E+00  0.00000000000E+00  0.95265054372E+02  0.95265054372E+02  0.00000000000E+00 0. -1.
         21   -1    0    0  501  503 -0.00000000000E+00 -0.00000000000E+00 -0.38325552792E+03  0.38325552792E+03  0.00000000000E+00 0. -1.
          6    2    1    2  501    0 -0.16809702492E+02  0.57355832027E+02 -0.75392660399E+02  0.19849813051E+03  0.17362372249E+03 0.  0.
         24    2    3    3    0    0  0.28553270108E+02  0.89672567409E+02 -0.75523264585E+02  0.14260289166E+03  0.75995806707E+02 0.  0.
         -6    2    1    2    0  502  0.16809702492E+02 -0.57355832027E+02 -0.21259781315E+03  0.28002245178E+03  0.17216993285E+03 0.  0.
        -24    2    5    5    0    0 -0.21098888404E+02 -0.73636650389E+02 -0.68802133493E+02  0.13035143322E+03  0.79938996713E+02 0.  0.
          5    1    3    3  501    0 -0.45362972600E+02 -0.32316735381E+02  0.13060418563E+00  0.55895238851E+02  0.47000000000E+01 0. -1.
        -11    1    4    4    0    0  0.11781743391E+02 -0.12548564581E+02 -0.13412126986E+02  0.21821115936E+02  0.00000000000E+00 0.  1.
         12    1    4    4    0    0  0.16771526717E+02  0.10222113199E+03 -0.62111137599E+02  0.12078177573E+03  0.00000000000E+00 0. -1.
         -5    1    5    5    0  502  0.37908590896E+02  0.16280818362E+02 -0.14379567965E+03  0.14967101856E+03  0.47000000000E+01 0.  1.
         13    1    6    6    0    0  0.34308705598E+01  0.15671450839E-01 -0.50470056831E+02  0.50586537289E+02  0.00000000000E+00 0. -1.
        -14    1    6    6    0    0 -0.24529758964E+02 -0.73652321840E+02 -0.18332076662E+02  0.79764895926E+02  0.00000000000E+00 0.  1.
<mgrwt>
<rscale>  2 0.18327866E+03</rscale>
<asrwt>0</asrwt>
<pdfrwt beam="1">  1       21 0.14656162E-01 0.18362313E+03</pdfrwt>
<pdfrwt beam="2">  1       21 0.58962388E-01 0.18362313E+03</pdfrwt>
<totfact> 0.11043548E+05</totfact>
</mgrwt>
</event>
<event>
12    1  0.1029207E-001  0.3538495E+03  0.7546771E-02  0.1061419E+00
         21   -1    0    0  501  502  0.00000000000E+00  0.00000000000E+00  0.18397987825E+03  0.18397987825E+03  0.00000000000E+00 0.  1.
         21   -1    0    0  502  503 -0.00000000000E+00 -0.00000000000E+00 -0.67785934106E+03  0.67785934106E+03  0.00000000000E+00 0. -1.
         -6    2    1    2    0  503 -0.14378640974E+03  0.27350292370E+03 -0.21121678282E+03  0.40895105700E+03  0.16477274283E+03 0.  0.
        -24    2    3    3    0    0 -0.14187659917E+03  0.22124498210E+03 -0.22427184895E+03  0.35484870412E+03  0.80879101649E+02 0.  0.
          6    2    1    2  501    0  0.14378640974E+03 -0.27350292370E+03 -0.28266267999E+03  0.45288816232E+03  0.17242713247E+03 0.  0.
         24    2    5    5    0    0  0.11417104691E+03 -0.96645635334E+02 -0.17433739452E+03  0.24333619350E+03  0.80271845375E+02 0.  0.
          5    1    5    5  501    0  0.29615362837E+02 -0.17685728836E+03 -0.10832528547E+03  0.20955196882E+03  0.47000000000E+01 0. -1.
        -11    1    6    6    0    0  0.22309820421E+02  0.13263381343E+02 -0.19979200126E+02  0.32753836562E+02  0.00000000000E+00 0.  1.
         12    1    6    6    0    0  0.91861226486E+02 -0.10990901668E+03 -0.15435819439E+03  0.21058235694E+03  0.00000000000E+00 0. -1.
         -5    1    3    3    0  503 -0.19098105706E+01  0.52257941591E+02  0.13055066128E+02  0.54102352882E+02  0.47000000000E+01 0.  1.
         13    1    4    4    0    0 -0.11180905055E+03  0.11207502212E+03 -0.15790599432E+03  0.22359869725E+03  0.00000000000E+00 0. -1.
        -14    1    4    4    0    0 -0.30067548621E+02  0.10916995998E+03 -0.66365854634E+02  0.13125000687E+03  0.00000000000E+00 0.  1.
<mgrwt>
<rscale>  2 0.35292943E+03</rscale>
<asrwt>0</asrwt>
<pdfrwt beam="1">  1       21 0.28304597E-01 0.35384954E+03</pdfrwt>
<pdfrwt beam="2">  1       21 0.10428605E+00 0.35384954E+03</pdfrwt>
<totfact> 0.81170747E+03</totfact>
</mgrwt>
</event>
<event>
12    1  0.1029207E-001  0.1917358E+03  0.7546771E-02  0.1157048E+00
         21   -1    0    0  503  502  0.00000000000E+00  0.00000000000E+00  0.77440913687E+03  0.77440913687E+03  0.00000000000E+00 0.  1.
         21   -1    0    0  501  503 -0.00000000000E+00 -0.00000000000E+00 -0.47719082808E+02  0.47719082808E+02  0.00000000000E+00 0.  1.
          6    2    1    2  501    0 -0.14959600669E+02  0.82394682713E+02  0.32602410108E+03  0.37822525475E+03  0.17248175396E+03 0.  0.
         24    2    3    3    0    0  0.57686037807E+02  0.35843494141E+02  0.19249678431E+03  0.21917797790E+03  0.79821920537E+02 0.  0.
         -6    2    1    2    0  502  0.14959600669E+02 -0.82394682713E+02  0.40066595297E+03  0.44390296493E+03  0.17176717674E+03 0.  0.
        -24    2    5    5    0    0  0.39437133226E+02 -0.80087173520E+01  0.30698265662E+03  0.32171020140E+03  0.87405235472E+02 0.  0.
          5    1    3    3  501    0 -0.72645638476E+02  0.46551188572E+02  0.13352731678E+03  0.15904727685E+03  0.47000000000E+01 0. -1.
        -13    1    4    4    0    0  0.11523065830E+02  0.37687767589E+02  0.28071727955E+02  0.48385646450E+02  0.00000000000E+00 0.  1.
         14    1    4    4    0    0  0.46162971976E+02 -0.18442734482E+01  0.16442505635E+03  0.17079233145E+03  0.00000000000E+00 0. -1.
         -5    1    5    5    0  502 -0.24477532558E+02 -0.74385965361E+02  0.93683296357E+02  0.12219276353E+03  0.47000000000E+01 0.  1.
         13    1    6    6    0    0 -0.10476442297E+02  0.30460644065E+02  0.83007483355E+02  0.89038469063E+02  0.00000000000E+00 0. -1.
        -14    1    6    6    0    0  0.49913575523E+02 -0.38469361417E+02  0.22397517326E+03  0.23267173233E+03  0.00000000000E+00 0.  1.
<mgrwt>
<rscale>  2 0.19157499E+03</rscale>
<asrwt>0</asrwt>
<pdfrwt beam="1">  1       21 0.11913986E+00 0.19173583E+03</pdfrwt>
<pdfrwt beam="2">  1       21 0.73413979E-02 0.19173583E+03</pdfrwt>
<totfact> 0.74926219E+04</totfact>
</mgrwt>
</event>
<event>
12    1  0.1029207E-001  0.2950501E+03  0.7546771E-02  0.1089593E+00
         21   -1    0    0  503  502  0.00000000000E+00  0.00000000000E+00  0.10598231406E+03  0.10598231406E+03  0.00000000000E+00 0. -1.
         21   -1    0    0  501  503 -0.00000000000E+00 -0.00000000000E+00 -0.80236258730E+03  0.80236258730E+03  0.00000000000E+00 0.  1.
          6    2    1    2  501    0 -0.59893833618E+02 -0.21356359672E+03 -0.41120813482E+03  0.49800638900E+03  0.17239939733E+03 0.  0.
         24    2    3    3    0    0 -0.72018337404E+02 -0.19263777382E+03 -0.41714349465E+03  0.47266448394E+03  0.84303418804E+02 0.  0.
         -6    2    1    2    0  502  0.59893833618E+02  0.21356359672E+03 -0.28517213842E+03  0.41033851236E+03  0.19457097687E+03 0.  0.
        -24    2    5    5    0    0 -0.22617533449E+01  0.47833236228E+02 -0.15573585600E+03  0.19100837173E+03  0.99686544788E+02 0.  0.
          5    1    3    3  501    0  0.12124503786E+02 -0.20925822897E+02  0.59353598319E+01  0.25341905065E+02  0.47000000000E+01 0. -1.
        -11    1    4    4    0    0 -0.43696039612E+02 -0.21633396958E+02 -0.83979144561E+02  0.97107386243E+02  0.00000000000E+00 0.  1.
         12    1    4    4    0    0 -0.28322297792E+02 -0.17100437686E+03 -0.33316435009E+03  0.37555709769E+03  0.00000000000E+00 0. -1.
         -5    1    5    5    0  502  0.62155586963E+02  0.16573036049E+03 -0.12943628243E+03  0.21933014063E+03  0.47000000000E+01 0.  1.
         11    1    6    6    0    0  0.28922139313E+02  0.67697446067E+02 -0.10316733330E+03  0.12673962682E+03  0.00000000000E+00 0. -1.
        -12    1    6    6    0    0 -0.31183892657E+02 -0.19864209839E+02 -0.52568522692E+02  0.64268744906E+02  0.00000000000E+00 0.  1.
<mgrwt>
<rscale>  2 0.29145329E+03</rscale>
<asrwt>0</asrwt>
<pdfrwt beam="1">  1       21 0.16304971E-01 0.29505007E+03</pdfrwt>
<pdfrwt beam="2">  1       21 0.12344040E+00 0.29505007E+03</pdfrwt>
<totfact> 0.15663914E+04</totfact>
</mgrwt>
</event>
<event>
12    1  0.1029207E-001  0.2234561E+03  0.7546771E-02  0.1131905E+00
         21   -1    0    0  501  502  0.00000000000E+00  0.00000000000E+00  0.20601522183E+02  0.20601522183E+02  0.00000000000E+00 0. -1.
         21   -1    0    0  502  503 -0.00000000000E+00 -0.00000000000E+00 -0.24439873354E+04  0.24439873354E+04  0.00000000000E+00 0.  1.
         -6    2    1    2    0  503  0.81489861665E+02 -0.11500042622E+03 -0.14029894015E+04  0.14206730355E+04  0.17339814768E+03 0.  0.
        -24    2    3    3    0    0  0.11073660694E+03 -0.73179906442E+02 -0.76477527050E+03  0.78040458014E+03  0.80822023654E+02 0.  0.
          6    2    1    2  501    0 -0.81489861665E+02  0.11500042622E+03 -0.10203964118E+04  0.10439158221E+04  0.16936856518E+03 0.  0.
         24    2    5    5    0    0 -0.76762382341E+02  0.22251731920E+02 -0.36079975404E+03  0.37779683103E+03  0.78526302018E+02 0.  0.
          5    1    5    5  501    0 -0.47274793240E+01  0.92748694303E+02 -0.65959665777E+03  0.66611899109E+03  0.47000000000E+01 0. -1.
        -11    1    6    6    0    0 -0.39793679872E+02  0.31111082216E+02 -0.31136329905E+03  0.31543389227E+03  0.00000000000E+00 0.  1.
         12    1    6    6    0    0 -0.36968702469E+02 -0.88593502961E+01 -0.49436454985E+02  0.62362938765E+02  0.00000000000E+00 0. -1.
         -5    1    3    3    0  503 -0.29246745273E+02 -0.41820519781E+02 -0.63821413096E+03  0.64026845537E+03  0.47000000000E+01 0.  1.
         11    1    4    4    0    0  0.42191497323E+02 -0.56236978552E+02 -0.21717914901E+03  0.22827505989E+03  0.00000000000E+00 0. -1.
        -12    1    4    4    0    0  0.68545109615E+02 -0.16942927890E+02 -0.54759612149E+03  0.55212952024E+03  0.00000000000E+00 0.  1.
<mgrwt>
<rscale>  2 0.22267391E+03</rscale>
<asrwt>0</asrwt>
<pdfrwt beam="1">  1       21 0.31694645E-02 0.22345607E+03</pdfrwt>
<pdfrwt beam="2">  1       21 0.37599811E+00 0.22345607E+03</pdfrwt>
<totfact> 0.68070664E+03</totfact>
</mgrwt>
</event>
<event>
12    1  0.1029207E-001  0.1989948E+03  0.7546771E-02  0.1152024E+00
         21   -1    0    0  503  502  0.00000000000E+00  0.00000000000E+00  0.82067564904E+02  0.82067564904E+02  0.00000000000E+00 0.  1.
         21   -1    0    0  501  503 -0.00000000000E+00 -0.00000000000E+00 -0.54057992678E+03  0.54057992678E+03  0.00000000000E+00 0.  1.
          6    2    1    2  501    0 -0.50780753445E+02  0.72821089036E+02 -0.34108589122E+03  0.39158930102E+03  0.17064876077E+03 0.  0.
         24    2    3    3    0    0 -0.72980352587E+02  0.51883448367E+02 -0.12544044916E+03  0.17374473790E+03  0.80211617508E+02 0.  0.
         -6    2    1    2    0  502  0.50780753445E+02 -0.72821089036E+02 -0.11742647066E+03  0.23105819067E+03  0.17809355838E+03 0.  0.
        -24    2    5    5    0    0  0.40699298986E+02 -0.11959387049E+03 -0.96667266949E+02  0.17869061151E+03  0.81404221906E+02 0.  0.
          5    1    3    3  501    0  0.22199599142E+02  0.20937640669E+02 -0.21564544206E+03  0.21784456312E+03  0.47000000000E+01 0. -1.
        -11    1    4    4    0    0 -0.21959773731E+02  0.45245205322E+02 -0.10847922611E+03  0.11957049286E+03  0.00000000000E+00 0.  1.
         12    1    4    4    0    0 -0.51020578857E+02  0.66382430450E+01 -0.16961223054E+02  0.54174245035E+02  0.00000000000E+00 0. -1.
         -5    1    5    5    0  502  0.10081454459E+02  0.46772781453E+02 -0.20759203706E+02  0.52367579163E+02  0.47000000000E+01 0.  1.
         11    1    6    6    0    0 -0.24300374984E+02 -0.25718984217E+02 -0.30554629134E+02  0.46749970428E+02  0.00000000000E+00 0. -1.
        -12    1    6    6    0    0  0.64999673971E+02 -0.93874886272E+02 -0.66112637815E+02  0.13194064108E+03  0.00000000000E+00 0.  1.
<mgrwt>
<rscale>  2 0.19731506E+03</rscale>
<asrwt>0</asrwt>
<pdfrwt beam="1">  1       21 0.12625779E-01 0.19899475E+03</pdfrwt>
<pdfrwt beam="2">  1       21 0.83166142E-01 0.19899475E+03</pdfrwt>
<totfact> 0.67270168E+04</totfact>
</mgrwt>
</event>
<event>
12    1  0.1029207E-001  0.1938810E+03  0.7546771E-02  0.1155996E+00
         21   -1    0    0  503  502  0.00000000000E+00  0.00000000000E+00  0.37432373502E+03  0.37432373502E+03  0.00000000000E+00 0. -1.
         21   -1    0    0  501  503 -0.00000000000E+00 -0.00000000000E+00 -0.98341223125E+02  0.98341223125E+02  0.00000000000E+00 0. -1.
          6    2    1    2  501    0  0.77055870127E+02 -0.87878848007E+01  0.12865550872E+03  0.23268454810E+03  0.17769362667E+03 0.  0.
         24    2    3    3    0    0  0.95195841869E+02  0.43868011698E+02  0.61842441507E+02  0.14557669563E+03  0.79883890621E+02 0.  0.
         -6    2    1    2    0  502 -0.77055870127E+02  0.87878848007E+01  0.14732700317E+03  0.23998041004E+03  0.17283089220E+03 0.  0.
        -24    2    5    5    0    0  0.80987819448E+01 -0.41749711713E+02  0.65181484460E+02  0.11123515896E+03  0.79473303544E+02 0.  0.
          5    1    3    3  501    0 -0.18139971742E+02 -0.52655896499E+02  0.66813067213E+02  0.87107852467E+02  0.47000000000E+01 0. -1.
        -13    1    4    4    0    0 -0.96835106070E+01 -0.29842341661E+01  0.21607237855E+02  0.23865220697E+02  0.00000000000E+00 0.  1.
         14    1    4    4    0    0  0.10487935248E+03  0.46852245864E+02  0.40235203653E+02  0.12171147494E+03  0.00000000000E+00 0. -1.
         -5    1    5    5    0  502 -0.85154652072E+02  0.50537596514E+02  0.82145518715E+02  0.12874525108E+03  0.47000000000E+01 0.  1.
         11    1    6    6    0    0 -0.22544965801E+02  0.31013324176E+01  0.49840901155E+02  0.54790593843E+02  0.00000000000E+00 0. -1.
        -12    1    6    6    0    0  0.30643747745E+02 -0.44851044131E+02  0.15340583304E+02  0.56444565120E+02  0.00000000000E+00 0.  1.
<mgrwt>
<rscale>  2 0.19275966E+03</rscale>
<asrwt>0</asrwt>
<pdfrwt beam="1">  1       21 0.57588266E-01 0.19388104E+03</pdfrwt>
<pdfrwt beam="2">  1       21 0.15129419E-01 0.19388104E+03</pdfrwt>
<totfact> 0.10920703E+05</totfact>
</mgrwt>
</event>
<event>
12    1  0.1029207E-001  0.2789146E+03  0.7546771E-02  0.1096380E+00
         21   -1    0    0  501  502  0.00000000000E+00  0.00000000000E+00  0.20055536491E+03  0.20055536491E+03  0.00000000000E+00 0.  1.
         21   -1    0    0  502  503 -0.00000000000E+00 -0.00000000000E+00 -0.75203974552E+03  0.75203974552E+03  0.00000000000E+00 0. -1.
         -6    2    1    2    0  503  0.21202240533E+03  0.54346254854E+02 -0.60780094952E+03  0.66874161543E+03  0.17287665600E+03 0.  0.
        -24    2    3    3    0    0  0.22640467359E+03  0.69999440564E+02 -0.58861090905E+03  0.63972059690E+03  0.81367327237E+02 0.  0.
          6    2    1    2  501    0 -0.21202240533E+03 -0.54346254854E+02  0.56316568917E+02  0.28385349500E+03  0.17173885674E+03 0.  0.
         24    2    5    5    0    0 -0.90243319619E+02  0.30634791588E+01  0.80988713501E+02  0.14689792559E+03  0.82864873061E+02 0.  0.
          5    1    5    5  501    0 -0.12177908571E+03 -0.57409734013E+02 -0.24672144584E+02  0.13695556942E+03  0.47000000000E+01 0. -1.
        -13    1    6    6    0    0 -0.73736602958E+02  0.38334018637E+02  0.61255161176E+02  0.10324135979E+03  0.00000000000E+00 0.  1.
         14    1    6    6    0    0 -0.16506716661E+02 -0.35270539478E+02  0.19733552325E+02  0.43656565799E+02  0.00000000000E+00 0. -1.
         -5    1    3    3    0  503 -0.14382268260E+02 -0.15653185709E+02 -0.19190040465E+02  0.29021018525E+02  0.47000000000E+01 0.  1.
         13    1    4    4    0    0  0.17131482501E+03  0.87558205576E+02 -0.43800577969E+03  0.47839760835E+03  0.00000000000E+00 0. -1.
        -14    1    4    4    0    0  0.55089848577E+02 -0.17558765012E+02 -0.15060512936E+03  0.16132298855E+03  0.00000000000E+00 0.  1.
<mgrwt>
<rscale>  2 0.27873848E+03</rscale>
<asrwt>0</asrwt>
<pdfrwt beam="1">  1       21 0.30854672E-01 0.27891460E+03</pdfrwt>
<pdfrwt beam="2">  1       21 0.11569842E+00 0.27891460E+03</pdfrwt>
<totfact> 0.54991609E+03</totfact>
</mgrwt>
</event>
<event>
12    1  0.1029207E-001  0.1747741E+03  0.7546771E-02  0.1172989E+00
         21   -1    0    0  503  502  0.00000000000E+00  0.00000000000E+00  0.81769723713E+03  0.81769723713E+03  0.00000000000E+00 0. -1.
         21   -1    0    0  501  503 -0.00000000000E+00 -0.00000000000E+00 -0.37533251049E+02  0.37533251049E+02  0.00000000000E+00 0. -1.
          6    2    1    2  501    0 -0.73872209862E+01 -0.29591514192E+02  0.35851411655E+03  0.39879363873E+03  0.17197024678E+03 0.  0.
         24    2    3    3    0    0 -0.11348615572E+02 -0.54397553801E+02  0.36035967455E+03  0.37317082990E+03  0.79432287567E+02 0.  0.
         -6    2    1    2    0  502  0.73872209862E+01  0.29591514192E+02  0.42164986953E+03  0.45643684945E+03  0.17209229011E+03 0.  0.
        -24    2    5    5    0    0 -0.12801141919E+02  0.41871000881E+02  0.13398376274E+03  0.16776361760E+03  0.90972153780E+02 0.  0.
          5    1    3    3  501    0  0.39613945853E+01  0.24806039609E+02 -0.18455580004E+01  0.25622808833E+02  0.47000000000E+01 0. -1.
        -13    1    4    4    0    0 -0.44747184542E+02 -0.34632664985E+02  0.24533359847E+03  0.25177431670E+03  0.00000000000E+00 0.  1.
         14    1    4    4    0    0  0.33398568970E+02 -0.19764888816E+02  0.11502607608E+03  0.12139651320E+03  0.00000000000E+00 0. -1.
         -5    1    5    5    0  502  0.20188362905E+02 -0.12279486689E+02  0.28766610679E+03  0.28867323185E+03  0.47000000000E+01 0.  1.
         13    1    6    6    0    0 -0.28895331994E+02 -0.19954525061E+02  0.32511799288E+02  0.47855411130E+02  0.00000000000E+00 0. -1.
        -14    1    6    6    0    0  0.16094190075E+02  0.61825525943E+02  0.10147196345E+03  0.11990820647E+03  0.00000000000E+00 0.  1.
<mgrwt>
<rscale>  2 0.17474405E+03</rscale>
<asrwt>0</asrwt>
<pdfrwt beam="1">  1       21 0.12579956E+00 0.17477410E+03</pdfrwt>
<pdfrwt beam="2">  1       21 0.57743469E-02 0.17477410E+03</pdfrwt>
<totfact> 0.99629904E+04</totfact>
</mgrwt>
</event>
<event>
12    1  0.1029207E-001  0.2138604E+03  0.7546771E-02  0.1138567E+00
         21   -1    0    0  501  502  0.00000000000E+00  0.00000000000E+00  0.65993529565E+03  0.65993529565E+03  0.00000000000E+00 0. -1.
         21   -1    0    0  502  503 -0.00000000000E+00 -0.00000000000E+00 -0.64473629787E+03  0.64473629787E+03  0.00000000000E+00 0. -1.
         -6    2    1    2    0  503  0.10867374547E+03 -0.61774875106E+02 -0.60869858833E+03  0.64517457003E+03  0.17352272540E+03 0.  0.
        -24    2    3    3    0    0  0.13510483106E+03 -0.12497838326E+02 -0.35367608952E+03  0.38405123990E+03  0.63238178602E+02 0.  0.
          6    2    1    2  501    0 -0.10867374547E+03  0.61774875106E+02  0.62389758611E+03  0.65949702349E+03  0.17338398973E+03 0.  0.
         24    2    5    5    0    0 -0.15970895700E+02  0.42416685675E+02  0.21020149380E+03  0.23507376230E+03  0.94977686809E+02 0.  0.
          5    1    5    5  501    0 -0.92702849772E+02  0.19358189431E+02  0.41369609231E+03  0.42442326119E+03  0.47000000000E+01 0.  1.
        -11    1    6    6    0    0  0.14229754924E+02  0.36734137259E+02  0.23522666718E+02  0.45882443428E+02  0.00000000000E+00 0.  1.
         12    1    6    6    0    0 -0.30200650624E+02  0.56825484153E+01  0.18667882708E+03  0.18919131887E+03  0.00000000000E+00 0. -1.
         -5    1    3    3    0  503 -0.26431085585E+02 -0.49277036780E+02 -0.25502249880E+03  0.26112333012E+03  0.47000000000E+01 0.  1.
         13    1    4    4    0    0  0.11488793764E+03 -0.13119793625E+02 -0.21700264583E+03  0.24588923420E+03  0.00000000000E+00 0. -1.
        -14    1    4    4    0    0  0.20216893416E+02  0.62195529926E+00 -0.13667344370E+03  0.13816200570E+03  0.00000000000E+00 0.  1.
<mgrwt>
<rscale>  2 0.21383222E+03</rscale>
<asrwt>0</asrwt>
<pdfrwt beam="1">  1       21 0.10152851E+00 0.21386036E+03</pdfrwt>
<pdfrwt beam="2">  1       21 0.99190199E-01 0.21386036E+03</pdfrwt>
<totfact> 0.64827275E+02</totfact>
</mgrwt>
</event>
<event>
12    1  0.1029207E-001  0.2255067E+03  0.7546771E-02  0.1130043E+00
         21   -1    0    0  503  502  0.00000000000E+00  0.00000000000E+00  0.20119103809E+04  0.20119103809E+04  0.00000000000E+00 0.  1.
         21   -1    0    0  501  503 -0.00000000000E+00 -0.00000000000E+00 -0.87914546430E+02  0.87914546430E+02  0.00000000000E+00 0.  1.
          6    2    1    2  501    0 -0.21487936455E+01  0.14263809217E+03  0.74223473368E+02  0.23635745028E+03  0.17322089266E+03 0.  0.
         24    2    3    3    0    0  0.13616020911E+02 -0.65732612968E+00  0.25208277314E+02  0.84020042766E+02  0.78981530994E+02 0.  0.
         -6    2    1    2    0  502  0.21487936455E+01 -0.14263809217E+03  0.18497723611E+04  0.18634674770E+04  0.17465110209E+03 0.  0.
        -24    2    5    5    0    0  0.30017273749E+02 -0.16496686304E+03  0.14004799938E+04  0.14127336892E+04  0.79731806326E+02 0.  0.
          5    1    3    3  501    0 -0.15764814556E+02  0.14329541830E+03  0.49015196055E+02  0.15233740752E+03  0.47000000000E+01 0. -1.
        -11    1    4    4    0    0 -0.18543194792E+02 -0.10525911688E+02 -0.18937672098E+02  0.28518069963E+02  0.00000000000E+00 0.  1.
         12    1    4    4    0    0  0.32159215702E+02  0.98685855584E+01  0.44145949412E+02  0.55501972802E+02  0.00000000000E+00 0. -1.
         -5    1    5    5    0  502 -0.27868480104E+02  0.22328770868E+02  0.44929236724E+03  0.45073378778E+03  0.47000000000E+01 0.  1.
         11    1    6    6    0    0  0.14442849628E+02 -0.59862395468E+00  0.25578263715E+03  0.25619077213E+03  0.00000000000E+00 0. -1.
        -12    1    6    6    0    0  0.15574424121E+02 -0.16436823909E+03  0.11446973567E+04  0.11565429171E+04  0.00000000000E+00 0.  1.
<mgrwt>
<rscale>  2 0.22522968E+03</rscale>
<asrwt>0</asrwt>
<pdfrwt beam="1">  1       21 0.30952464E+00 0.22550665E+03</pdfrwt>
<pdfrwt beam="2">  1       21 0.13525316E-01 0.22550665E+03</pdfrwt>
<totfact> 0.13666421E+03</totfact>
</mgrwt>
</event>
<event>
12    1  0.1029207E-001  0.2067279E+03  0.7546771E-02  0.1144319E+00
         21   -1    0    0  501  502  0.00000000000E+00  0.00000000000E+00  0.17240392904E+03  0.17240392904E+03  0.00000000000E+00 0.  1.
         21   -1    0    0  502  503 -0.00000000000E+00 -0.00000000000E+00 -0.78752957592E+03  0.78752957592E+03  0.00000000000E+00 0. -1.
         -6    2    1    2    0  503  0.65683076130E+02  0.89901791155E+02 -0.70532684272E+03  0.73499822506E+03  0.17418334371E+03 0.  0.
        -24    2    3    3    0    0  0.11108423883E+03  0.51561804702E+02 -0.49069083906E+03  0.51223843469E+03  0.81316582663E+02 0.  0.
          6    2    1    2  501    0 -0.65683076130E+02 -0.89901791155E+02  0.90201195840E+02  0.22493527991E+03  0.17338692533E+03 0.  0.
         24    2    5    5    0    0 -0.63071627335E+02  0.71538918681E+01  0.98022390278E+02  0.12741663372E+03  0.50964705531E+02 0.  0.
          5    1    5    5  501    0 -0.26114487950E+01 -0.97055683023E+02 -0.78211944373E+01  0.97518646188E+02  0.47000000000E+01 0. -1.
        -11    1    6    6    0    0 -0.62459072704E+02 -0.91130731069E+01  0.65025578877E+02  0.90622898722E+02  0.00000000000E+00 0.  1.
         12    1    6    6    0    0 -0.61255463114E+00  0.16266964975E+02  0.32996811401E+02  0.36793735001E+02  0.00000000000E+00 0. -1.
         -5    1    3    3    0  503 -0.45401162697E+02  0.38339986453E+02 -0.21463600367E+03  0.22275979037E+03  0.47000000000E+01 0.  1.
         11    1    4    4    0    0  0.56282933277E+02  0.66419482397E+02 -0.24305031559E+03  0.25817198168E+03  0.00000000000E+00 0. -1.
        -12    1    4    4    0    0  0.54801305550E+02 -0.14857677695E+02 -0.24764052347E+03  0.25406645300E+03  0.00000000000E+00 0.  1.
<mgrwt>
<rscale>  2 0.20656007E+03</rscale>
<asrwt>0</asrwt>
<pdfrwt beam="1">  1       21 0.26523681E-01 0.20672793E+03</pdfrwt>
<pdfrwt beam="2">  1       21 0.12115840E+00 0.20672793E+03</pdfrwt>
<totfact> 0.68994238E+03</totfact>
</mgrwt>
</event>
<event>
12    1  0.1029207E-001  0.2548510E+03  0.7546771E-02  0.1110292E+00
         21   -1    0    0  501  502  0.00000000000E+00  0.00000000000E+00  0.12488577581E+03  0.12488577581E+03  0.00000000000E+00 0. -1.
         21   -1    0    0  502  503 -0.00000000000E+00 -0.00000000000E+00 -0.59510224831E+03  0.59510224831E+03  0.00000000000E+00 0. -1.
         -6    2    1    2    0  503  0.18587740398E+03  0.19577035810E+02 -0.36315266013E+03  0.44365402596E+03  0.17324944602E+03 0.  0.
        -24    2    3    3    0    0  0.55154760007E+02  0.45732593275E+02 -0.23490656269E+03  0.25860896566E+03  0.81018431745E+02 0.  0.
          6    2    1    2  501    0 -0.18587740398E+03 -0.19577035810E+02 -0.10706381237E+03  0.27633399817E+03  0.17310155685E+03 0.  0.
         24    2    5    5    0    0 -0.13810913887E+03  0.27773145273E+02 -0.23144352329E+02  0.16868450875E+03  0.89851658901E+02 0.  0.
          5    1    5    5  501    0 -0.47768265101E+02 -0.47350181082E+02 -0.83919460037E+02  0.10764948942E+03  0.47000000000E+01 0. -1.
        -13    1    6    6    0    0 -0.39964961694E+02  0.89409406236E+01  0.34297216660E+02  0.53417578127E+02  0.00000000000E+00 0.  1.
         14    1    6    6    0    0 -0.98144177181E+02  0.18832204649E+02 -0.57441568989E+02  0.11526693062E+03  0.00000000000E+00 0. -1.
         -5    1    3    3    0  503  0.13072264397E+03 -0.26155557466E+02 -0.12824609744E+03  0.18504506030E+03  0.47000000000E+01 0.  1.
         13    1    4    4    0    0  0.58638137964E+02  0.58305004448E+02 -0.13837883809E+03  0.16120362154E+03  0.00000000000E+00 0. -1.
        -14    1    4    4    0    0 -0.34833779575E+01 -0.12572411173E+02 -0.96527724602E+02  0.97405344112E+02  0.00000000000E+00 0.  1.
<mgrwt>
<rscale>  2 0.25482588E+03</rscale>
<asrwt>0</asrwt>
<pdfrwt beam="1">  1       21 0.19213197E-01 0.25485102E+03</pdfrwt>
<pdfrwt beam="2">  1       21 0.91554190E-01 0.25485102E+03</pdfrwt>
<totfact> 0.24299931E+04</totfact>
</mgrwt>
</event>
<event>
12    1  0.1029207E-001  0.3139164E+03  0.7546771E-02  0.1078493E+00
         21   -1    0    0  503  502  0.00000000000E+00  0.00000000000E+00  0.90367407634E+03  0.90367407634E+03  0.00000000000E+00 0. -1.
         21   -1    0    0  501  503 -0.00000000000E+00 -0.00000000000E+00 -0.13897504714E+03  0.13897504714E+03  0.00000000000E+00 0. -1.
          6    2    1    2  501    0  0.19250531349E+03  0.17762729117E+03  0.14027444679E+03  0.34375746501E+03  0.17286562422E+03 0.  0.
         24    2    3    3    0    0  0.16171929044E+03  0.61422616286E+02  0.68431901030E+02  0.20363342331E+03  0.82811710034E+02 0.  0.
         -6    2    1    2    0  502 -0.19250531349E+03 -0.17762729117E+03  0.62442458241E+03  0.69889165846E+03  0.17301370136E+03 0.  0.
        -24    2    5    5    0    0 -0.18496072675E+03 -0.20234504383E+03  0.58863678704E+03  0.65449859163E+03  0.81982633428E+02 0.  0.
          5    1    3    3  501    0  0.30786023045E+02  0.11620467489E+03  0.71842545762E+02  0.14012404170E+03  0.47000000000E+01 0. -1.
        -11    1    4    4    0    0  0.54668415359E+01  0.12776392055E+01  0.31738749511E+02  0.32231458838E+02  0.00000000000E+00 0.  1.
         12    1    4    4    0    0  0.15625244891E+03  0.60144977081E+02  0.36693151519E+02  0.17140196447E+03  0.00000000000E+00 0. -1.
         -5    1    5    5    0  502 -0.75445867335E+01  0.24717752657E+02  0.35787795371E+02  0.44393066833E+02  0.47000000000E+01 0.  1.
         13    1    6    6    0    0 -0.74963186160E+02 -0.14225232946E+03  0.32997995092E+03  0.36707216255E+03  0.00000000000E+00 0. -1.
        -14    1    6    6    0    0 -0.10999754059E+03 -0.60092714373E+02  0.25865683612E+03  0.28742642907E+03  0.00000000000E+00 0.  1.
<mgrwt>
<rscale>  2 0.31389598E+03</rscale>
<asrwt>0</asrwt>
<pdfrwt beam="1">  1       21 0.13902678E+00 0.31391638E+03</pdfrwt>
<pdfrwt beam="2">  1       21 0.21380777E-01 0.31391638E+03</pdfrwt>
<totfact> 0.68798002E+03</totfact>
</mgrwt>
</event>
<event>
12    1  0.1029207E-001  0.1802325E+03  0.7546771E-02  0.1167690E+00
         21   -1    0    0  503  502  0.00000000000E+00  0.00000000000E+00  0.91720625354E+03  0.91720625354E+03  0.00000000000E+00 0. -1.
         21   -1    0    0  501  503 -0.00000000000E+00 -0.00000000000E+00 -0.39216245553E+02  0.39216245553E+02  0.00000000000E+00 0. -1.
          6    2    1    2  501    0 -0.50928787037E+02  0.98012092380E+01  0.28785354653E+03  0.33937727511E+03  0.17212630699E+03 0.  0.
         24    2    3    3    0    0  0.30548262376E+02 -0.23236071255E+02  0.16056626567E+03  0.18460611063E+03  0.82612221075E+02 0.  0.
         -6    2    1    2    0  502  0.50928787037E+02 -0.98012092380E+01  0.59013646145E+03  0.61704522398E+03  0.17260927047E+03 0.  0.
        -24    2    5    5    0    0 -0.17756097000E+01 -0.63948938861E+02  0.28288443077E+03  0.30060308011E+03  0.79031582478E+02 0.  0.
          5    1    3    3  501    0 -0.81477049414E+02  0.33037280493E+02  0.12728728087E+03  0.15477116448E+03  0.47000000000E+01 0. -1.
        -13    1    4    4    0    0 -0.86191145248E+00 -0.28095926766E+02  0.86637801380E+01  0.29414028600E+02  0.00000000000E+00 0.  1.
         14    1    4    4    0    0  0.31410173829E+02  0.48598555110E+01  0.15190248553E+03  0.15519208203E+03  0.00000000000E+00 0. -1.
         -5    1    5    5    0  502  0.52704396737E+02  0.54147729623E+02  0.30725203068E+03  0.31644214387E+03  0.47000000000E+01 0.  1.
         11    1    6    6    0    0  0.27078810068E+02 -0.65383334834E+02  0.22570566205E+03  0.23654024671E+03  0.00000000000E+00 0. -1.
        -12    1    6    6    0    0 -0.28854419768E+02  0.14343959730E+01  0.57178768715E+02  0.64062833404E+02  0.00000000000E+00 0.  1.
<mgrwt>
<rscale>  2 0.18011680E+03</rscale>
<asrwt>0</asrwt>
<pdfrwt beam="1">  1       21 0.14110864E+00 0.18023253E+03</pdfrwt>
<pdfrwt beam="2">  1       21 0.60332692E-02 0.18023253E+03</pdfrwt>
<totfact> 0.68913337E+04</totfact>
</mgrwt>
</event>
<event>
12    1  0.1029207E-001  0.1814148E+03  0.7546771E-02  0.1166689E+00
         21   -1    0    0  503  502  0.00000000000E+00  0.00000000000E+00  0.11358564533E+04  0.11358564533E+04  0.00000000000E+00 0. -1.
         21   -1    0    0  501  503 -0.00000000000E+00 -0.00000000000E+00 -0.20738446148E+03  0.20738446148E+03  0.00000000000E+00 0. -1.
          6    2    1    2  501    0 -0.75999944671E+01  0.52584792089E+02 -0.15880499492E+03  0.24110240083E+03  0.17346014240E+03 0.  0.
         24    2    3    3    0    0 -0.51160179949E+02 -0.95821069769E+00 -0.46252987318E+02  0.10898734748E+03  0.84383771515E+02 0.  0.
         -6    2    1    2    0  502  0.75999944671E+01 -0.52584792089E+02  0.10872769868E+04  0.11021385140E+04  0.17238079286E+03 0.  0.
        -24    2    5    5    0    0  0.51366309015E+02  0.11737094569E+01  0.83623715776E+03  0.84166096690E+03  0.80378628352E+02 0.  0.
          5    1    3    3  501    0  0.43560185482E+02  0.53543002787E+02 -0.11255200760E+03  0.13211505335E+03  0.47000000000E+01 0. -1.
        -13    1    4    4    0    0 -0.22577728164E+02 -0.21957937999E+02 -0.62491489770E+02  0.69979219371E+02  0.00000000000E+00 0.  1.
         14    1    4    4    0    0 -0.28582451785E+02  0.20999727301E+02  0.16238502452E+02  0.39008128110E+02  0.00000000000E+00 0. -1.
         -5    1    5    5    0  502 -0.43766314548E+02 -0.53758501546E+02  0.25103982900E+03  0.26047754706E+03  0.47000000000E+01 0.  1.
         13    1    6    6    0    0 -0.13460079326E+01  0.66594167918E+01  0.57808765074E+03  0.57812757373E+03  0.00000000000E+00 0. -1.
        -14    1    6    6    0    0  0.52712316947E+02 -0.54857073349E+01  0.25814950702E+03  0.26353339317E+03  0.00000000000E+00 0.  1.
<mgrwt>
<rscale>  2 0.18115634E+03</rscale>
<asrwt>0</asrwt>
<pdfrwt beam="1">  1       21 0.17474714E+00 0.18141483E+03</pdfrwt>
<pdfrwt beam="2">  1       21 0.31905302E-01 0.18141483E+03</pdfrwt>
<totfact> 0.18895739E+03</totfact>
</mgrwt>
</event>
<event>
12    1  0.1029207E-001  0.1853716E+03  0.7546771E-02  0.1163058E+00
         21   -1    0    0  503  502  0.00000000000E+00  0.00000000000E+00  0.20408077846E+02  0.20408077846E+02  0.00000000000E+00 0. -1.
         21   -1    0    0  501  503 -0.00000000000E+00 -0.00000000000E+00 -0.17096722636E+04  0.17096722636E+04  0.00000000000E+00 0.  1.
          6    2    1    2  501    0 -0.60750687838E+02  0.16981073318E+02 -0.97970683655E+03  0.99708982740E+03  0.17430902271E+03 0.  0.
         24    2    3    3    0    0 -0.89860299951E+02  0.10555599044E+02 -0.44080838284E+03  0.45734702787E+03  0.81657696134E+02 0.  0.
         -6    2    1    2    0  502  0.60750687838E+02 -0.16981073318E+02 -0.70955734918E+03  0.73299051403E+03  0.17269759392E+03 0.  0.
        -24    2    5    5    0    0 -0.15222398641E+02 -0.53000371065E+02 -0.40337283779E+03  0.41543682613E+03  0.82688266907E+02 0.  0.
          5    1    3    3  501    0  0.29109612113E+02  0.64254742742E+01 -0.53889845371E+03  0.53974279953E+03  0.47000000000E+01 0. -1.
        -11    1    4    4    0    0 -0.54769826646E+02  0.46346626076E+02 -0.25707967814E+03  0.26690392386E+03  0.00000000000E+00 0.  1.
         12    1    4    4    0    0 -0.35090473305E+02 -0.35791027032E+02 -0.18372870470E+03  0.19044310401E+03  0.00000000000E+00 0. -1.
         -5    1    5    5    0  502  0.75973086479E+02  0.36019297746E+02 -0.30618451139E+03  0.31755368789E+03  0.47000000000E+01 0.  1.
         13    1    6    6    0    0 -0.21251666808E+01 -0.37059532883E+02 -0.38783932202E+03  0.38961168491E+03  0.00000000000E+00 0. -1.
        -14    1    6    6    0    0 -0.13097231960E+02 -0.15940838181E+02 -0.15533515768E+02  0.25825141220E+02  0.00000000000E+00 0.  1.
<mgrwt>
<rscale>  2 0.18499185E+03</rscale>
<asrwt>0</asrwt>
<pdfrwt beam="1">  1       21 0.31397036E-02 0.18537162E+03</pdfrwt>
<pdfrwt beam="2">  1       21 0.26302656E+00 0.18537162E+03</pdfrwt>
<totfact> 0.32947753E+04</totfact>
</mgrwt>
</event>
<event>
12    1  0.1029207E-001  0.2269819E+03  0.7546771E-02  0.1129506E+00
         21   -1    0    0  503  502  0.00000000000E+00  0.00000000000E+00  0.16682938006E+04  0.16682938006E+04  0.00000000000E+00 0. -1.
         21   -1    0    0  501  503 -0.00000000000E+00 -0.00000000000E+00 -0.31426607457E+02  0.31426607457E+02  0.00000000000E+00 0. -1.
          6    2    1    2  501    0 -0.58295327776E+02 -0.12740824519E+03  0.66744231403E+03  0.70498228548E+03  0.17857652168E+03 0.  0.
         24    2    3    3    0    0 -0.11050972765E+03 -0.10071440357E+03  0.51290674497E+03  0.53962740396E+03  0.75951399486E+02 0.  0.
         -6    2    1    2    0  502  0.58295327776E+02  0.12740824519E+03  0.96942487910E+03  0.99473812256E+03  0.17345930383E+03 0.  0.
        -24    2    5    5    0    0  0.12812452351E+02  0.87895700119E+02  0.29774363160E+03  0.32034378584E+03  0.77968313622E+02 0.  0.
          5    1    3    3  501    0  0.52214399875E+02 -0.26693841623E+02  0.15453556906E+03  0.16535488151E+03  0.47000000000E+01 0. -1.
        -13    1    4    4    0    0 -0.91603306963E+01  0.38010838408E+01  0.46927005614E+01  0.10971842844E+02  0.00000000000E+00 0.  1.
         14    1    4    4    0    0 -0.10134939695E+03 -0.10451548741E+03  0.50821404441E+03  0.52865556112E+03  0.00000000000E+00 0. -1.
         -5    1    5    5    0  502  0.45482875425E+02  0.39512545073E+02  0.67168124750E+03  0.67439433673E+03  0.47000000000E+01 0.  1.
         11    1    6    6    0    0  0.45506516005E+02  0.55749308162E+02  0.16922327327E+03  0.18388949012E+03  0.00000000000E+00 0. -1.
        -12    1    6    6    0    0 -0.32694063654E+02  0.32146391957E+02  0.12852035833E+03  0.13645429572E+03  0.00000000000E+00 0.  1.
<mgrwt>
<rscale>  2 0.22597431E+03</rscale>
<asrwt>0</asrwt>
<pdfrwt beam="1">  1       21 0.25666051E+00 0.22698189E+03</pdfrwt>
<pdfrwt beam="2">  1       21 0.48348640E-02 0.22698189E+03</pdfrwt>
<totfact> 0.16802119E+04</totfact>
</mgrwt>
</event>
<event>
12    1  0.1029207E-001  0.1901441E+03  0.7546771E-02  0.1158450E+00
         21   -1    0    0  501  502  0.00000000000E+00  0.00000000000E+00  0.27177490051E+03  0.27177490051E+03  0.00000000000E+00 0. -1.
         21   -1    0    0  502  503 -0.00000000000E+00 -0.00000000000E+00 -0.14559173447E+03  0.14559173447E+03  0.00000000000E+00 0. -1.
         -6    2    1    2    0  503 -0.75696194167E+02  0.21173139250E+02  0.12535611220E+03  0.22774755631E+03  0.17313745667E+03 0.  0.
        -24    2    3    3    0    0 -0.22581113090E+02  0.12551602647E+01  0.14561269255E+03  0.16732937385E+03  0.79275349430E+02 0.  0.
          6    2    1    2  501    0  0.75696194167E+02 -0.21173139250E+02  0.82705383359E+00  0.18961907867E+03  0.17255867217E+03 0.  0.
         24    2    5    5    0    0  0.47983018849E+02  0.54656244619E+02 -0.15711964719E+01  0.10871198906E+03  0.80784607032E+02 0.  0.
          5    1    5    5  501    0  0.27713175317E+02 -0.75829383869E+02  0.23982503055E+01  0.80907089607E+02  0.47000000000E+01 0. -1.
        -11    1    6    6    0    0  0.36776748767E+02  0.43809704280E+02  0.36306381134E+02  0.67749337635E+02  0.00000000000E+00 0.  1.
         12    1    6    6    0    0  0.11206270083E+02  0.10846540339E+02 -0.37877577606E+02  0.40962651425E+02  0.00000000000E+00 0. -1.
         -5    1    3    3    0  503 -0.53115081077E+02  0.19917978985E+02 -0.20256580342E+02  0.60418182460E+02  0.47000000000E+01 0.  1.
         13    1    4    4    0    0 -0.58600503716E-01  0.37956091211E+02  0.52936182375E+02  0.65137605870E+02  0.00000000000E+00 0. -1.
        -14    1    4    4    0    0 -0.22522512586E+02 -0.36700930947E+02  0.92676510172E+02  0.10219176798E+03  0.00000000000E+00 0.  1.
<mgrwt>
<rscale>  2 0.19001229E+03</rscale>
<asrwt>0</asrwt>
<pdfrwt beam="1">  1       21 0.41811523E-01 0.19014414E+03</pdfrwt>
<pdfrwt beam="2">  1       21 0.22398728E-01 0.19014414E+03</pdfrwt>
<totfact> 0.10284755E+05</totfact>
</mgrwt>
</event>
<event>
12    1  0.1029207E-001  0.2736923E+03  0.7546771E-02  0.1099191E+00
         21   -1    0    0  501  502  0.00000000000E+00  0.00000000000E+00  0.57022861332E+03  0.57022861332E+03  0.00000000000E+00 0. -1.
         21   -1    0    0  502  503 -0.00000000000E+00 -0.00000000000E+00 -0.84219883538E+03  0.84219883538E+03  0.00000000000E+00 0. -1.
         -6    2    1    2    0  503  0.15039467682E+03 -0.15269310062E+03 -0.78479965861E+03  0.83115459120E+03  0.17021665174E+03 0.  0.
        -24    2    3    3    0    0  0.60146247618E+02 -0.14924867242E+03 -0.58505712350E+03  0.61189261687E+03  0.78917675408E+02 0.  0.
          6    2    1    2  501    0 -0.15039467682E+03  0.15269310062E+03  0.51282943655E+03  0.58127285750E+03  0.17014805930E+03 0.  0.
         24    2    5    5    0    0 -0.11277252327E+03  0.12332579779E+03  0.23424840817E+03  0.29859398619E+03  0.79744325526E+02 0.  0.
          5    1    5    5  501    0 -0.37622153552E+02  0.29367302835E+02  0.27858102838E+03  0.28267887131E+03  0.47000000000E+01 0. -1.
        -11    1    6    6    0    0 -0.14731018866E+02  0.27242411512E+01 -0.26968086469E+01  0.15221602529E+02  0.00000000000E+00 0.  1.
         12    1    6    6    0    0 -0.98041504403E+02  0.12060155663E+03  0.23694521681E+03  0.28337238366E+03  0.00000000000E+00 0. -1.
         -5    1    3    3    0  503  0.90248429202E+02 -0.34444281966E+01 -0.19974253511E+03  0.21926197434E+03  0.47000000000E+01 0.  1.
         11    1    4    4    0    0 -0.76965509409E+01 -0.22917622176E+02 -0.19161160525E+03  0.19313068521E+03  0.00000000000E+00 0. -1.
        -12    1    4    4    0    0  0.67842798559E+02 -0.12633105025E+03 -0.39344551826E+03  0.41876193166E+03  0.00000000000E+00 0.  1.
<mgrwt>
<rscale>  2 0.27368159E+03</rscale>
<asrwt>0</asrwt>
<pdfrwt beam="1">  1       21 0.87727479E-01 0.27369225E+03</pdfrwt>
<pdfrwt beam="2">  1       21 0.12956905E+00 0.27369225E+03</pdfrwt>
<totfact> 0.44943889E+02</totfact>
</mgrwt>
</event>
<event>
12    1  0.1029207E-001  0.2044249E+03  0.7546771E-02  0.1146347E+00
         21   -1    0    0  503  502  0.00000000000E+00  0.00000000000E+00  0.83250861824E+03  0.83250861824E+03  0.00000000000E+00 0.  1.
         21   -1    0    0  501  503 -0.00000000000E+00 -0.00000000000E+00 -0.30800839040E+03  0.30800839040E+03  0.00000000000E+00 0.  1.
          6    2    1    2  501    0  0.88300857643E+02 -0.62499698159E+02 -0.25996792451E+03  0.32985072833E+03  0.17179909045E+03 0.  0.
         24    2    3    3    0    0 -0.31217357704E+01  0.55190792492E+01 -0.15609035735E+03  0.17558704620E+03  0.80164865531E+02 0.  0.
         -6    2    1    2    0  502 -0.88300857643E+02  0.62499698159E+02  0.78446815234E+03  0.81066628031E+03  0.17345397736E+03 0.  0.
        -24    2    5    5    0    0 -0.12760872281E+02  0.65772261951E+02  0.25074429093E+03  0.27159277020E+03  0.80006893999E+02 0.  0.
          5    1    3    3  501    0  0.91422593414E+02 -0.68018777408E+02 -0.10387756716E+03  0.15426368213E+03  0.47000000000E+01 0. -1.
        -11    1    4    4    0    0 -0.13505250324E+02 -0.18495263168E+02 -0.14561488785E+03  0.14740475606E+03  0.00000000000E+00 0.  1.
         12    1    4    4    0    0  0.10383514554E+02  0.24014342418E+02 -0.10475469501E+02  0.28182290140E+02  0.00000000000E+00 0. -1.
         -5    1    5    5    0  502 -0.75539985362E+02 -0.32725637916E+01  0.53372386141E+03  0.53907351011E+03  0.47000000000E+01 0.  1.
         11    1    6    6    0    0 -0.30520892521E+02  0.74479007789E+00  0.39934234749E+02  0.50267511352E+02  0.00000000000E+00 0. -1.
        -12    1    6    6    0    0  0.17760020239E+02  0.65027471873E+02  0.21081005618E+03  0.22132525885E+03  0.00000000000E+00 0.  1.
<mgrwt>
<rscale>  2 0.20407342E+03</rscale>
<asrwt>0</asrwt>
<pdfrwt beam="1">  1       21 0.12807825E+00 0.20442489E+03</pdfrwt>
<pdfrwt beam="2">  1       21 0.47385907E-01 0.20442489E+03</pdfrwt>
<totfact> 0.18909725E+03</totfact>
</mgrwt>
</event>
<event>
12    1  0.1029207E-001  0.1929270E+03  0.7546771E-02  0.1156206E+00
         21   -1    0    0  503  502  0.00000000000E+00  0.00000000000E+00  0.90131585032E+03  0.90131585032E+03  0.00000000000E+00 0.  1.
         21   -1    0    0  501  503 -0.00000000000E+00 -0.00000000000E+00 -0.19657234074E+03  0.19657234074E+03  0.00000000000E+00 0.  1.
          6    2    1    2  501    0  0.71380823129E+02 -0.43263742550E+02 -0.13636498907E+03  0.23493725298E+03  0.17214275838E+03 0.  0.
         24    2    3    3    0    0  0.25948495963E+02  0.23594140590E+02 -0.12885345713E+03  0.15361944434E+03  0.75932287948E+02 0.  0.
         -6    2    1    2    0  502 -0.71380823129E+02  0.43263742550E+02  0.84110849865E+03  0.86295093809E+03  0.17393631510E+03 0.  0.
        -24    2    5    5    0    0  0.25765541602E+02  0.89229774930E+01  0.47920181334E+03  0.48663293002E+03  0.80210647708E+02 0.  0.
          5    1    3    3  501    0  0.45432327165E+02 -0.66857883141E+02 -0.75115319411E+01  0.81317808639E+02  0.47000000000E+01 0. -1.
        -13    1    4    4    0    0  0.22364051417E+02 -0.18361612646E+02 -0.95837852719E+02  0.10011090664E+03  0.00000000000E+00 0.  1.
         14    1    4    4    0    0  0.35844445458E+01  0.41955753236E+02 -0.33015604409E+02  0.53508537700E+02  0.00000000000E+00 0. -1.
         -5    1    5    5    0  502 -0.97146364730E+02  0.34340765057E+02  0.36190668531E+03  0.37631800807E+03  0.47000000000E+01 0.  1.
         13    1    6    6    0    0  0.24725545753E+02 -0.57878531542E+01  0.41296829675E+02  0.48479686448E+02  0.00000000000E+00 0. -1.
        -14    1    6    6    0    0  0.10399958489E+01  0.14710830647E+02  0.43790498367E+03  0.43815324357E+03  0.00000000000E+00 0.  1.
<mgrwt>
<rscale>  2 0.19252183E+03</rscale>
<asrwt>0</asrwt>
<pdfrwt beam="1">  1       21 0.13866397E+00 0.19292697E+03</pdfrwt>
<pdfrwt beam="2">  1       21 0.30241899E-01 0.19292697E+03</pdfrwt>
<totfact> 0.38472437E+03</totfact>
</mgrwt>
</event>
<event>
12    1  0.1029207E-001  0.2014888E+03  0.7546771E-02  0.1148630E+00
         21   -1    0    0  503  502  0.00000000000E+00  0.00000000000E+00  0.27723198341E+03  0.27723198341E+03  0.00000000000E+00 0.  1.
         21   -1    0    0  501  503 -0.00000000000E+00 -0.00000000000E+00 -0.18312338430E+03  0.18312338430E+03  0.00000000000E+00 0. -1.
          6    2    1    2  501    0  0.10233435075E+03  0.15236386219E+02  0.15082469001E+03  0.25168599991E+03  0.17289675713E+03 0.  0.
         24    2    3    3    0    0  0.71444853544E+02  0.71309250647E+02  0.13257597966E+03  0.18495195618E+03  0.80258702873E+02 0.  0.
         -6    2    1    2    0  502 -0.10233435075E+03 -0.15236386219E+02 -0.56716090902E+02  0.20866936781E+03  0.17210962578E+03 0.  0.
        -24    2    5    5    0    0 -0.12168738346E+02 -0.59902979089E+02 -0.34538913731E+02  0.10552452127E+03  0.78778442049E+02 0.  0.
          5    1    3    3  501    0  0.30889497206E+02 -0.56072864428E+02  0.18248710350E+02  0.66734043727E+02  0.47000000000E+01 0. -1.
        -11    1    4    4    0    0  0.59378326085E+01 -0.12504575959E+02  0.45258968897E+02  0.47328601729E+02  0.00000000000E+00 0.  1.
         12    1    4    4    0    0  0.65507020936E+02  0.83813826606E+02  0.87317010761E+02  0.13762335445E+03  0.00000000000E+00 0. -1.
         -5    1    5    5    0  502 -0.90165612404E+02  0.44666592869E+02 -0.22177177172E+02  0.10314484653E+03  0.47000000000E+01 0.  1.
         11    1    6    6    0    0 -0.45373255329E+02 -0.38436472442E+02 -0.14547406716E+02  0.61218638951E+02  0.00000000000E+00 0. -1.
        -12    1    6    6    0    0  0.33204516982E+02 -0.21466506647E+02 -0.19991507015E+02  0.44305882322E+02  0.00000000000E+00 0.  1.
<mgrwt>
<rscale>  2 0.20131988E+03</rscale>
<asrwt>0</asrwt>
<pdfrwt beam="1">  1       21 0.42651075E-01 0.20148885E+03</pdfrwt>
<pdfrwt beam="2">  1       21 0.28172828E-01 0.20148885E+03</pdfrwt>
<totfact> 0.63406111E+04</totfact>
</mgrwt>
</event>
<event>
12    1  0.1029207E-001  0.1953175E+03  0.7546771E-02  0.1156282E+00
         21   -1    0    0  501  502  0.00000000000E+00  0.00000000000E+00  0.46518289798E+02  0.46518289798E+02  0.00000000000E+00 0. -1.
         21   -1    0    0  502  503 -0.00000000000E+00 -0.00000000000E+00 -0.19419972493E+04  0.19419972493E+04  0.00000000000E+00 0. -1.
         -6    2    1    2    0  503  0.85695165179E+02 -0.25239929973E+02 -0.17076465618E+04  0.17175359585E+04  0.16091076130E+03 0.  0.
        -24    2    3    3    0    0 -0.49490286728E+00 -0.12895350522E+02 -0.45862312489E+03  0.46547256051E+03  0.78504770004E+02 0.  0.
          6    2    1    2  501    0 -0.85695165179E+02  0.25239929973E+02 -0.18783239767E+03  0.27097958063E+03  0.17368997698E+03 0.  0.
         24    2    5    5    0    0 -0.88810837579E+02  0.73379185415E+02 -0.10557053652E+03  0.17550079174E+03  0.79896933575E+02 0.  0.
          5    1    5    5  501    0  0.31156723996E+01 -0.48139255443E+02 -0.82261861147E+02  0.95478788893E+02  0.47000000000E+01 0. -1.
        -13    1    6    6    0    0 -0.11440148337E+02  0.54031595042E+02 -0.20549932256E+02  0.58928685481E+02  0.00000000000E+00 0.  1.
         14    1    6    6    0    0 -0.77370689241E+02  0.19347590373E+02 -0.85020604268E+02  0.11657210626E+03  0.00000000000E+00 0. -1.
         -5    1    3    3    0  503  0.86190068046E+02 -0.12344579451E+02 -0.12490234369E+04  0.12520633980E+04  0.47000000000E+01 0.  1.
         13    1    4    4    0    0 -0.83577153329E+01 -0.53116842453E+00 -0.44615403938E+03  0.44623263036E+03  0.00000000000E+00 0. -1.
        -14    1    4    4    0    0  0.78628124656E+01 -0.12364182097E+02 -0.12469085514E+02  0.19239930155E+02  0.00000000000E+00 0.  1.
<mgrwt>
<rscale>  2 0.19243654E+03</rscale>
<asrwt>0</asrwt>
<pdfrwt beam="1">  1       21 0.71566588E-02 0.19531749E+03</pdfrwt>
<pdfrwt beam="2">  1       21 0.29876886E+00 0.19531749E+03</pdfrwt>
<totfact> 0.50360047E+03</totfact>
</mgrwt>
</event>
<event>
12    1  0.1029207E-001  0.1828487E+03  0.7546771E-02  0.1165588E+00
         21   -1    0    0  501  502  0.00000000000E+00  0.00000000000E+00  0.39119832241E+03  0.39119832241E+03  0.00000000000E+00 0.  1.
         21   -1    0    0  502  503 -0.00000000000E+00 -0.00000000000E+00 -0.24388570084E+03  0.24388570084E+03  0.00000000000E+00 0.  1.
         -6    2    1    2    0  503 -0.20342750729E+02  0.48856466372E+02 -0.18322838366E+03  0.25733938428E+03  0.17277191992E+03 0.  0.
        -24    2    3    3    0    0  0.53259843196E+01 -0.25645824849E+02 -0.37506686041E+02  0.91609548367E+02  0.79369285074E+02 0.  0.
          6    2    1    2  501    0  0.20342750729E+02 -0.48856466372E+02  0.33054100523E+03  0.37774463897E+03  0.17502249660E+03 0.  0.
         24    2    5    5    0    0  0.77974299554E+02 -0.41328893087E+02  0.26273732026E+03  0.28831595523E+03  0.79417389712E+02 0.  0.
          5    1    5    5  501    0 -0.57631548825E+02 -0.75275732846E+01  0.67803684969E+02  0.89428683737E+02  0.47000000000E+01 0. -1.
        -13    1    6    6    0    0  0.38738219460E+02 -0.49675322709E+02  0.22347991297E+03  0.23218862770E+03  0.00000000000E+00 0.  1.
         14    1    6    6    0    0  0.39236080094E+02  0.83464296214E+01  0.39257407295E+02  0.56127327533E+02  0.00000000000E+00 0. -1.
         -5    1    3    3    0  503 -0.25668735048E+02  0.74502291220E+02 -0.14572169762E+03  0.16572983591E+03  0.47000000000E+01 0.  1.
         13    1    4    4    0    0 -0.45126479022E+01 -0.43788029705E+02 -0.50677688488E+02  0.67126623980E+02  0.00000000000E+00 0. -1.
        -14    1    4    4    0    0  0.98386322218E+01  0.18142204857E+02  0.13171002447E+02  0.24482924386E+02  0.00000000000E+00 0.  1.
<mgrwt>
<rscale>  2 0.18230806E+03</rscale>
<asrwt>0</asrwt>
<pdfrwt beam="1">  1       21 0.60184357E-01 0.18284872E+03</pdfrwt>
<pdfrwt beam="2">  1       21 0.37520877E-01 0.18284872E+03</pdfrwt>
<totfact> 0.17740630E+04</totfact>
</mgrwt>
</event>
<event>
12    1  0.1029207E-001  0.2230750E+03  0.7546771E-02  0.1132257E+00
         21   -1    0    0  501  502  0.00000000000E+00  0.00000000000E+00  0.24543198723E+03  0.24543198723E+03  0.00000000000E+00 0.  1.
         21   -1    0    0  502  503 -0.00000000000E+00 -0.00000000000E+00 -0.41832144160E+03  0.41832144160E+03  0.00000000000E+00 0. -1.
         -6    2    1    2    0  503  0.62425070112E+02 -0.12225031322E+03 -0.32674973916E+03  0.39563600200E+03  0.17584204724E+03 0.  0.
        -24    2    3    3    0    0  0.90697034408E+02 -0.85997460295E+02 -0.14347038296E+03  0.20662016743E+03  0.80539602518E+02 0.  0.
          6    2    1    2  501    0 -0.62425070112E+02  0.12225031322E+03  0.15386028478E+03  0.26811742683E+03  0.17138243456E+03 0.  0.
         24    2    5    5    0    0 -0.27961698836E+02 -0.50579919343E+01  0.86965210066E+02  0.12015739999E+03  0.77893601320E+02 0.  0.
          5    1    5    5  501    0 -0.34463371276E+02  0.12730830515E+03  0.66895074717E+02  0.14796002684E+03  0.47000000000E+01 0. -1.
        -11    1    6    6    0    0  0.21241628451E+02 -0.17211366863E+02  0.51474903587E+02  0.58284677471E+02  0.00000000000E+00 0.  1.
         12    1    6    6    0    0 -0.49203327286E+02  0.12153374928E+02  0.35490306479E+02  0.61872722521E+02  0.00000000000E+00 0. -1.
         -5    1    3    3    0  503 -0.28271964297E+02 -0.36252852921E+02 -0.18327935620E+03  0.18901583457E+03  0.47000000000E+01 0.  1.
         13    1    4    4    0    0  0.66794940882E+02 -0.93425238697E+02 -0.14042121034E+03  0.18140550065E+03  0.00000000000E+00 0. -1.
        -14    1    4    4    0    0  0.23902093526E+02  0.74277784027E+01 -0.30491726177E+01  0.25214666775E+02  0.00000000000E+00 0.  1.
<mgrwt>
<rscale>  2 0.22219525E+03</rscale>
<asrwt>0</asrwt>
<pdfrwt beam="1">  1       21 0.37758768E-01 0.22307500E+03</pdfrwt>
<pdfrwt beam="2">  1       21 0.64357144E-01 0.22307500E+03</pdfrwt>
<totfact> 0.14785231E+04</totfact>
</mgrwt>
</event>
<event>
12    1  0.1029207E-001  0.1899357E+03  0.7546771E-02  0.1159544E+00
         21   -1    0    0  503  502  0.00000000000E+00  0.00000000000E+00  0.14153946044E+04  0.14153946044E+04  0.00000000000E+00 0.  1.
         21   -1    0    0  501  503 -0.00000000000E+00 -0.00000000000E+00 -0.17552319687E+03  0.17552319687E+03  0.00000000000E+00 0. -1.
          6    2    1    2  501    0 -0.62513406840E+02  0.27503919016E+02 -0.11801197887E+03  0.21981501779E+03  0.17241642408E+03 0.  0.
         24    2    3    3    0    0 -0.66311344619E+01  0.57878975762E+02 -0.17577791427E+02  0.10084196014E+03  0.80412526353E+02 0.  0.
         -6    2    1    2    0  502  0.62513406840E+02 -0.27503919016E+02  0.13578833864E+04  0.13711027835E+04  0.17723193903E+03 0.  0.
        -24    2    5    5    0    0 -0.22214056364E+02 -0.13789186146E+02  0.36805855310E+03  0.37755251926E+03  0.79969996462E+02 0.  0.
          5    1    3    3  501    0 -0.55882272378E+02 -0.30375056747E+02 -0.10043418744E+03  0.11897305765E+03  0.47000000000E+01 0. -1.
        -13    1    4    4    0    0  0.12608173371E+02 -0.74075935765E+01  0.18681128987E+02  0.23723892146E+02  0.00000000000E+00 0.  1.
         14    1    4    4    0    0 -0.19239307833E+02  0.65286569339E+02 -0.36258920414E+02  0.77118067996E+02  0.00000000000E+00 0. -1.
         -5    1    5    5    0  502  0.84727463204E+02 -0.13714732869E+02  0.98982483328E+03  0.99355026420E+03  0.47000000000E+01 0.  1.
         13    1    6    6    0    0  0.33074970797E+01  0.46719774271E+01 -0.20693022419E+01  0.60867825474E+01  0.00000000000E+00 0. -1.
        -14    1    6    6    0    0 -0.25521553444E+02 -0.18461163574E+02  0.37012785535E+03  0.37146573672E+03  0.00000000000E+00 0.  1.
<mgrwt>
<rscale>  2 0.18880425E+03</rscale>
<asrwt>0</asrwt>
<pdfrwt beam="1">  1       21 0.21775301E+00 0.18993565E+03</pdfrwt>
<pdfrwt beam="2">  1       21 0.27003570E-01 0.18993565E+03</pdfrwt>
<totfact> 0.13611238E+03</totfact>
</mgrwt>
</event>
<event>
12    1  0.1029207E-001  0.2404091E+03  0.7546771E-02  0.1119853E+00
         21   -1    0    0  501  502  0.00000000000E+00  0.00000000000E+00  0.13547731342E+03  0.13547731342E+03  0.00000000000E+00 0. -1.
         21   -1    0    0  502  503 -0.00000000000E+00 -0.00000000000E+00 -0.51520268256E+03  0.51520268256E+03  0.00000000000E+00 0.  1.
         -6    2    1    2    0  503  0.49168905944E+02  0.15931700395E+03 -0.32807270168E+03  0.40672868647E+03  0.17319652926E+03 0.  0.
        -24    2    3    3    0    0 -0.40000896508E+02  0.92133053634E+02 -0.19193551025E+03  0.23060270389E+03  0.79055649086E+02 0.  0.
          6    2    1    2  501    0 -0.49168905944E+02 -0.15931700395E+03 -0.51652667467E+02  0.24395130952E+03  0.17042521615E+03 0.  0.
         24    2    5    5    0    0 -0.62038523583E+02 -0.18273756078E+03 -0.55850010684E+02  0.21649484889E+03  0.80678382319E+02 0.  0.
          5    1    5    5  501    0  0.12869617639E+02  0.23420556829E+02  0.41973432175E+01  0.27456460632E+02  0.47000000000E+01 0. -1.
        -13    1    6    6    0    0 -0.21880761395E+02 -0.38040033006E+02  0.20037525378E+02  0.48242245528E+02  0.00000000000E+00 0.  1.
         14    1    6    6    0    0 -0.40157762188E+02 -0.14469752778E+03 -0.75887536062E+02  0.16825260336E+03  0.00000000000E+00 0. -1.
         -5    1    3    3    0  503  0.89169802452E+02  0.67183950318E+02 -0.13613719143E+03  0.17612598258E+03  0.47000000000E+01 0.  1.
         11    1    4    4    0    0  0.14992271262E+02  0.57630478347E+02 -0.11825099607E+03  0.13239840748E+03  0.00000000000E+00 0. -1.
        -12    1    4    4    0    0 -0.54993167770E+02  0.34502575287E+02 -0.73684514176E+02  0.98204296404E+02  0.00000000000E+00 0.  1.
<mgrwt>
<rscale>  2 0.23991034E+03</rscale>
<asrwt>0</asrwt>
<pdfrwt beam="1">  1       21 0.20842664E-01 0.24040908E+03</pdfrwt>
<pdfrwt beam="2">  1       21 0.79261951E-01 0.24040908E+03</pdfrwt>
<totfact> 0.29269667E+04</totfact>
</mgrwt>
</event>
<event>
12    1  0.1029207E-001  0.1825222E+03  0.7546771E-02  0.1166162E+00
         21   -1    0    0  501  502  0.00000000000E+00  0.00000000000E+00  0.27531955940E+03  0.27531955940E+03  0.00000000000E+00 0.  1.
         21   -1    0    0  502  503 -0.00000000000E+00 -0.00000000000E+00 -0.16863460768E+03  0.16863460768E+03  0.00000000000E+00 0.  1.
         -6    2    1    2    0  503  0.44191485710E+02 -0.23457012531E+02 -0.67586417515E+02  0.19159555860E+03  0.17215636903E+03 0.  0.
        -24    2    3    3    0    0 -0.33982558422E+00  0.35385911347E+02  0.18648007027E+01  0.90150553362E+02  0.82893706555E+02 0.  0.
          6    2    1    2  501    0 -0.44191485710E+02  0.23457012531E+02  0.17427136923E+03  0.25235860848E+03  0.17553130289E+03 0.  0.
         24    2    5    5    0    0 -0.22369581371E+02  0.68259374678E+02  0.17147269983E+03  0.20222508962E+03  0.79576125082E+02 0.  0.
          5    1    5    5  501    0 -0.21821904339E+02 -0.44802362146E+02  0.27986693986E+01  0.50133518860E+02  0.47000000000E+01 0. -1.
        -11    1    6    6    0    0 -0.29733455015E+02  0.81946084522E+02  0.11909509691E+03  0.14759024773E+03  0.00000000000E+00 0.  1.
         12    1    6    6    0    0  0.73638736445E+01 -0.13686709844E+02  0.52377602914E+02  0.54634841891E+02  0.00000000000E+00 0. -1.
         -5    1    3    3    0  503  0.44531311294E+02 -0.58842923879E+02 -0.69451218218E+02  0.10144500524E+03  0.47000000000E+01 0.  1.
         11    1    4    4    0    0 -0.46595048773E+01  0.28993980808E+02 -0.38856381691E+02  0.48705033691E+02  0.00000000000E+00 0. -1.
        -12    1    4    4    0    0  0.43196792931E+01  0.63919305396E+01  0.40721182393E+02  0.41445519670E+02  0.00000000000E+00 0.  1.
<mgrwt>
<rscale>  2 0.18170593E+03</rscale>
<asrwt>0</asrwt>
<pdfrwt beam="1">  1       21 0.42356855E-01 0.18252221E+03</pdfrwt>
<pdfrwt beam="2">  1       21 0.25943786E-01 0.18252221E+03</pdfrwt>
<totfact> 0.75991087E+04</totfact>
</mgrwt>
</event>
<event>
12    1  0.1029207E-001  0.2476941E+03  0.7546771E-02  0.1114831E+00
         21   -1    0    0  503  502  0.00000000000E+00  0.00000000000E+00  0.67826836964E+03  0.67826836964E+03  0.00000000000E+00 0.  1.
         21   -1    0    0  501  503 -0.00000000000E+00 -0.00000000000E+00 -0.17721487236E+03  0.17721487236E+03  0.00000000000E+00 0. -1.
          6    2    1    2  501    0 -0.45212386882E+02  0.17091128812E+03 -0.49096906830E+02  0.25214434199E+03  0.17294922551E+03 0.  0.
         24    2    3    3    0    0 -0.89050380566E+02  0.15680187973E+03 -0.22051933436E+02  0.19853123090E+03  0.80072230566E+02 0.  0.
         -6    2    1    2    0  502  0.45212386882E+02 -0.17091128812E+03  0.55015040410E+03  0.60333890000E+03  0.17348640520E+03 0.  0.
        -24    2    5    5    0    0  0.41945387977E+02 -0.18894253331E+03  0.39771173343E+03  0.44973083575E+03  0.81391063730E+02 0.  0.
          5    1    3    3  501    0  0.43837993684E+02  0.14109408390E+02 -0.27044973395E+02  0.53613111095E+02  0.47000000000E+01 0. -1.
        -13    1    4    4    0    0 -0.81419567957E+02  0.63112217699E+02 -0.61843373634E+01  0.10320147333E+03  0.00000000000E+00 0.  1.
         14    1    4    4    0    0 -0.76308126092E+01  0.93689662031E+02 -0.15867596072E+02  0.95329757567E+02  0.00000000000E+00 0. -1.
         -5    1    5    5    0  502  0.32669989051E+01  0.18031245193E+02  0.15243867068E+03  0.15360806425E+03  0.47000000000E+01 0.  1.
         11    1    6    6    0    0  0.38510444964E+02 -0.76737008925E+02  0.10139721142E+03  0.13286465818E+03  0.00000000000E+00 0. -1.
        -12    1    6    6    0    0  0.34349430132E+01 -0.11220552439E+03  0.29631452201E+03  0.31686617757E+03  0.00000000000E+00 0.  1.
<mgrwt>
<rscale>  2 0.24760005E+03</rscale>
<asrwt>0</asrwt>
<pdfrwt beam="1">  1       21 0.10434898E+00 0.24769409E+03</pdfrwt>
<pdfrwt beam="2">  1       21 0.27263827E-01 0.24769409E+03</pdfrwt>
<totfact> 0.91762729E+03</totfact>
</mgrwt>
</event>
<event>
12    1  0.1029207E-001  0.1890896E+03  0.7546771E-02  0.1159821E+00
         21   -1    0    0  503  502  0.00000000000E+00  0.00000000000E+00  0.53879489916E+03  0.53879489916E+03  0.00000000000E+00 0. -1.
         21   -1    0    0  501  503 -0.00000000000E+00 -0.00000000000E+00 -0.85015137619E+02  0.85015137619E+02  0.00000000000E+00 0. -1.
          6    2    1    2  501    0  0.11278975904E+02  0.75612225934E+02  0.78701126601E+02  0.20481392666E+03  0.17294638827E+03 0.  0.
         24    2    3    3    0    0 -0.55443540883E+02  0.13442604452E+02  0.52502553722E+02  0.10981176193E+03  0.77765127603E+02 0.  0.
         -6    2    1    2    0  502 -0.11278975904E+02 -0.75612225934E+02  0.37507863494E+03  0.41899611012E+03  0.17037996919E+03 0.  0.
        -24    2    5    5    0    0 -0.47099877958E+01 -0.38054194658E+02  0.36952741281E+03  0.38018034805E+03  0.80723494156E+02 0.  0.
          5    1    3    3  501    0  0.66722516787E+02  0.62169621482E+02  0.26198572878E+02  0.95002164725E+02  0.47000000000E+01 0. -1.
        -13    1    4    4    0    0 -0.18187954271E+02 -0.56163634597E+01  0.63707075017E+02  0.66490124277E+02  0.00000000000E+00 0.  1.
         14    1    4    4    0    0 -0.37255586612E+02  0.19058967912E+02 -0.11204521295E+02  0.43321637655E+02  0.00000000000E+00 0. -1.
         -5    1    5    5    0  502 -0.65689881083E+01 -0.37558031277E+02  0.55512221309E+01  0.38815762073E+02  0.47000000000E+01 0.  1.
         11    1    6    6    0    0 -0.20874208146E+02 -0.41164698341E+02  0.99853065795E+02  0.11000408949E+03  0.00000000000E+00 0. -1.
        -12    1    6    6    0    0  0.16164220350E+02  0.31105036837E+01  0.26967434701E+03  0.27017625856E+03  0.00000000000E+00 0.  1.
<mgrwt>
<rscale>  2 0.18850075E+03</rscale>
<asrwt>0</asrwt>
<pdfrwt beam="1">  1       21 0.82891522E-01 0.18908960E+03</pdfrwt>
<pdfrwt beam="2">  1       21 0.13079252E-01 0.18908960E+03</pdfrwt>
<totfact> 0.63903007E+04</totfact>
</mgrwt>
</event>
<event>
12    1  0.1029207E-001  0.2272362E+03  0.7546771E-02  0.1129057E+00
         21   -1    0    0  501  502  0.00000000000E+00  0.00000000000E+00  0.10749553763E+03  0.10749553763E+03  0.00000000000E+00 0.  1.
         21   -1    0    0  502  503 -0.00000000000E+00 -0.00000000000E+00 -0.47515011134E+03  0.47515011134E+03  0.00000000000E+00 0. -1.
         -6    2    1    2    0  503  0.14636352582E+03 -0.18214687705E+02 -0.17973264773E+03  0.28972418926E+03  0.17286475824E+03 0.  0.
        -24    2    3    3    0    0  0.73942030248E+02 -0.58275808866E+02 -0.16363389870E+03  0.20527878577E+03  0.80621543937E+02 0.  0.
          6    2    1    2  501    0 -0.14636352582E+03  0.18214687705E+02 -0.18792192598E+03  0.29292145971E+03  0.16951187203E+03 0.  0.
         24    2    5    5    0    0 -0.11270474433E+03 -0.29512493741E+02 -0.18641864700E+03  0.23431133032E+03  0.81095874639E+02 0.  0.
          5    1    5    5  501    0 -0.33658781489E+02  0.47727181446E+02 -0.15032789760E+01  0.58610129396E+02  0.47000000000E+01 0. -1.
        -13    1    6    6    0    0 -0.85595658285E+02 -0.50905457503E+02 -0.99470878262E+02  0.14075666216E+03  0.00000000000E+00 0.  1.
         14    1    6    6    0    0 -0.27109086046E+02  0.21392963761E+02 -0.86947768740E+02  0.93554668155E+02  0.00000000000E+00 0. -1.
         -5    1    3    3    0  503  0.72421495572E+02  0.40061121161E+02 -0.16098749029E+02  0.84445403486E+02  0.47000000000E+01 0.  1.
         13    1    4    4    0    0  0.55255152736E+01  0.86245110706E+01 -0.72218212117E+02  0.72940960177E+02  0.00000000000E+00 0. -1.
        -14    1    4    4    0    0  0.68416514975E+02 -0.66900319937E+02 -0.91415686586E+02  0.13233782559E+03  0.00000000000E+00 0.  1.
<mgrwt>
<rscale>  2 0.22659848E+03</rscale>
<asrwt>0</asrwt>
<pdfrwt beam="1">  1       21 0.16537775E-01 0.22723618E+03</pdfrwt>
<pdfrwt beam="2">  1       21 0.73100017E-01 0.22723618E+03</pdfrwt>
<totfact> 0.54364976E+04</totfact>
</mgrwt>
</event>
<event>
12    1  0.1029207E-001  0.1950956E+03  0.7546771E-02  0.1154013E+00
         21   -1    0    0  501  502  0.00000000000E+00  0.00000000000E+00  0.43526058805E+02  0.43526058805E+02  0.00000000000E+00 0.  1.
         21   -1    0    0  502  503 -0.00000000000E+00 -0.00000000000E+00 -0.88410053302E+03  0.88410053302E+03  0.00000000000E+00 0. -1.
         -6    2    1    2    0  503 -0.86666664629E+02 -0.22856725039E+02 -0.36812650223E+03  0.41648143991E+03  0.17293388191E+03 0.  0.
        -24    2    3    3    0    0 -0.39836978653E+02 -0.51700347847E+02 -0.33601572806E+03  0.35262092095E+03  0.84705569750E+02 0.  0.
          6    2    1    2  501    0  0.86666664629E+02  0.22856725039E+02 -0.47244797199E+03  0.51114515191E+03  0.17328802455E+03 0.  0.
         24    2    5    5    0    0 -0.14626734524E+02  0.74914983536E+01 -0.14204786213E+03  0.16519318199E+03  0.82711113693E+02 0.  0.
          5    1    5    5  501    0  0.10129339915E+03  0.15365226686E+02 -0.33040010985E+03  0.34595196992E+03  0.47000000000E+01 0. -1.
        -13    1    6    6    0    0  0.86502505660E+01  0.39915411163E+02 -0.47989389857E+02  0.63016255221E+02  0.00000000000E+00 0.  1.
         14    1    6    6    0    0 -0.23276985090E+02 -0.32423912809E+02 -0.94058472275E+02  0.10217692677E+03  0.00000000000E+00 0. -1.
         -5    1    3    3    0  503 -0.46829685975E+02  0.28843622807E+02 -0.32110774162E+02  0.63860518965E+02  0.47000000000E+01 0.  1.
         13    1    4    4    0    0 -0.16314437723E+02 -0.22431034458E+02 -0.29764209188E+03  0.29893164276E+03  0.00000000000E+00 0. -1.
        -14    1    4    4    0    0 -0.23522540930E+02 -0.29269313388E+02 -0.38373636184E+02  0.53689278185E+02  0.00000000000E+00 0.  1.
<mgrwt>
<rscale>  2 0.19501690E+03</rscale>
<asrwt>0</asrwt>
<pdfrwt beam="1">  1       21 0.66963167E-02 0.19509557E+03</pdfrwt>
<pdfrwt beam="2">  1       21 0.13601547E+00 0.19509557E+03</pdfrwt>
<totfact> 0.62856290E+04</totfact>
</mgrwt>
</event>
<event>
12    1  0.1029207E-001  0.2750361E+03  0.7546771E-02  0.1098504E+00
         21   -1    0    0  503  502  0.00000000000E+00  0.00000000000E+00  0.25236295604E+03  0.25236295604E+03  0.00000000000E+00 0.  1.
         21   -1    0    0  501  503 -0.00000000000E+00 -0.00000000000E+00 -0.37213257922E+03  0.37213257922E+03  0.00000000000E+00 0. -1.
          6    2    1    2  501    0 -0.10047181348E+03 -0.18845693645E+03 -0.19808846903E+03  0.33852580893E+03  0.17248211371E+03 0.  0.
         24    2    3    3    0    0 -0.27812707216E+02 -0.33698046539E+02 -0.23535251302E+02  0.94147873042E+02  0.80005055598E+02 0.  0.
         -6    2    1    2    0  502  0.10047181348E+03  0.18845693645E+03  0.78318845847E+02  0.28596972633E+03  0.17330389656E+03 0.  0.
        -24    2    5    5    0    0  0.12961552709E+03  0.11744289935E+03  0.81626021470E+02  0.20899325642E+03  0.80139593074E+02 0.  0.
          5    1    3    3  501    0 -0.72659106259E+02 -0.15475888991E+03 -0.17455321773E+03  0.24437793589E+03  0.47000000000E+01 0. -1.
        -13    1    4    4    0    0 -0.37308762672E+02  0.13553342617E+02 -0.23146927246E+02  0.45950158968E+02  0.00000000000E+00 0.  1.
         14    1    4    4    0    0  0.94960554559E+01 -0.47251389157E+02 -0.38832405655E+00  0.48197714075E+02  0.00000000000E+00 0. -1.
         -5    1    5    5    0  502 -0.29143713614E+02  0.71014037101E+02 -0.33071756230E+01  0.76976469906E+02  0.47000000000E+01 0.  1.
         13    1    6    6    0    0  0.96403288575E+02  0.77666516111E+02  0.15171150021E+02  0.12472307552E+03  0.00000000000E+00 0. -1.
        -14    1    6    6    0    0  0.33212238515E+02  0.39776383237E+02  0.66454871448E+02  0.84270180905E+02  0.00000000000E+00 0.  1.
<mgrwt>
<rscale>  2 0.27490672E+03</rscale>
<asrwt>0</asrwt>
<pdfrwt beam="1">  1       21 0.38825071E-01 0.27503608E+03</pdfrwt>
<pdfrwt beam="2">  1       21 0.57251165E-01 0.27503608E+03</pdfrwt>
<totfact> 0.17538481E+04</totfact>
</mgrwt>
</event>
<event>
12    1  0.1029207E-001  0.1976373E+03  0.7546771E-02  0.1152569E+00
         21   -1    0    0  503  502  0.00000000000E+00  0.00000000000E+00  0.24462316646E+02  0.24462316646E+02  0.00000000000E+00 0.  1.
         21   -1    0    0  501  503 -0.00000000000E+00 -0.00000000000E+00 -0.15867657287E+04  0.15867657287E+04  0.00000000000E+00 0.  1.
          6    2    1    2  501    0  0.50893831480E+02  0.71836139616E+02 -0.88018413972E+03  0.90210012694E+03  0.17694605442E+03 0.  0.
         24    2    3    3    0    0 -0.23680619130E+02  0.38317643604E+00 -0.55733333694E+03  0.56309923389E+03  0.76807422831E+02 0.  0.
         -6    2    1    2    0  502 -0.50893831480E+02 -0.71836139616E+02 -0.68211927232E+03  0.70912791839E+03  0.17269942077E+03 0.  0.
        -24    2    5    5    0    0 -0.82475941483E+02 -0.19554686073E+02 -0.28796990605E+03  0.31024624046E+03  0.78367061058E+02 0.  0.
          5    1    3    3  501    0  0.74574450610E+02  0.71452963180E+02 -0.32285080278E+03  0.33900089305E+03  0.47000000000E+01 0. -1.
        -11    1    4    4    0    0  0.27560960758E+02  0.25345093413E+01 -0.14802516352E+03  0.15059043572E+03  0.00000000000E+00 0.  1.
         12    1    4    4    0    0 -0.51241579887E+02 -0.21513329053E+01 -0.40930817342E+03  0.41250879817E+03  0.00000000000E+00 0. -1.
         -5    1    5    5    0  502  0.31582110003E+02 -0.52281453543E+02 -0.39414936627E+03  0.39888167793E+03  0.47000000000E+01 0.  1.
         11    1    6    6    0    0  0.15020240698E+02 -0.66892151320E+01 -0.30785653811E+02  0.34901428485E+02  0.00000000000E+00 0. -1.
        -12    1    6    6    0    0 -0.97496182182E+02 -0.12865470941E+02 -0.25718425224E+03  0.27534481198E+03  0.00000000000E+00 0.  1.
<mgrwt>
<rscale>  2 0.19668224E+03</rscale>
<asrwt>0</asrwt>
<pdfrwt beam="1">  1       21 0.37634337E-02 0.19763734E+03</pdfrwt>
<pdfrwt beam="2">  1       21 0.24411778E+00 0.19763734E+03</pdfrwt>
<totfact> 0.31129082E+04</totfact>
</mgrwt>
</event>
<event>
12    1  0.1029207E-001  0.1878586E+03  0.7546771E-02  0.1160485E+00
         21   -1    0    0  503  502  0.00000000000E+00  0.00000000000E+00  0.64923607130E+02  0.64923607130E+02  0.00000000000E+00 0. -1.
         21   -1    0    0  501  503 -0.00000000000E+00 -0.00000000000E+00 -0.54424152221E+03  0.54424152221E+03  0.00000000000E+00 0. -1.
          6    2    1    2  501    0  0.62788564251E+02 -0.31394846813E+02 -0.25624900722E+03  0.31753075842E+03  0.17387981089E+03 0.  0.
         24    2    3    3    0    0 -0.15665051870E+02 -0.14626263439E+02 -0.47779917763E+02  0.94108274036E+02  0.78192872234E+02 0.  0.
         -6    2    1    2    0  502 -0.62788564251E+02  0.31394846813E+02 -0.22306890786E+03  0.29163437092E+03  0.17424932838E+03 0.  0.
        -24    2    5    5    0    0 -0.69860911931E+02  0.20002124337E+02 -0.50517996680E+02  0.11849939705E+03  0.78799791362E+02 0.  0.
          5    1    3    3  501    0  0.78453616121E+02 -0.16768583374E+02 -0.20846908945E+03  0.22342248438E+03  0.47000000000E+01 0. -1.
        -13    1    4    4    0    0  0.79898114726E+01 -0.34060511468E+02  0.26799730919E+01  0.35087573080E+02  0.00000000000E+00 0.  1.
         14    1    4    4    0    0 -0.23654863343E+02  0.19434248029E+02 -0.50459890855E+02  0.59020700956E+02  0.00000000000E+00 0. -1.
         -5    1    5    5    0  502  0.70723476797E+01  0.11392722476E+02 -0.17255091118E+03  0.17313497387E+03  0.47000000000E+01 0.  1.
         13    1    6    6    0    0 -0.37375765227E+02 -0.26156169647E+02 -0.48144268751E+01  0.45872341809E+02  0.00000000000E+00 0. -1.
        -14    1    6    6    0    0 -0.32485146704E+02  0.46158293984E+02 -0.45703569805E+02  0.72627055240E+02  0.00000000000E+00 0.  1.
<mgrwt>
<rscale>  2 0.18777291E+03</rscale>
<asrwt>0</asrwt>
<pdfrwt beam="1">  1       21 0.99882474E-02 0.18785864E+03</pdfrwt>
<pdfrwt beam="2">  1       21 0.83729463E-01 0.18785864E+03</pdfrwt>
<totfact> 0.10103611E+05</totfact>
</mgrwt>
</event>
<event>
11    1  0.1029207E-001  0.2873715E+03  0.7546771E-02  0.1092123E+00
         21   -1    0    0  503  502  0.00000000000E+00  0.00000000000E+00  0.15727242911E+03  0.15727242911E+03  0.00000000000E+00 0.  1.
         21   -1    0    0  501  503 -0.00000000000E+00 -0.00000000000E+00 -0.60661474301E+03  0.60661474301E+03  0.00000000000E+00 0. -1.
          6    2    1    2  501    0 -0.44455801505E+02  0.22100670729E+03 -0.37024705160E+03  0.46868459026E+03  0.17821919923E+03 0.  0.
         24    2    3    3    0    0 -0.94284726926E+02  0.12953398302E+03 -0.27035432832E+03  0.32428643494E+03  0.80009790393E+02 0.  0.
         -6    2    1    2    0  502  0.44455801505E+02 -0.22100670729E+03 -0.79095262312E+02  0.29520258186E+03  0.17340190559E+03 0.  0.
          5    1    3    3  501    0  0.49828925420E+02  0.91472724273E+02 -0.99892723281E+02  0.14439815532E+03  0.47000000000E+01 0. -1.
        -13    1    4    4    0    0 -0.33797849566E+02  0.32162861031E+01 -0.26473100749E+02  0.43051877948E+02  0.00000000000E+00 0.  1.
         14    1    4    4    0    0 -0.60486877360E+02  0.12631769692E+03 -0.24388122757E+03  0.28123455699E+03  0.00000000000E+00 0. -1.
         -5    1    5    5    0  502  0.82793920658E+02 -0.20038847543E+03 -0.32255513696E+02  0.21925529080E+03  0.47000000000E+01 0.  1.
         11    1    5    5    0    0  0.22025342629E+01 -0.16064533851E+02 -0.24656743032E+02  0.29510597790E+02  0.00000000000E+00 0. -1.
        -12    1    5    5    0    0 -0.40540653415E+02 -0.45536980176E+01 -0.22183005584E+02  0.46436693269E+02  0.00000000000E+00 0.  1.
<mgrwt>
<rscale>  2 0.28662799E+03</rscale>
<asrwt>0</asrwt>
<pdfrwt beam="1">  1       21 0.24195758E-01 0.28737148E+03</pdfrwt>
<pdfrwt beam="2">  1       21 0.93325345E-01 0.28737148E+03</pdfrwt>
<totfact> 0.14779127E+04</totfact>
</mgrwt>
</event>
<event>
12    1  0.1029207E-001  0.2332327E+03  0.7546771E-02  0.1124605E+00
         21   -1    0    0  503  502  0.00000000000E+00  0.00000000000E+00  0.67814774684E+03  0.67814774684E+03  0.00000000000E+00 0.  1.
         21   -1    0    0  501  503 -0.00000000000E+00 -0.00000000000E+00 -0.97951011195E+02  0.97951011195E+02  0.00000000000E+00 0.  1.
          6    2    1    2  501    0  0.77485149161E+02 -0.13584199112E+03  0.12359832347E+03  0.26395844138E+03  0.17303328674E+03 0.  0.
         24    2    3    3    0    0 -0.19937142076E+02 -0.24857496300E+02  0.38947009977E+02  0.93674573105E+02  0.79010577164E+02 0.  0.
         -6    2    1    2    0  502 -0.77485149161E+02  0.13584199112E+03  0.45659841218E+03  0.51214031665E+03  0.17131432820E+03 0.  0.
        -24    2    5    5    0    0 -0.91933440263E+02  0.43238457567E+02  0.19241769591E+03  0.23178748826E+03  0.79872074978E+02 0.  0.
          5    1    3    3  501    0  0.97422291236E+02 -0.11098449482E+03  0.84651313490E+02  0.17028386828E+03  0.47000000000E+01 0. -1.
        -11    1    4    4    0    0 -0.19895511973E+02 -0.31963447232E+02 -0.14063059688E+02  0.40190334701E+02  0.00000000000E+00 0.  1.
         12    1    4    4    0    0 -0.41630103030E-01  0.71059509322E+01  0.53010069665E+02  0.53484238404E+02  0.00000000000E+00 0. -1.
         -5    1    5    5    0  502  0.14448291102E+02  0.92603533554E+02  0.26418071626E+03  0.28035282839E+03  0.47000000000E+01 0.  1.
         11    1    6    6    0    0 -0.80718741876E+02  0.61541370120E+01  0.16661035641E+03  0.18523606440E+03  0.00000000000E+00 0. -1.
        -12    1    6    6    0    0 -0.11214698387E+02  0.37084320555E+02  0.25807339508E+02  0.46551423860E+02  0.00000000000E+00 0.  1.
<mgrwt>
<rscale>  2 0.23291399E+03</rscale>
<asrwt>0</asrwt>
<pdfrwt beam="1">  1       21 0.10433042E+00 0.23323274E+03</pdfrwt>
<pdfrwt beam="2">  1       21 0.15069387E-01 0.23323274E+03</pdfrwt>
<totfact> 0.28221842E+04</totfact>
</mgrwt>
</event>
<event>
12    1  0.1029207E-001  0.1983345E+03  0.7546771E-02  0.1152125E+00
         21   -1    0    0  501  502  0.00000000000E+00  0.00000000000E+00  0.62486370782E+02  0.62486370782E+02  0.00000000000E+00 0. -1.
         21   -1    0    0  502  503 -0.00000000000E+00 -0.00000000000E+00 -0.89077180663E+03  0.89077180663E+03  0.00000000000E+00 0. -1.
         -6    2    1    2    0  503  0.27560593098E+02 -0.82733816364E+02 -0.67589942750E+03  0.70314204334E+03  0.17310178037E+03 0.  0.
        -24    2    3    3    0    0  0.15868848860E+02 -0.83065472202E+02 -0.22979144059E+03  0.25685599958E+03  0.77583537653E+02 0.  0.
          6    2    1    2  501    0 -0.27560593098E+02  0.82733816364E+02 -0.15238600836E+03  0.25011613407E+03  0.17813510131E+03 0.  0.
         24    2    5    5    0    0 -0.56943417177E+02 -0.10699797643E+02 -0.79272649586E+02  0.12780160587E+03  0.81805006341E+02 0.  0.
          5    1    5    5  501    0  0.29382824078E+02  0.93433614007E+02 -0.73113358770E+02  0.12231452820E+03  0.47000000000E+01 0. -1.
        -13    1    6    6    0    0  0.22747086723E+01 -0.49243224338E+00 -0.66281007437E+02  0.66321857151E+02  0.00000000000E+00 0.  1.
         14    1    6    6    0    0 -0.59218125849E+02 -0.10207365400E+02 -0.12991642149E+02  0.61479748724E+02  0.00000000000E+00 0. -1.
         -5    1    3    3    0  503  0.11691744238E+02  0.33165583799E+00 -0.44610798690E+03  0.44628604376E+03  0.47000000000E+01 0.  1.
         13    1    4    4    0    0 -0.11975480469E+01 -0.52032097096E+02 -0.20985732903E+03  0.21621487413E+03  0.00000000000E+00 0. -1.
        -14    1    4    4    0    0  0.17066396907E+02 -0.31033375107E+02 -0.19934111567E+02  0.40641125450E+02  0.00000000000E+00 0.  1.
<mgrwt>
<rscale>  2 0.19719778E+03</rscale>
<asrwt>0</asrwt>
<pdfrwt beam="1">  1       21 0.96132878E-02 0.19833453E+03</pdfrwt>
<pdfrwt beam="2">  1       21 0.13704182E+00 0.19833453E+03</pdfrwt>
<totfact> 0.32777679E+04</totfact>
</mgrwt>
</event>
<event>
12    1  0.1029207E-001  0.1831727E+03  0.7546771E-02  0.1164903E+00
         21   -1    0    0  503  502  0.00000000000E+00  0.00000000000E+00  0.16635500156E+04  0.16635500156E+04  0.00000000000E+00 0. -1.
         21   -1    0    0  501  503 -0.00000000000E+00 -0.00000000000E+00 -0.20111925189E+02  0.20111925189E+02  0.00000000000E+00 0. -1.
          6    2    1    2  501    0 -0.30375204471E+02 -0.51198587163E+02  0.83488743375E+03  0.85462249241E+03  0.17262279435E+03 0.  0.
         24    2    3    3    0    0 -0.24775630113E+02 -0.96792170421E+02  0.48789474261E+03  0.50457085655E+03  0.81042663503E+02 0.  0.
         -6    2    1    2    0  502  0.30375204471E+02  0.51198587163E+02  0.80855065662E+03  0.82903944833E+03  0.17322902240E+03 0.  0.
        -24    2    5    5    0    0  0.58739070788E+02 -0.20934178398E+02  0.53147772976E+03  0.54129104855E+03  0.81479468262E+02 0.  0.
          5    1    3    3  501    0 -0.55995743580E+01  0.45593583258E+02  0.34699269114E+03  0.35005163586E+03  0.47000000000E+01 0. -1.
        -13    1    4    4    0    0 -0.32683904841E+02 -0.88889106365E+01  0.74184817910E+02  0.81551441289E+02  0.00000000000E+00 0.  1.
         14    1    4    4    0    0  0.79082747283E+01 -0.87903259785E+02  0.41370992470E+03  0.42301941526E+03  0.00000000000E+00 0. -1.
         -5    1    5    5    0  502 -0.28363866317E+02  0.72132765561E+02  0.27707292686E+03  0.28774839978E+03  0.47000000000E+01 0.  1.
         11    1    6    6    0    0 -0.13401753669E+02 -0.10875485290E+02  0.24817872302E+03  0.24877813759E+03  0.00000000000E+00 0. -1.
        -12    1    6    6    0    0  0.72140824457E+02 -0.10058693109E+02  0.28329900674E+03  0.29251291096E+03  0.00000000000E+00 0.  1.
<mgrwt>
<rscale>  2 0.18302924E+03</rscale>
<asrwt>0</asrwt>
<pdfrwt beam="1">  1       21 0.25593066E+00 0.18317271E+03</pdfrwt>
<pdfrwt beam="2">  1       21 0.30941436E-02 0.18317271E+03</pdfrwt>
<totfact> 0.37189408E+04</totfact>
</mgrwt>
</event>
<event>
12    1  0.1029207E-001  0.2263649E+03  0.7546771E-02  0.1129750E+00
         21   -1    0    0  501  502  0.00000000000E+00  0.00000000000E+00  0.26891370712E+03  0.26891370712E+03  0.00000000000E+00 0. -1.
         21   -1    0    0  502  503 -0.00000000000E+00 -0.00000000000E+00 -0.21078958680E+03  0.21078958680E+03  0.00000000000E+00 0.  1.
         -6    2    1    2    0  503 -0.73036089863E+02 -0.12243628943E+03 -0.49442973937E+02  0.23170171010E+03  0.17582991611E+03 0.  0.
        -24    2    3    3    0    0 -0.20441724414E+02 -0.13415700385E+03 -0.72893707086E+02  0.17274775087E+03  0.78181373211E+02 0.  0.
          6    2    1    2  501    0  0.73036089863E+02  0.12243628943E+03  0.10756709426E+03  0.24800158382E+03  0.17207321238E+03 0.  0.
         24    2    5    5    0    0  0.53445016756E+02  0.11954674849E+03  0.16553330071E+02  0.15473982926E+03  0.80762659266E+02 0.  0.
          5    1    5    5  501    0  0.19591073107E+02  0.28895409342E+01  0.91013764190E+02  0.93261754563E+02  0.47000000000E+01 0. -1.
        -13    1    6    6    0    0  0.26144554585E+02  0.29250267821E+00 -0.12526426867E+02  0.28991975826E+02  0.00000000000E+00 0.  1.
         14    1    6    6    0    0  0.27300462171E+02  0.11925424581E+03  0.29079756939E+02  0.12574785343E+03  0.00000000000E+00 0. -1.
         -5    1    3    3    0  503 -0.52594365449E+02  0.11720714428E+02  0.23450733149E+02  0.58953959230E+02  0.47000000000E+01 0.  1.
         13    1    4    4    0    0 -0.49473508241E+01 -0.52332786290E+02 -0.72396944428E+02  0.89467951601E+02  0.00000000000E+00 0. -1.
        -14    1    4    4    0    0 -0.15494373590E+02 -0.81824217564E+02 -0.49676265798E+00  0.83279799268E+02  0.00000000000E+00 0.  1.
<mgrwt>
<rscale>  2 0.22563501E+03</rscale>
<asrwt>0</asrwt>
<pdfrwt beam="1">  1       21 0.41371340E-01 0.22636492E+03</pdfrwt>
<pdfrwt beam="2">  1       21 0.32429167E-01 0.22636492E+03</pdfrwt>
<totfact> 0.50674502E+04</totfact>
</mgrwt>
</event>
<event>
12    1  0.1029207E-001  0.1875544E+03  0.7546771E-02  0.1161210E+00
         21   -1    0    0  503  502  0.00000000000E+00  0.00000000000E+00  0.66221690397E+03  0.66221690397E+03  0.00000000000E+00 0.  1.
         21   -1    0    0  501  503 -0.00000000000E+00 -0.00000000000E+00 -0.22960232875E+03  0.22960232875E+03  0.00000000000E+00 0.  1.
          6    2    1    2  501    0  0.13140692909E+02  0.64374202062E+02 -0.17503900568E+03  0.25654496762E+03  0.17567000655E+03 0.  0.
         24    2    3    3    0    0 -0.44821449261E+02  0.67475951613E+02 -0.15994499175E+03  0.19638559568E+03  0.80143218341E+02 0.  0.
         -6    2    1    2    0  502 -0.13140692909E+02 -0.64374202062E+02  0.60765358090E+03  0.63527426510E+03  0.17324491857E+03 0.  0.
        -24    2    5    5    0    0  0.18103382340E+02  0.68380145873E+01  0.15253947524E+03  0.17354023861E+03  0.80457641130E+02 0.  0.
          5    1    3    3  501    0  0.57962142170E+02 -0.31017495518E+01 -0.15094013932E+02  0.60159371937E+02  0.47000000000E+01 0. -1.
        -11    1    4    4    0    0  0.20172913244E+02  0.18919725620E+01 -0.18294188327E+02  0.27298412325E+02  0.00000000000E+00 0.  1.
         12    1    4    4    0    0 -0.64994362505E+02  0.65583979051E+02 -0.14165080342E+03  0.16908718336E+03  0.00000000000E+00 0. -1.
         -5    1    5    5    0  502 -0.31244075249E+02 -0.71212216649E+02  0.45511410567E+03  0.46173402649E+03  0.47000000000E+01 0.  1.
         13    1    6    6    0    0 -0.98265867227E+01  0.37439575527E+02  0.52216436443E+02  0.64998768119E+02  0.00000000000E+00 0. -1.
        -14    1    6    6    0    0  0.27929969062E+02 -0.30601560939E+02  0.10032303879E+03  0.10854147049E+03  0.00000000000E+00 0.  1.
<mgrwt>
<rscale>  2 0.18698448E+03</rscale>
<asrwt>0</asrwt>
<pdfrwt beam="1">  1       21 0.10187952E+00 0.18755444E+03</pdfrwt>
<pdfrwt beam="2">  1       21 0.35323436E-01 0.18755444E+03</pdfrwt>
<totfact> 0.60922304E+03</totfact>
</mgrwt>
</event>
<event>
12    1  0.1029207E-001  0.1987091E+03  0.7546771E-02  0.1150867E+00
         21   -1    0    0  503  502  0.00000000000E+00  0.00000000000E+00  0.80122217091E+03  0.80122217091E+03  0.00000000000E+00 0. -1.
         21   -1    0    0  501  503 -0.00000000000E+00 -0.00000000000E+00 -0.49632037168E+02  0.49632037168E+02  0.00000000000E+00 0. -1.
          6    2    1    2  501    0 -0.83770834522E+02 -0.50197128238E+02  0.41338568378E+03  0.45859467802E+03  0.17287004007E+03 0.  0.
         24    2    3    3    0    0 -0.33402084407E+02 -0.95021284503E+02  0.28966695238E+03  0.31761726680E+03  0.82638012573E+02 0.  0.
         -6    2    1    2    0  502  0.83770834522E+02  0.50197128238E+02  0.33820444996E+03  0.39225953006E+03  0.17305485993E+03 0.  0.
        -24    2    5    5    0    0  0.95573200881E+02  0.91477478463E+02  0.24420426223E+03  0.28881153124E+03  0.79208668034E+02 0.  0.
          5    1    3    3  501    0 -0.50368750115E+02  0.44824156264E+02  0.12371873141E+03  0.14097741122E+03  0.47000000000E+01 0. -1.
        -13    1    4    4    0    0  0.19886224874E+02 -0.28246878698E+02  0.14973190292E+03  0.15366519074E+03  0.00000000000E+00 0.  1.
         14    1    4    4    0    0 -0.53288309281E+02 -0.66774405805E+02  0.13993504946E+03  0.16395207606E+03  0.00000000000E+00 0. -1.
         -5    1    5    5    0  502 -0.11802366359E+02 -0.41280350224E+02  0.94000187735E+02  0.10344799882E+03  0.47000000000E+01 0.  1.
         11    1    6    6    0    0  0.54283171338E+02  0.33819183857E+02  0.18719902374E+03  0.19782283583E+03  0.00000000000E+00 0. -1.
        -12    1    6    6    0    0  0.41290029543E+02  0.57658294606E+02  0.57005238493E+02  0.90988695409E+02  0.00000000000E+00 0.  1.
<mgrwt>
<rscale>  2 0.19866881E+03</rscale>
<asrwt>0</asrwt>
<pdfrwt beam="1">  1       21 0.12326494E+00 0.19870906E+03</pdfrwt>
<pdfrwt beam="2">  1       21 0.76356986E-02 0.19870906E+03</pdfrwt>
<totfact> 0.64084572E+04</totfact>
</mgrwt>
</event>
<event>
12    1  0.1029207E-001  0.1943142E+03  0.7546771E-02  0.1156038E+00
         21   -1    0    0  503  502  0.00000000000E+00  0.00000000000E+00  0.99608529059E+03  0.99608529059E+03  0.00000000000E+00 0.  1.
         21   -1    0    0  501  503 -0.00000000000E+00 -0.00000000000E+00 -0.39416558855E+02  0.39416558855E+02  0.00000000000E+00 0.  1.
          6    2    1    2  501    0  0.17471652100E+02  0.69563577796E+02  0.62206912990E+03  0.65171160342E+03  0.18059252940E+03 0.  0.
         24    2    3    3    0    0  0.31912715544E+02 -0.29577688034E+02  0.22977638824E+03  0.24680023032E+03  0.78866368326E+02 0.  0.
         -6    2    1    2    0  502 -0.17471652100E+02 -0.69563577796E+02  0.33459960184E+03  0.38379024603E+03  0.17376337190E+03 0.  0.
        -24    2    5    5    0    0 -0.19503157210E+02 -0.21260358628E+02  0.32284140658E+03  0.33381351994E+03  0.79828042063E+02 0.  0.
          5    1    3    3  501    0 -0.14441063443E+02  0.99141265830E+02  0.39229274166E+03  0.40491137310E+03  0.47000000000E+01 0. -1.
        -13    1    4    4    0    0  0.32699934074E+02  0.19417355024E+02  0.13292577042E+03  0.13825910388E+03  0.00000000000E+00 0.  1.
         14    1    4    4    0    0 -0.78721853072E+00 -0.48995043058E+02  0.96850617818E+02  0.10854112644E+03  0.00000000000E+00 0. -1.
         -5    1    5    5    0  502  0.20315051093E+01 -0.48303219168E+02  0.11758195257E+02  0.49976726090E+02  0.47000000000E+01 0.  1.
         11    1    6    6    0    0  0.51368552162E+01 -0.39445293341E+02  0.83164861309E+02  0.92188462428E+02  0.00000000000E+00 0. -1.
        -12    1    6    6    0    0 -0.24640012426E+02  0.18184934713E+02  0.23967654527E+03  0.24162505751E+03  0.00000000000E+00 0.  1.
<mgrwt>
<rscale>  2 0.19271200E+03</rscale>
<asrwt>0</asrwt>
<pdfrwt beam="1">  1       21 0.15324387E+00 0.19431421E+03</pdfrwt>
<pdfrwt beam="2">  1       21 0.60640868E-02 0.19431421E+03</pdfrwt>
<totfact> 0.54646971E+04</totfact>
</mgrwt>
</event>
<event>
12    1  0.1029207E-001  0.1740980E+03  0.7546771E-02  0.1173652E+00
         21   -1    0    0  503  502  0.00000000000E+00  0.00000000000E+00  0.61532952449E+03  0.61532952449E+03  0.00000000000E+00 0. -1.
         21   -1    0    0  501  503 -0.00000000000E+00 -0.00000000000E+00 -0.55520697895E+02  0.55520697895E+02  0.00000000000E+00 0. -1.
          6    2    1    2  501    0 -0.13485811463E+02  0.19645044142E+02  0.16710770168E+03  0.24128732340E+03  0.17241459799E+03 0.  0.
         24    2    3    3    0    0 -0.71855657785E+02  0.32704065841E+02  0.98704274319E+02  0.15029998427E+03  0.81331174979E+02 0.  0.
         -6    2    1    2    0  502  0.13485811463E+02 -0.19645044142E+02  0.39270112491E+03  0.42956289899E+03  0.17245960630E+03 0.  0.
        -24    2    5    5    0    0 -0.50756820532E+02  0.20339627161E+02  0.22899914856E+03  0.24915692135E+03  0.81538985470E+02 0.  0.
          5    1    3    3  501    0  0.58369846322E+02 -0.13059021699E+02  0.68403427358E+02  0.90987339129E+02  0.47000000000E+01 0. -1.
        -13    1    4    4    0    0 -0.41959518955E+02  0.36394130286E+02  0.10567300707E+03  0.11938139878E+03  0.00000000000E+00 0.  1.
         14    1    4    4    0    0 -0.29896138830E+02 -0.36900644456E+01 -0.69687327523E+01  0.30918585491E+02  0.00000000000E+00 0. -1.
         -5    1    5    5    0  502  0.64242631995E+02 -0.39984671303E+02  0.16370197635E+03  0.18040597763E+03  0.47000000000E+01 0.  1.
         13    1    6    6    0    0 -0.61691681762E+02 -0.12032467990E+02  0.16576696933E+03  0.17728319719E+03  0.00000000000E+00 0. -1.
        -14    1    6    6    0    0  0.10934861230E+02  0.32372095151E+02  0.63232179231E+02  0.71873724162E+02  0.00000000000E+00 0.  1.
<mgrwt>
<rscale>  2 0.17408684E+03</rscale>
<asrwt>0</asrwt>
<pdfrwt beam="1">  1       21 0.94666076E-01 0.17409799E+03</pdfrwt>
<pdfrwt beam="2">  1       21 0.85416463E-02 0.17409799E+03</pdfrwt>
<totfact> 0.10074376E+05</totfact>
</mgrwt>
</event>
<event>
12    1  0.1029207E-001  0.3290322E+03  0.7546771E-02  0.1071587E+00
         21   -1    0    0  503  502  0.00000000000E+00  0.00000000000E+00  0.15541573099E+04  0.15541573099E+04  0.00000000000E+00 0. -1.
         21   -1    0    0  501  503 -0.00000000000E+00 -0.00000000000E+00 -0.70879816969E+02  0.70879816969E+02  0.00000000000E+00 0. -1.
          6    2    1    2  501    0  0.15934226488E+03  0.23006781905E+03  0.63304838809E+03  0.71336190487E+03  0.17266669312E+03 0.  0.
         24    2    3    3    0    0  0.13321773684E+03  0.87363211357E+02  0.27727849161E+03  0.32912056760E+03  0.77831163441E+02 0.  0.
         -6    2    1    2    0  502 -0.15934226488E+03 -0.23006781905E+03  0.85022910486E+03  0.91167522203E+03  0.17303473917E+03 0.  0.
        -24    2    5    5    0    0 -0.84978894229E+02 -0.48169356281E+02  0.41139592715E+03  0.43082845900E+03  0.82612667658E+02 0.  0.
          5    1    3    3  501    0  0.26124528044E+02  0.14270460769E+03  0.35576989648E+03  0.38424133726E+03  0.47000000000E+01 0. -1.
        -11    1    4    4    0    0  0.10597977850E+03  0.26399755544E+02  0.15216203106E+03  0.18730174649E+03  0.00000000000E+00 0.  1.
         12    1    4    4    0    0  0.27237958331E+02  0.60963455812E+02  0.12511646056E+03  0.14181882111E+03  0.00000000000E+00 0. -1.
         -5    1    5    5    0  502 -0.74363370651E+02 -0.18189846277E+03  0.43883317771E+03  0.48084676302E+03  0.47000000000E+01 0.  1.
         13    1    6    6    0    0 -0.52770923088E+02  0.13598663554E+02  0.13044865489E+03  0.14137377952E+03  0.00000000000E+00 0. -1.
        -14    1    6    6    0    0 -0.32207971141E+02 -0.61768019835E+02  0.28094727226E+03  0.28945467948E+03  0.00000000000E+00 0.  1.
<mgrwt>
<rscale>  2 0.32898383E+03</rscale>
<asrwt>0</asrwt>
<pdfrwt beam="1">  1       21 0.23910110E+00 0.32903219E+03</pdfrwt>
<pdfrwt beam="2">  1       21 0.10904588E-01 0.32903219E+03</pdfrwt>
<totfact> 0.48324623E+03</totfact>
</mgrwt>
</event>
<event>
12    1  0.1029207E-001  0.1841025E+03  0.7546771E-02  0.1163916E+00
         21   -1    0    0  501  502  0.00000000000E+00  0.00000000000E+00  0.77541673353E+03  0.77541673353E+03  0.00000000000E+00 0. -1.
         21   -1    0    0  502  503 -0.00000000000E+00 -0.00000000000E+00 -0.72607617053E+02  0.72607617053E+02  0.00000000000E+00 0. -1.
         -6    2    1    2    0  503 -0.49354617992E+02  0.30977523509E+02  0.83852790530E+02  0.20229933818E+03  0.17463747154E+03 0.  0.
        -24    2    3    3    0    0  0.83702115126E+01  0.59845115980E+01 -0.17686397649E+02  0.82762300729E+02  0.80192985606E+02 0.  0.
          6    2    1    2  501    0  0.49354617992E+02 -0.30977523509E+02  0.61895632595E+03  0.64572501241E+03  0.17452327334E+03 0.  0.
         24    2    5    5    0    0  0.14780035941E+02 -0.76025047207E+02  0.52028234864E+03  0.53178061846E+03  0.78093831978E+02 0.  0.
          5    1    5    5  501    0  0.34574582052E+02  0.45047523698E+02  0.98673977303E+02  0.11394439395E+03  0.47000000000E+01 0. -1.
        -11    1    6    6    0    0 -0.95346057789E+01 -0.66074512922E+02  0.47301468868E+03  0.47770246564E+03  0.00000000000E+00 0.  1.
         12    1    6    6    0    0  0.24314641719E+02 -0.99505342845E+01  0.47267659959E+02  0.54078152821E+02  0.00000000000E+00 0. -1.
         -5    1    3    3    0  503 -0.57724829505E+02  0.24993011911E+02  0.10153918818E+03  0.11953703745E+03  0.47000000000E+01 0.  1.
         11    1    4    4    0    0 -0.15033228070E+02  0.36162023415E+02  0.30960909535E+01  0.39284547380E+02  0.00000000000E+00 0. -1.
        -12    1    4    4    0    0  0.23403439582E+02 -0.30177511817E+02 -0.20782488602E+02  0.43477753349E+02  0.00000000000E+00 0.  1.
<mgrwt>
<rscale>  2 0.18407542E+03</rscale>
<asrwt>0</asrwt>
<pdfrwt beam="1">  1       21 0.11929488E+00 0.18410250E+03</pdfrwt>
<pdfrwt beam="2">  1       21 0.11170403E-01 0.18410250E+03</pdfrwt>
<totfact> 0.35905063E+04</totfact>
</mgrwt>
</event>
<event>
12    1  0.1029207E-001  0.1786029E+03  0.7546771E-02  0.1169329E+00
         21   -1    0    0  501  502  0.00000000000E+00  0.00000000000E+00  0.39264526198E+03  0.39264526198E+03  0.00000000000E+00 0.  1.
         21   -1    0    0  502  503 -0.00000000000E+00 -0.00000000000E+00 -0.84967083009E+02  0.84967083009E+02  0.00000000000E+00 0.  1.
         -6    2    1    2    0  503  0.62708432747E+01  0.38481321508E+02  0.10207043719E+03  0.20571184750E+03  0.17429530824E+03 0.  0.
        -24    2    3    3    0    0 -0.54984076503E+02  0.54803852236E+02  0.45246077319E+02  0.12044938166E+03  0.80213060913E+02 0.  0.
          6    2    1    2  501    0 -0.62708432747E+01 -0.38481321508E+02  0.20560774178E+03  0.27190049749E+03  0.17359493504E+03 0.  0.
         24    2    5    5    0    0  0.39018336797E+02  0.11777777718E+02  0.17712997413E+03  0.19834670671E+03  0.79405551919E+02 0.  0.
          5    1    5    5  501    0 -0.45289180072E+02 -0.50259099226E+02  0.28477767655E+02  0.73553790773E+02  0.47000000000E+01 0. -1.
        -13    1    6    6    0    0  0.54728434913E+02  0.35702668358E+01  0.17101895926E+03  0.17959797555E+03  0.00000000000E+00 0.  1.
         14    1    6    6    0    0 -0.15710098116E+02  0.82075108817E+01  0.61110148641E+01  0.18748731166E+02  0.00000000000E+00 0. -1.
         -5    1    3    3    0  503  0.61254919778E+02 -0.16322530727E+02  0.56824359866E+02  0.85262465837E+02  0.47000000000E+01 0.  1.
         13    1    4    4    0    0  0.61281754801E+01  0.48855798553E+02  0.12230629788E+02  0.50734917877E+02  0.00000000000E+00 0. -1.
        -14    1    4    4    0    0 -0.61112251983E+02  0.59480536825E+01  0.33015447531E+02  0.69714463784E+02  0.00000000000E+00 0.  1.
<mgrwt>
<rscale>  2 0.17843178E+03</rscale>
<asrwt>0</asrwt>
<pdfrwt beam="1">  1       21 0.60406962E-01 0.17860288E+03</pdfrwt>
<pdfrwt beam="2">  1       21 0.13071859E-01 0.17860288E+03</pdfrwt>
<totfact> 0.12916617E+05</totfact>
</mgrwt>
</event>
<event>
12    1  0.1029207E-001  0.1899064E+03  0.7546771E-02  0.1159746E+00
         21   -1    0    0  501  502  0.00000000000E+00  0.00000000000E+00  0.69752544090E+03  0.69752544090E+03  0.00000000000E+00 0. -1.
         21   -1    0    0  502  503 -0.00000000000E+00 -0.00000000000E+00 -0.12171070650E+03  0.12171070650E+03  0.00000000000E+00 0. -1.
         -6    2    1    2    0  503 -0.40225342543E+02 -0.53444440514E+02 -0.24204790940E+02  0.19144270817E+03  0.17773590577E+03 0.  0.
        -24    2    3    3    0    0 -0.20954217602E+02  0.19232755782E+02  0.39631202662E+02  0.92698213652E+02  0.78824795969E+02 0.  0.
          6    2    1    2  501    0  0.40225342543E+02  0.53444440514E+02  0.60001952534E+03  0.62779343923E+03  0.17212433048E+03 0.  0.
         24    2    5    5    0    0 -0.15568345486E+02  0.55563382920E+02  0.19031744179E+03  0.21427764412E+03  0.79777924366E+02 0.  0.
          5    1    5    5  501    0  0.55793688029E+02 -0.21189424063E+01  0.40970208354E+03  0.41351579510E+03  0.47000000000E+01 0. -1.
        -13    1    6    6    0    0  0.29428485594E+02  0.12232623677E+02  0.95977872296E+02  0.10113073132E+03  0.00000000000E+00 0.  1.
         14    1    6    6    0    0 -0.44996831080E+02  0.43330759243E+02  0.94339569498E+02  0.11314691280E+03  0.00000000000E+00 0. -1.
         -5    1    3    3    0  503 -0.19271124940E+02 -0.72677196296E+02 -0.63835993602E+02  0.98744494515E+02  0.47000000000E+01 0.  1.
         13    1    4    4    0    0 -0.34536404400E+02  0.16118279131E+01 -0.11903888908E+02  0.36565882859E+02  0.00000000000E+00 0. -1.
        -14    1    4    4    0    0  0.13582186798E+02  0.17620927869E+02  0.51535091570E+02  0.56132330794E+02  0.00000000000E+00 0.  1.
<mgrwt>
<rscale>  2 0.18858227E+03</rscale>
<asrwt>0</asrwt>
<pdfrwt beam="1">  1       21 0.10731160E+00 0.18990639E+03</pdfrwt>
<pdfrwt beam="2">  1       21 0.18724724E-01 0.18990639E+03</pdfrwt>
<totfact> 0.18125022E+04</totfact>
</mgrwt>
</event>
<event>
12    1  0.1029207E-001  0.1963257E+03  0.7546771E-02  0.1153925E+00
         21   -1    0    0  503  502  0.00000000000E+00  0.00000000000E+00  0.15219588549E+03  0.15219588549E+03  0.00000000000E+00 0.  1.
         21   -1    0    0  501  503 -0.00000000000E+00 -0.00000000000E+00 -0.38426733159E+03  0.38426733159E+03  0.00000000000E+00 0.  1.
          6    2    1    2  501    0  0.65079497477E+02 -0.68866205602E+02 -0.27720087415E+03  0.33968235196E+03  0.17194731850E+03 0.  0.
         24    2    3    3    0    0  0.54307995514E+02 -0.10829535299E+03 -0.25384427338E+03  0.29237163735E+03  0.79793592094E+02 0.  0.
         -6    2    1    2    0  502 -0.65079497477E+02  0.68866205602E+02  0.45129428051E+02  0.19678086512E+03  0.16645764727E+03 0.  0.
        -24    2    5    5    0    0 -0.22106671923E+02  0.12304799005E+02 -0.33393728023E+02  0.90791089707E+02  0.80546681352E+02 0.  0.
          5    1    3    3  501    0  0.10771501963E+02  0.39429147388E+02 -0.23356600765E+02  0.47310714617E+02  0.47000000000E+01 0. -1.
        -11    1    4    4    0    0  0.25180147882E+01 -0.63020125971E+02 -0.61480163535E+02  0.88077733759E+02  0.00000000000E+00 0.  1.
         12    1    4    4    0    0  0.51789980726E+02 -0.45275227018E+02 -0.19236410985E+03  0.20429390359E+03  0.00000000000E+00 0. -1.
         -5    1    5    5    0  502 -0.42972825554E+02  0.56561406597E+02  0.78523156075E+02  0.10598977541E+03  0.47000000000E+01 0.  1.
         11    1    6    6    0    0 -0.34088248828E+02  0.38813363028E+02 -0.33737454167E+02  0.61698473817E+02  0.00000000000E+00 0. -1.
        -12    1    6    6    0    0  0.11981576904E+02 -0.26508564023E+02  0.34372614352E+00  0.29092615890E+02  0.00000000000E+00 0.  1.
<mgrwt>
<rscale>  2 0.19511716E+03</rscale>
<asrwt>0</asrwt>
<pdfrwt beam="1">  1       21 0.23414752E-01 0.19632569E+03</pdfrwt>
<pdfrwt beam="2">  1       21 0.59118050E-01 0.19632569E+03</pdfrwt>
<totfact> 0.45809795E+04</totfact>
</mgrwt>
</event>
<event>
12    1  0.1029207E-001  0.2144565E+03  0.7546771E-02  0.1138434E+00
         21   -1    0    0  501  502  0.00000000000E+00  0.00000000000E+00  0.36689915164E+02  0.36689915164E+02  0.00000000000E+00 0.  1.
         21   -1    0    0  502  503 -0.00000000000E+00 -0.00000000000E+00 -0.12465246897E+04  0.12465246897E+04  0.00000000000E+00 0.  1.
         -6    2    1    2    0  503 -0.44372938792E+01 -0.12211331832E+03 -0.56826827946E+03  0.60675384306E+03  0.17404033022E+03 0.  0.
        -24    2    3    3    0    0  0.27758832210E+02 -0.12937245730E+03 -0.31210730974E+03  0.34843269015E+03  0.80539315238E+02 0.  0.
          6    2    1    2  501    0  0.44372938792E+01  0.12211331832E+03 -0.64156649507E+03  0.67646076180E+03  0.17623916298E+03 0.  0.
         24    2    5    5    0    0 -0.18892702619E+02  0.10033436114E+03 -0.62817910127E+03  0.64153335100E+03  0.80821648926E+02 0.  0.
          5    1    5    5  501    0  0.23329996499E+02  0.21778957181E+02 -0.13387393807E+02  0.34927410804E+02  0.47000000000E+01 0. -1.
        -11    1    6    6    0    0 -0.33500210260E+02  0.44215369524E+02 -0.15143810802E+03  0.16127852786E+03  0.00000000000E+00 0.  1.
         12    1    6    6    0    0  0.14607507640E+02  0.56118991614E+02 -0.47674099325E+03  0.48025482313E+03  0.00000000000E+00 0. -1.
         -5    1    3    3    0  503 -0.32196126090E+02  0.72591389775E+01 -0.25616096973E+03  0.25832115292E+03  0.47000000000E+01 0.  1.
         13    1    4    4    0    0  0.90565400601E+01 -0.35411409714E+02 -0.18867543368E+03  0.19218326704E+03  0.00000000000E+00 0. -1.
        -14    1    4    4    0    0  0.18702292150E+02 -0.93961047582E+02 -0.12343187606E+03  0.15624942311E+03  0.00000000000E+00 0.  1.
<mgrwt>
<rscale>  2 0.21400426E+03</rscale>
<asrwt>0</asrwt>
<pdfrwt beam="1">  1       21 0.56446032E-02 0.21445651E+03</pdfrwt>
<pdfrwt beam="2">  1       21 0.19177300E+00 0.21445651E+03</pdfrwt>
<totfact> 0.32749575E+04</totfact>
</mgrwt>
</event>
<event>
12    1  0.1029207E-001  0.1920251E+03  0.7546771E-02  0.1156689E+00
         21   -1    0    0  503  502  0.00000000000E+00  0.00000000000E+00  0.87822516065E+03  0.87822516065E+03  0.00000000000E+00 0.  1.
         21   -1    0    0  501  503 -0.00000000000E+00 -0.00000000000E+00 -0.49160314254E+02  0.49160314254E+02  0.00000000000E+00 0.  1.
          6    2    1    2  501    0 -0.81568799763E+02 -0.22495374263E+02  0.23671882704E+03  0.30469176106E+03  0.17216781124E+03 0.  0.
         24    2    3    3    0    0 -0.16731070768E+02  0.56588474595E+01  0.21634551715E+03  0.23097776607E+03  0.78951848267E+02 0.  0.
         -6    2    1    2    0  502  0.81568799763E+02  0.22495374263E+02  0.59234601936E+03  0.62269371384E+03  0.17237790939E+03 0.  0.
        -24    2    5    5    0    0 -0.22058491145E+01  0.36907698900E+02  0.43351004518E+03  0.44248033035E+03  0.80565746224E+02 0.  0.
          5    1    3    3  501    0 -0.64837728995E+02 -0.28154221723E+02  0.20373309887E+02  0.73713994993E+02  0.47000000000E+01 0. -1.
        -11    1    4    4    0    0 -0.14673764570E+02  0.24979112791E+02  0.23906987089E+02  0.37560876909E+02  0.00000000000E+00 0.  1.
         12    1    4    4    0    0 -0.20573061980E+01 -0.19320265332E+02  0.19243853006E+03  0.19341688916E+03  0.00000000000E+00 0. -1.
         -5    1    5    5    0  502  0.83774648878E+02 -0.14412324637E+02  0.15883597418E+03  0.18021338349E+03  0.47000000000E+01 0.  1.
         11    1    6    6    0    0  0.31809082968E+02  0.42575638806E+02  0.22923404013E+03  0.23531414733E+03  0.00000000000E+00 0. -1.
        -12    1    6    6    0    0 -0.34014932083E+02 -0.56679399061E+01  0.20427600505E+03  0.20716618302E+03  0.00000000000E+00 0.  1.
<mgrwt>
<rscale>  2 0.19197798E+03</rscale>
<asrwt>0</asrwt>
<pdfrwt beam="1">  1       21 0.13511155E+00 0.19202514E+03</pdfrwt>
<pdfrwt beam="2">  1       21 0.75631259E-02 0.19202514E+03</pdfrwt>
<totfact> 0.51883990E+04</totfact>
</mgrwt>
</event>
<event>
12    1  0.1029207E-001  0.2897963E+03  0.7546771E-02  0.1090568E+00
         21   -1    0    0  503  502  0.00000000000E+00  0.00000000000E+00  0.65852088503E+03  0.65852088503E+03  0.00000000000E+00 0. -1.
         21   -1    0    0  501  503 -0.00000000000E+00 -0.00000000000E+00 -0.32734372802E+03  0.32734372802E+03  0.00000000000E+00 0. -1.
          6    2    1    2  501    0  0.20962304169E+03 -0.10119575964E+03 -0.21980063685E+03  0.36372273406E+03  0.17262533399E+03 0.  0.
         24    2    3    3    0    0  0.11311420848E+03 -0.12592300270E+03 -0.16859397547E+03  0.25160849051E+03  0.78939705874E+02 0.  0.
         -6    2    1    2    0  502 -0.20962304169E+03  0.10119575964E+03  0.55097779386E+03  0.62214187899E+03  0.17117706296E+03 0.  0.
        -24    2    5    5    0    0 -0.18994507526E+03  0.10784049034E+03  0.35112706454E+03  0.42115984292E+03  0.79854210075E+02 0.  0.
          5    1    3    3  501    0  0.96508833207E+02  0.24727243063E+02 -0.51206661379E+02  0.11211424355E+03  0.47000000000E+01 0. -1.
        -13    1    4    4    0    0  0.51404143922E+02 -0.10953174931E+03 -0.92668255458E+02  0.15240405404E+03  0.00000000000E+00 0.  1.
         14    1    4    4    0    0  0.61710064562E+02 -0.16391253390E+02 -0.75925720011E+02  0.99204436469E+02  0.00000000000E+00 0. -1.
         -5    1    5    5    0  502 -0.19677966429E+02 -0.66447307049E+01  0.19985072932E+03  0.20098203606E+03  0.47000000000E+01 0.  1.
         13    1    6    6    0    0 -0.14120294953E+03  0.39529630335E+02  0.19587258538E+03  0.24467720436E+03  0.00000000000E+00 0. -1.
        -14    1    6    6    0    0 -0.48742125735E+02  0.68310860007E+02  0.15525447916E+03  0.17648263856E+03  0.00000000000E+00 0.  1.
<mgrwt>
<rscale>  2 0.28958099E+03</rscale>
<asrwt>0</asrwt>
<pdfrwt beam="1">  1       21 0.10131090E+00 0.28979632E+03</pdfrwt>
<pdfrwt beam="2">  1       21 0.50360574E-01 0.28979632E+03</pdfrwt>
<totfact> 0.27866955E+03</totfact>
</mgrwt>
</event>
<event>
12    1  0.1029207E-001  0.2292070E+03  0.7546771E-02  0.1127900E+00
         21   -1    0    0  503  502  0.00000000000E+00  0.00000000000E+00  0.42361566985E+02  0.42361566985E+02  0.00000000000E+00 0. -1.
         21   -1    0    0  501  503 -0.00000000000E+00 -0.00000000000E+00 -0.12423439111E+04  0.12423439111E+04  0.00000000000E+00 0. -1.
          6    2    1    2  501    0 -0.13010365424E+03  0.65818389562E+02 -0.69310725333E+03  0.73002295479E+03  0.17685256193E+03 0.  0.
         24    2    3    3    0    0  0.71800550058E+01  0.37367589313E+02 -0.24752058994E+03  0.26287647942E+03  0.79935668326E+02 0.  0.
         -6    2    1    2    0  502  0.13010365424E+03 -0.65818389562E+02 -0.50687509080E+03  0.55468252330E+03  0.17173037801E+03 0.  0.
        -24    2    5    5    0    0  0.14286693295E+03 -0.27435681881E+02 -0.29263164111E+03  0.33660345675E+03  0.80653162057E+02 0.  0.
          5    1    3    3  501    0 -0.13728370925E+03  0.28450800249E+02 -0.44558666339E+03  0.46714647537E+03  0.47000000000E+01 0. -1.
        -13    1    4    4    0    0 -0.73452323680E+01  0.41152510373E+02 -0.51720230590E+02  0.66501607506E+02  0.00000000000E+00 0.  1.
         14    1    4    4    0    0  0.14525287374E+02 -0.37849210599E+01 -0.19580035935E+03  0.19637487192E+03  0.00000000000E+00 0. -1.
         -5    1    5    5    0  502 -0.12763278703E+02 -0.38382707681E+02 -0.21424344968E+03  0.21807906654E+03  0.47000000000E+01 0.  1.
         13    1    6    6    0    0  0.96039847309E+02 -0.34975864862E+02 -0.25905986755E+03  0.27849412628E+03  0.00000000000E+00 0. -1.
        -14    1    6    6    0    0  0.46827085637E+02  0.75401829817E+01 -0.33571773557E+02  0.58109330476E+02  0.00000000000E+00 0.  1.
<mgrwt>
<rscale>  2 0.22821847E+03</rscale>
<asrwt>0</asrwt>
<pdfrwt beam="1">  1       21 0.65171645E-02 0.22920700E+03</pdfrwt>
<pdfrwt beam="2">  1       21 0.19112982E+00 0.22920700E+03</pdfrwt>
<totfact> 0.25590722E+04</totfact>
</mgrwt>
</event>
<event>
12    1  0.1029207E-001  0.2022931E+03  0.7546771E-02  0.1149970E+00
         21   -1    0    0  501  502  0.00000000000E+00  0.00000000000E+00  0.71597664934E+02  0.71597664934E+02  0.00000000000E+00 0.  1.
         21   -1    0    0  502  503 -0.00000000000E+00 -0.00000000000E+00 -0.57622927674E+03  0.57622927674E+03  0.00000000000E+00 0. -1.
         -6    2    1    2    0  503 -0.16796889701E+02 -0.92093477357E+02 -0.33562255566E+03  0.39187368045E+03  0.17932968938E+03 0.  0.
        -24    2    3    3    0    0 -0.79231343509E+02 -0.72641345703E+02 -0.19470054246E+03  0.23644668713E+03  0.80276794429E+02 0.  0.
          6    2    1    2  501    0  0.16796889701E+02  0.92093477357E+02 -0.16900905615E+03  0.25595326122E+03  0.16788289607E+03 0.  0.
         24    2    5    5    0    0  0.71244705308E+01  0.41042835198E+02 -0.18131217779E+03  0.20235120381E+03  0.79602961414E+02 0.  0.
          5    1    5    5  501    0  0.96724191700E+01  0.51050642159E+02  0.12303121635E+02  0.53602057418E+02  0.47000000000E+01 0. -1.
        -11    1    6    6    0    0 -0.18231591028E+02  0.56967438411E+02 -0.12499233889E+03  0.13856682407E+03  0.00000000000E+00 0.  1.
         12    1    6    6    0    0  0.25356061559E+02 -0.15924603213E+02 -0.56319838898E+02  0.63784379739E+02  0.00000000000E+00 0. -1.
         -5    1    3    3    0  503  0.62434453808E+02 -0.19452131654E+02 -0.14092201320E+03  0.15542699332E+03  0.47000000000E+01 0.  1.
         13    1    4    4    0    0 -0.16939043749E+02  0.13053187343E+02 -0.10201024140E+02  0.23693412512E+02  0.00000000000E+00 0. -1.
        -14    1    4    4    0    0 -0.62292299759E+02 -0.85694533046E+02 -0.18449951832E+03  0.21275327462E+03  0.00000000000E+00 0.  1.
<mgrwt>
<rscale>  2 0.19972601E+03</rscale>
<asrwt>0</asrwt>
<pdfrwt beam="1">  1       21 0.11015026E-01 0.20229306E+03</pdfrwt>
<pdfrwt beam="2">  1       21 0.88650654E-01 0.20229306E+03</pdfrwt>
<totfact> 0.74048334E+04</totfact>
</mgrwt>
</event>
<event>
12    1  0.1029207E-001  0.1827093E+03  0.7546771E-02  0.1165617E+00
         21   -1    0    0  503  502  0.00000000000E+00  0.00000000000E+00  0.45562579042E+02  0.45562579042E+02  0.00000000000E+00 0. -1.
         21   -1    0    0  501  503 -0.00000000000E+00 -0.00000000000E+00 -0.17608691199E+04  0.17608691199E+04  0.00000000000E+00 0. -1.
          6    2    1    2  501    0  0.52820029033E+02 -0.19277050232E+02 -0.15484689710E+04  0.15590100853E+04  0.17203119356E+03 0.  0.
         24    2    3    3    0    0 -0.18500812991E+02  0.20875991888E+02 -0.10891130448E+04  0.10923958053E+04  0.79895456468E+02 0.  0.
         -6    2    1    2    0  502 -0.52820029033E+02  0.19277050232E+02 -0.16683756985E+03  0.24742161371E+03  0.17384222756E+03 0.  0.
        -24    2    5    5    0    0 -0.31371454902E+01 -0.27295789060E+02 -0.64664549192E+02  0.12454429917E+03  0.10283421975E+03 0.  0.
          5    1    3    3  501    0  0.71320842024E+02 -0.40153042120E+02 -0.45935592628E+03  0.46661428001E+03  0.47000000000E+01 0. -1.
        -13    1    4    4    0    0 -0.29611826043E+01 -0.85139333389E+01 -0.92009596949E+03  0.92014012451E+03  0.00000000000E+00 0.  1.
         14    1    4    4    0    0 -0.15539630387E+02  0.29389925227E+02 -0.16901707527E+03  0.17225568074E+03  0.00000000000E+00 0. -1.
         -5    1    5    5    0  502 -0.49682883542E+02  0.46572839291E+02 -0.10217302066E+03  0.12287731454E+03  0.47000000000E+01 0.  1.
         11    1    6    6    0    0 -0.49777169389E+02 -0.31715792926E+02 -0.42403456173E+02  0.72675382413E+02  0.00000000000E+00 0. -1.
        -12    1    6    6    0    0  0.46640023899E+02  0.44200038669E+01 -0.22261093019E+02  0.51868916760E+02  0.00000000000E+00 0.  1.
<mgrwt>
<rscale>  2 0.18227718E+03</rscale>
<asrwt>0</asrwt>
<pdfrwt beam="1">  1       21 0.70096269E-02 0.18270928E+03</pdfrwt>
<pdfrwt beam="2">  1       21 0.27090297E+00 0.18270928E+03</pdfrwt>
<totfact> 0.76599294E+03</totfact>
</mgrwt>
</event>
<event>
12    1  0.1029207E-001  0.2564352E+03  0.7546771E-02  0.1109308E+00
         21   -1    0    0  501  502  0.00000000000E+00  0.00000000000E+00  0.22639376747E+03  0.22639376747E+03  0.00000000000E+00 0. -1.
         21   -1    0    0  502  503 -0.00000000000E+00 -0.00000000000E+00 -0.55031491786E+03  0.55031491786E+03  0.00000000000E+00 0. -1.
         -6    2    1    2    0  503  0.25022834984E+02 -0.18852019464E+03 -0.42883312501E+03  0.49964277990E+03  0.17198561668E+03 0.  0.
        -24    2    3    3    0    0  0.62425138823E+01 -0.21013954952E+03 -0.35379090666E+03  0.41918458268E+03  0.79687574083E+02 0.  0.
          6    2    1    2  501    0 -0.25022834984E+02  0.18852019464E+03  0.10491197462E+03  0.27706590542E+03  0.17202612438E+03 0.  0.
         24    2    5    5    0    0 -0.94729774512E+01  0.18861165949E+03  0.13279716377E+03  0.24479393292E+03  0.81393411846E+02 0.  0.
          5    1    5    5  501    0 -0.15549857532E+02 -0.91464846388E-01 -0.27885189153E+02  0.32271972503E+02  0.47000000000E+01 0. -1.
        -13    1    6    6    0    0  0.11790226987E+02  0.17091286845E+03  0.13338622342E+03  0.21712232186E+03  0.00000000000E+00 0.  1.
         14    1    6    6    0    0 -0.21263204438E+02  0.17698791037E+02 -0.58905964377E+00  0.27671611056E+02  0.00000000000E+00 0. -1.
         -5    1    3    3    0  503  0.18780321101E+02  0.21619354884E+02 -0.75042218345E+02  0.80458197223E+02  0.47000000000E+01 0.  1.
         11    1    4    4    0    0  0.65775925930E+01 -0.13700365118E+03 -0.29507080422E+03  0.32539213983E+03  0.00000000000E+00 0. -1.
        -12    1    4    4    0    0 -0.33507871078E+00 -0.73135898342E+02 -0.58720102444E+02  0.93792442846E+02  0.00000000000E+00 0.  1.
<mgrwt>
<rscale>  2 0.25642837E+03</rscale>
<asrwt>0</asrwt>
<pdfrwt beam="1">  1       21 0.34829810E-01 0.25643516E+03</pdfrwt>
<pdfrwt beam="2">  1       21 0.84663833E-01 0.25643516E+03</pdfrwt>
<totfact> 0.92297943E+03</totfact>
</mgrwt>
</event>
<event>
12    1  0.1029207E-001  0.1978041E+03  0.7546771E-02  0.1152218E+00
         21   -1    0    0  501  502  0.00000000000E+00  0.00000000000E+00  0.75110855621E+03  0.75110855621E+03  0.00000000000E+00 0.  1.
         21   -1    0    0  502  503 -0.00000000000E+00 -0.00000000000E+00 -0.53723284417E+02  0.53723284417E+02  0.00000000000E+00 0. -1.
         -6    2    1    2    0  503 -0.25341330989E+02  0.89000084857E+02  0.26644139638E+03  0.33183955832E+03  0.17482355849E+03 0.  0.
        -24    2    3    3    0    0 -0.40250972314E+02 -0.14046624695E+02  0.95757816150E+02  0.13184981780E+03  0.79983539952E+02 0.  0.
          6    2    1    2  501    0  0.25341330989E+02 -0.89000084857E+02  0.43094387541E+03  0.47299228230E+03  0.17159801048E+03 0.  0.
         24    2    5    5    0    0  0.44162918481E+02 -0.92912444076E+02  0.43403633048E+03  0.45296200550E+03  0.78765199244E+02 0.  0.
          5    1    5    5  501    0 -0.18821587492E+02  0.39123592199E+01 -0.30924550725E+01  0.20030276802E+02  0.47000000000E+01 0. -1.
        -11    1    6    6    0    0  0.34610136096E+02 -0.71873061602E+02  0.16857555701E+03  0.18649749844E+03  0.00000000000E+00 0.  1.
         12    1    6    6    0    0  0.95527823852E+01 -0.21039382475E+02  0.26546077348E+03  0.26646450706E+03  0.00000000000E+00 0. -1.
         -5    1    3    3    0  503  0.14909641325E+02  0.10304670955E+03  0.17068358023E+03  0.19998974052E+03  0.47000000000E+01 0.  1.
         13    1    4    4    0    0  0.24983343194E+01 -0.40105798329E+02  0.36637003441E+02  0.54378182713E+02  0.00000000000E+00 0. -1.
        -14    1    4    4    0    0 -0.42749306633E+02  0.26059173635E+02  0.59120812709E+02  0.77471635090E+02  0.00000000000E+00 0.  1.
<mgrwt>
<rscale>  2 0.19708902E+03</rscale>
<asrwt>0</asrwt>
<pdfrwt beam="1">  1       21 0.11555515E+00 0.19780413E+03</pdfrwt>
<pdfrwt beam="2">  1       21 0.82651212E-02 0.19780413E+03</pdfrwt>
<totfact> 0.65523774E+04</totfact>
</mgrwt>
</event>
<event>
12    1  0.1029207E-001  0.2784294E+03  0.7546771E-02  0.1096645E+00
         21   -1    0    0  501  502  0.00000000000E+00  0.00000000000E+00  0.11364418067E+03  0.11364418067E+03  0.00000000000E+00 0.  1.
         21   -1    0    0  502  503 -0.00000000000E+00 -0.00000000000E+00 -0.74336409443E+03  0.74336409443E+03  0.00000000000E+00 0.  1.
         -6    2    1    2    0  503 -0.19808803365E+03  0.91778020827E+02 -0.43986321497E+03  0.52057906259E+03  0.17280288869E+03 0.  0.
        -24    2    3    3    0    0 -0.27230566574E+02  0.52893045096E+02 -0.13676151174E+03  0.17044045019E+03  0.82504896774E+02 0.  0.
          6    2    1    2  501    0  0.19808803365E+03 -0.91778020827E+02 -0.18985669880E+03  0.33642921251E+03  0.17168859825E+03 0.  0.
         24    2    5    5    0    0  0.15953058587E+03 -0.11898807727E+03 -0.18546801466E+03  0.28880133727E+03  0.96951831284E+02 0.  0.
          5    1    5    5  501    0  0.38557447781E+02  0.27210056443E+02 -0.43886841370E+01  0.47627875235E+02  0.47000000000E+01 0. -1.
        -13    1    6    6    0    0  0.92647164114E+02 -0.10836639216E+02 -0.65488481360E+02  0.11397223767E+03  0.00000000000E+00 0.  1.
         14    1    6    6    0    0  0.66883421756E+02 -0.10815143805E+03 -0.11997953330E+03  0.17482909961E+03  0.00000000000E+00 0. -1.
         -5    1    3    3    0  503 -0.17085746708E+03  0.38884975731E+02 -0.30310170323E+03  0.35013861240E+03  0.47000000000E+01 0.  1.
         11    1    4    4    0    0 -0.16585475624E+01  0.85827824991E+01 -0.11418754065E+03  0.11452165462E+03  0.00000000000E+00 0. -1.
        -12    1    4    4    0    0 -0.25572019011E+02  0.44310262597E+02 -0.22573971087E+02  0.55918795573E+02  0.00000000000E+00 0.  1.
<mgrwt>
<rscale>  2 0.27825666E+03</rscale>
<asrwt>0</asrwt>
<pdfrwt beam="1">  1       21 0.17483719E-01 0.27842937E+03</pdfrwt>
<pdfrwt beam="2">  1       21 0.11436371E+00 0.27842937E+03</pdfrwt>
<totfact> 0.16779716E+04</totfact>
</mgrwt>
</event>
<event>
12    1  0.1029207E-001  0.1933188E+03  0.7546771E-02  0.1156859E+00
         21   -1    0    0  501  502  0.00000000000E+00  0.00000000000E+00  0.55499990347E+03  0.55499990347E+03  0.00000000000E+00 0. -1.
         21   -1    0    0  502  503 -0.00000000000E+00 -0.00000000000E+00 -0.21658708427E+03  0.21658708427E+03  0.00000000000E+00 0. -1.
         -6    2    1    2    0  503 -0.69877458811E+02  0.47662406603E+02 -0.15408397855E+03  0.24250736743E+03  0.16707299769E+03 0.  0.
        -24    2    3    3    0    0 -0.34596265710E+02  0.13965177680E+02 -0.16797009913E+03  0.19156445655E+03  0.84208426089E+02 0.  0.
          6    2    1    2  501    0  0.69877458811E+02 -0.47662406603E+02  0.49249679775E+03  0.52907962032E+03  0.17383205857E+03 0.  0.
         24    2    5    5    0    0  0.99697084056E+02 -0.79004033732E+02  0.40295399626E+03  0.42952304877E+03  0.77051803370E+02 0.  0.
          5    1    5    5  501    0 -0.29819625244E+02  0.31341627129E+02  0.89542801488E+02  0.99556571552E+02  0.47000000000E+01 0. -1.
        -13    1    6    6    0    0  0.35110458508E+01 -0.34038233721E+02  0.47448310396E+02  0.58500179122E+02  0.00000000000E+00 0.  1.
         14    1    6    6    0    0  0.96186038205E+02 -0.44965800011E+02  0.35550568587E+03  0.37102286964E+03  0.00000000000E+00 0. -1.
         -5    1    3    3    0  503 -0.35281193101E+02  0.33697228923E+02  0.13886120578E+02  0.50942910875E+02  0.47000000000E+01 0.  1.
         11    1    4    4    0    0 -0.52243092331E+02 -0.95832821890E+01 -0.62275963273E+02  0.81850324345E+02  0.00000000000E+00 0. -1.
        -12    1    4    4    0    0  0.17646826620E+02  0.23548459869E+02 -0.10569413585E+03  0.10971413221E+03  0.00000000000E+00 0.  1.
<mgrwt>
<rscale>  2 0.19178707E+03</rscale>
<asrwt>0</asrwt>
<pdfrwt beam="1">  1       21 0.85384600E-01 0.19331878E+03</pdfrwt>
<pdfrwt beam="2">  1       21 0.33321090E-01 0.19331878E+03</pdfrwt>
<totfact> 0.10282040E+04</totfact>
</mgrwt>
</event>
<event>
12    1  0.1029207E-001  0.2115050E+03  0.7546771E-02  0.1142109E+00
         21   -1    0    0  503  502  0.00000000000E+00  0.00000000000E+00  0.68014454073E+03  0.68014454073E+03  0.00000000000E+00 0.  1.
         21   -1    0    0  501  503 -0.00000000000E+00 -0.00000000000E+00 -0.11212759422E+03  0.11212759422E+03  0.00000000000E+00 0.  1.
          6    2    1    2  501    0 -0.95314633149E+02  0.65688862985E+02  0.18818818432E+02  0.20375455202E+03  0.16661891708E+03 0.  0.
         24    2    3    3    0    0 -0.90244592525E+02  0.75179001347E+02  0.64343330395E+02  0.15674030708E+03  0.81433966950E+02 0.  0.
         -6    2    1    2    0  502  0.95314633149E+02 -0.65688862985E+02  0.54919812807E+03  0.58851758293E+03  0.17701541043E+03 0.  0.
        -24    2    5    5    0    0  0.11500178156E+02 -0.73756379001E+02  0.39112624357E+03  0.40935631940E+03  0.94976840766E+02 0.  0.
          5    1    3    3  501    0 -0.50700406244E+01 -0.94901383616E+01 -0.45524511963E+02  0.47014244942E+02  0.47000000000E+01 0. -1.
        -13    1    4    4    0    0 -0.42452509519E+02  0.25098771739E+02 -0.14899880470E+02  0.51518640755E+02  0.00000000000E+00 0.  1.
         14    1    4    4    0    0 -0.47792083006E+02  0.50080229608E+02  0.79243210865E+02  0.10522166632E+03  0.00000000000E+00 0. -1.
         -5    1    5    5    0  502  0.83814454993E+02  0.80675160153E+01  0.15807188450E+03  0.17916126353E+03  0.47000000000E+01 0.  1.
         11    1    6    6    0    0  0.54701788947E+01 -0.55863627486E+02  0.80390450789E+02  0.98047398289E+02  0.00000000000E+00 0. -1.
        -12    1    6    6    0    0  0.60299992617E+01 -0.17892751514E+02  0.31073579278E+03  0.31130892111E+03  0.00000000000E+00 0.  1.
<mgrwt>
<rscale>  2 0.20931590E+03</rscale>
<asrwt>0</asrwt>
<pdfrwt beam="1">  1       21 0.10463762E+00 0.21150499E+03</pdfrwt>
<pdfrwt beam="2">  1       21 0.17250399E-01 0.21150499E+03</pdfrwt>
<totfact> 0.22118903E+04</totfact>
</mgrwt>
</event>
<event>
12    1  0.1029207E-001  0.2146546E+03  0.7546771E-02  0.1138334E+00
         21   -1    0    0  501  502  0.00000000000E+00  0.00000000000E+00  0.37052571018E+04  0.37052571018E+04  0.00000000000E+00 0.  1.
         21   -1    0    0  502  503 -0.00000000000E+00 -0.00000000000E+00 -0.13022432310E+02  0.13022432310E+02  0.00000000000E+00 0.  1.
         -6    2    1    2    0  503 -0.22073741033E+02 -0.12407167097E+03  0.14214211877E+04  0.14375377596E+04  0.17376877690E+03 0.  0.
        -24    2    3    3    0    0  0.54065984899E+02 -0.53407972205E+02  0.71316599743E+03  0.72168992609E+03  0.80343433497E+02 0.  0.
          6    2    1    2  501    0  0.22073741033E+02  0.12407167097E+03  0.22708134818E+04  0.22807417745E+04  0.17119621309E+03 0.  0.
         24    2    5    5    0    0  0.15815910535E+02  0.14916960892E+03  0.21678356232E+04  0.21744610317E+04  0.79169274169E+02 0.  0.
          5    1    5    5  501    0  0.62578304984E+01 -0.25097937946E+02  0.10297785860E+03  0.10628074281E+03  0.47000000000E+01 0. -1.
        -11    1    6    6    0    0  0.41758641841E+02  0.10621232665E+03  0.17296678168E+04  0.17334288561E+04  0.00000000000E+00 0.  1.
         12    1    6    6    0    0 -0.25942731306E+02  0.42957282272E+02  0.43816780635E+03  0.44103217561E+03  0.00000000000E+00 0. -1.
         -5    1    3    3    0  503 -0.76139725932E+02 -0.70663698768E+02  0.70825519029E+03  0.71584783352E+03  0.47000000000E+01 0.  1.
         11    1    4    4    0    0  0.29638279838E+02  0.55673766089E+01  0.44541759956E+03  0.44643729830E+03  0.00000000000E+00 0. -1.
        -12    1    4    4    0    0  0.24427705061E+02 -0.58975348813E+02  0.26774839787E+03  0.27525262778E+03  0.00000000000E+00 0.  1.
<mgrwt>
<rscale>  2 0.21413345E+03</rscale>
<asrwt>0</asrwt>
<pdfrwt beam="1">  1       21 0.57003871E+00 0.21465465E+03</pdfrwt>
<pdfrwt beam="2">  1       21 0.20034541E-02 0.21465465E+03</pdfrwt>
<totfact> 0.68953476E+02</totfact>
</mgrwt>
</event>
<event>
12    1  0.1029207E-001  0.2783062E+03  0.7546771E-02  0.1096914E+00
         21   -1    0    0  501  502  0.00000000000E+00  0.00000000000E+00  0.91172819699E+02  0.91172819699E+02  0.00000000000E+00 0.  1.
         21   -1    0    0  502  503 -0.00000000000E+00 -0.00000000000E+00 -0.94231195753E+03  0.94231195753E+03  0.00000000000E+00 0. -1.
         -6    2    1    2    0  503  0.19985590927E+03  0.80753821711E+02 -0.59185206713E+03  0.65311112483E+03  0.17263171152E+03 0.  0.
        -24    2    3    3    0    0  0.53080235833E+02 -0.12334108633E+02 -0.14994892777E+03  0.17823331353E+03  0.79453076978E+02 0.  0.
          6    2    1    2  501    0 -0.19985590927E+03 -0.80753821711E+02 -0.25928707070E+03  0.38037365240E+03  0.17604194448E+03 0.  0.
         24    2    5    5    0    0 -0.15735525454E+03 -0.49685240839E+02 -0.26989369728E+03  0.32646490638E+03  0.80668630681E+02 0.  0.
          5    1    5    5  501    0 -0.42500654731E+02 -0.31068580872E+02  0.10606626582E+02  0.53908746019E+02  0.47000000000E+01 0. -1.
        -11    1    6    6    0    0 -0.11201032980E+02  0.19079121388E+02 -0.34427415031E+02  0.40923378630E+02  0.00000000000E+00 0.  1.
         12    1    6    6    0    0 -0.14615422156E+03 -0.68764362227E+02 -0.23546628225E+03  0.28554152775E+03  0.00000000000E+00 0. -1.
         -5    1    3    3    0  503  0.14677567344E+03  0.93087930344E+02 -0.44190313936E+03  0.47487781130E+03  0.47000000000E+01 0.  1.
         11    1    4    4    0    0  0.35415506763E+02  0.11663505022E+02 -0.14280260065E+03  0.14759023755E+03  0.00000000000E+00 0. -1.
        -12    1    4    4    0    0  0.17664729070E+02 -0.23997613655E+02 -0.71463271226E+01  0.30643075981E+02  0.00000000000E+00 0.  1.
<mgrwt>
<rscale>  2 0.27776850E+03</rscale>
<asrwt>0</asrwt>
<pdfrwt beam="1">  1       21 0.14026587E-01 0.27830618E+03</pdfrwt>
<pdfrwt beam="2">  1       21 0.14497107E+00 0.27830618E+03</pdfrwt>
<totfact> 0.13747811E+04</totfact>
</mgrwt>
</event>
<event>
12    1  0.1029207E-001  0.1968144E+03  0.7546771E-02  0.1152574E+00
         21   -1    0    0  501  502  0.00000000000E+00  0.00000000000E+00  0.35024145334E+03  0.35024145334E+03  0.00000000000E+00 0. -1.
         21   -1    0    0  502  503 -0.00000000000E+00 -0.00000000000E+00 -0.11029121645E+03  0.11029121645E+03  0.00000000000E+00 0.  1.
         -6    2    1    2    0  503 -0.87466677662E+02 -0.27667198648E+02  0.12153589974E+03  0.23131555987E+03  0.17412644753E+03 0.  0.
        -24    2    3    3    0    0 -0.10612667555E+03 -0.68933137482E+02  0.86922647456E+02  0.17412080082E+03  0.82145346384E+02 0.  0.
          6    2    1    2  501    0  0.87466677662E+02  0.27667198648E+02  0.11841433715E+03  0.22921710991E+03  0.17350110850E+03 0.  0.
         24    2    5    5    0    0  0.95241380124E+02  0.50894846204E+02  0.14108611701E+03  0.19551148410E+03  0.81598052312E+02 0.  0.
          5    1    5    5  501    0 -0.77747024618E+01 -0.23227647556E+02 -0.22671779863E+02  0.33705625814E+02  0.47000000000E+01 0. -1.
        -11    1    6    6    0    0 -0.95966846438E+01 -0.60055465087E+01  0.77294738338E+00  0.11347263665E+02  0.00000000000E+00 0.  1.
         12    1    6    6    0    0  0.10483806477E+03  0.56900392713E+02  0.14031316963E+03  0.18416422043E+03  0.00000000000E+00 0. -1.
         -5    1    3    3    0  503  0.18659997886E+02  0.41265938834E+02  0.34613252284E+02  0.57194759049E+02  0.47000000000E+01 0.  1.
         11    1    4    4    0    0 -0.73170987123E+02 -0.59504575601E+02  0.99976670449E+02  0.13744134206E+03  0.00000000000E+00 0. -1.
        -12    1    4    4    0    0 -0.32955688425E+02 -0.94285618810E+01 -0.13054022992E+02  0.36679458760E+02  0.00000000000E+00 0.  1.
<mgrwt>
<rscale>  2 0.19667601E+03</rscale>
<asrwt>0</asrwt>
<pdfrwt beam="1">  1       21 0.53883300E-01 0.19681441E+03</pdfrwt>
<pdfrwt beam="2">  1       21 0.16967880E-01 0.19681441E+03</pdfrwt>
<totfact> 0.10180319E+05</totfact>
</mgrwt>
</event>
<event>
12    1  0.1029207E-001  0.2439716E+03  0.7546771E-02  0.1117671E+00
         21   -1    0    0  503  502  0.00000000000E+00  0.00000000000E+00  0.18702269898E+04  0.18702269898E+04  0.00000000000E+00 0. -1.
         21   -1    0    0  501  503 -0.00000000000E+00 -0.00000000000E+00 -0.34270955928E+02  0.34270955928E+02  0.00000000000E+00 0.  1.
          6    2    1    2  501    0  0.13021685386E+03  0.10862157167E+03  0.64920603866E+03  0.69353488844E+03  0.17540549016E+03 0.  0.
         24    2    3    3    0    0  0.81136018359E+01  0.91081357620E+02  0.31875301904E+03  0.34077696657E+03  0.78509932832E+02 0.  0.
         -6    2    1    2    0  502 -0.13021685386E+03 -0.10862157167E+03  0.11867499952E+04  0.12109630573E+04  0.17117505699E+03 0.  0.
        -24    2    5    5    0    0 -0.59985372579E+02  0.33411299923E+01  0.67965391603E+03  0.68690520644E+03  0.79371965953E+02 0.  0.
          5    1    3    3  501    0  0.12210325203E+03  0.17540214050E+02  0.33045301962E+03  0.35275792187E+03  0.47000000000E+01 0. -1.
        -13    1    4    4    0    0 -0.20976417358E+02  0.42369510976E+02  0.62776498352E+02  0.78588003480E+02  0.00000000000E+00 0.  1.
         14    1    4    4    0    0  0.29090019194E+02  0.48711846644E+02  0.25597652069E+03  0.26218896309E+03  0.00000000000E+00 0. -1.
         -5    1    5    5    0  502 -0.70231481283E+02 -0.11196270166E+03  0.50709607917E+03  0.52405785085E+03  0.47000000000E+01 0.  1.
         11    1    6    6    0    0 -0.82388960854E+00  0.14875975604E+02  0.42323561105E+03  0.42349776375E+03  0.00000000000E+00 0. -1.
        -12    1    6    6    0    0 -0.59161482971E+02 -0.11534845612E+02  0.25641830499E+03  0.26340744269E+03  0.00000000000E+00 0.  1.
<mgrwt>
<rscale>  2 0.24321221E+03</rscale>
<asrwt>0</asrwt>
<pdfrwt beam="1">  1       21 0.28772715E+00 0.24397164E+03</pdfrwt>
<pdfrwt beam="2">  1       21 0.52724562E-02 0.24397164E+03</pdfrwt>
<totfact> 0.94043953E+03</totfact>
</mgrwt>
</event>
<event>
12    1  0.1029207E-001  0.1943515E+03  0.7546771E-02  0.1154794E+00
         21   -1    0    0  503  502  0.00000000000E+00  0.00000000000E+00  0.59371584248E+03  0.59371584248E+03  0.00000000000E+00 0.  1.
         21   -1    0    0  501  503 -0.00000000000E+00 -0.00000000000E+00 -0.22010165397E+03  0.22010165397E+03  0.00000000000E+00 0.  1.
          6    2    1    2  501    0 -0.11312177430E+01 -0.88301498966E+02 -0.15674252918E+03  0.24897171180E+03  0.17210537020E+03 0.  0.
         24    2    3    3    0    0  0.35249720528E+02  0.40748915017E+01 -0.39581378442E+02  0.95329935496E+02  0.79132569428E+02 0.  0.
         -6    2    1    2    0  502  0.11312177430E+01  0.88301498966E+02  0.53035671768E+03  0.56484578465E+03  0.17313023443E+03 0.  0.
        -24    2    5    5    0    0 -0.43945775514E+02  0.48053830727E+02  0.17292996599E+03  0.20231608525E+03  0.82380964924E+02 0.  0.
          5    1    3    3  501    0 -0.36380938271E+02 -0.92376390468E+02 -0.11716115073E+03  0.15364177631E+03  0.47000000000E+01 0. -1.
        -13    1    4    4    0    0  0.71823355037E+01 -0.28752884036E+01 -0.59639287400E+02  0.60138987589E+02  0.00000000000E+00 0.  1.
         14    1    4    4    0    0  0.28067385024E+02  0.69501799052E+01  0.20057908958E+02  0.35190947907E+02  0.00000000000E+00 0. -1.
         -5    1    5    5    0  502  0.45076993257E+02  0.40247668239E+02  0.35742675169E+03  0.36252969940E+03  0.47000000000E+01 0.  1.
         13    1    6    6    0    0 -0.43014216942E+02  0.70412765643E+02  0.13987949393E+03  0.16240213436E+03  0.00000000000E+00 0. -1.
        -14    1    6    6    0    0 -0.93155857173E+00 -0.22358934917E+02  0.33050472058E+02  0.39913950885E+02  0.00000000000E+00 0.  1.
<mgrwt>
<rscale>  2 0.19412302E+03</rscale>
<asrwt>0</asrwt>
<pdfrwt beam="1">  1       21 0.91340899E-01 0.19435152E+03</pdfrwt>
<pdfrwt beam="2">  1       21 0.33861793E-01 0.19435152E+03</pdfrwt>
<totfact> 0.85194703E+03</totfact>
</mgrwt>
</event>
<event>
12    1  0.1029207E-001  0.2218350E+03  0.7546771E-02  0.1132726E+00
         21   -1    0    0  503  502  0.00000000000E+00  0.00000000000E+00  0.36479298445E+02  0.36479298445E+02  0.00000000000E+00 0.  1.
         21   -1    0    0  501  503 -0.00000000000E+00 -0.00000000000E+00 -0.16893359896E+04  0.16893359896E+04  0.00000000000E+00 0.  1.
          6    2    1    2  501    0 -0.13583538472E+03  0.23896289769E+02 -0.43697108581E+03  0.49005561558E+03  0.17374835862E+03 0.  0.
         24    2    3    3    0    0 -0.10843226891E+03  0.46794086821E+02 -0.18050911303E+03  0.23107671036E+03  0.82859294480E+02 0.  0.
         -6    2    1    2    0  502  0.13583538472E+03 -0.23896289769E+02 -0.12158856054E+04  0.12357596725E+04  0.17234232910E+03 0.  0.
        -24    2    5    5    0    0  0.75058356579E+02 -0.81303124561E+02 -0.78491962791E+03  0.79673443910E+03  0.80268232846E+02 0.  0.
          5    1    3    3  501    0 -0.27403115805E+02 -0.22897797052E+02 -0.25646197279E+03  0.25897890522E+03  0.47000000000E+01 0. -1.
        -13    1    4    4    0    0 -0.10360654534E+03  0.12919703203E+02 -0.16040189814E+03  0.19138966507E+03  0.00000000000E+00 0.  1.
         14    1    4    4    0    0 -0.48257235735E+01  0.33874383618E+02 -0.20107214889E+02  0.39687045293E+02  0.00000000000E+00 0. -1.
         -5    1    5    5    0  502  0.60777028138E+02  0.57406834792E+02 -0.43096597747E+03  0.43902523341E+03  0.47000000000E+01 0.  1.
         13    1    6    6    0    0  0.64026765477E+02 -0.74020042277E+02 -0.40766578644E+03  0.41924907488E+03  0.00000000000E+00 0. -1.
        -14    1    6    6    0    0  0.11031591102E+02 -0.72830822840E+01 -0.37725384148E+03  0.37748536422E+03  0.00000000000E+00 0.  1.
<mgrwt>
<rscale>  2 0.22155963E+03</rscale>
<asrwt>0</asrwt>
<pdfrwt beam="1">  1       21 0.56121999E-02 0.22183502E+03</pdfrwt>
<pdfrwt beam="2">  1       21 0.25989784E+00 0.22183502E+03</pdfrwt>
<totfact> 0.12525629E+04</totfact>
</mgrwt>
</event>
<event>
12    1  0.1029207E-001  0.1809999E+03  0.7546771E-02  0.1167160E+00
         21   -1    0    0  503  502  0.00000000000E+00  0.00000000000E+00  0.13750083737E+03  0.13750083737E+03  0.00000000000E+00 0. -1.
         21   -1    0    0  501  503 -0.00000000000E+00 -0.00000000000E+00 -0.28053068629E+03  0.28053068629E+03  0.00000000000E+00 0. -1.
          6    2    1    2  501    0 -0.37679298686E+02  0.21030811314E+02 -0.15408837534E+03  0.23669412787E+03  0.17441002890E+03 0.  0.
         24    2    3    3    0    0 -0.81553668887E+02 -0.19907798382E+02 -0.80305277127E+02  0.14147351190E+03  0.80737201397E+02 0.  0.
         -6    2    1    2    0  502  0.37679298686E+02 -0.21030811314E+02  0.11058526428E+02  0.18133739578E+03  0.17578093050E+03 0.  0.
        -24    2    5    5    0    0  0.80197966649E+02  0.23437947151E+02 -0.11592841862E+02  0.11560702160E+03  0.79054021017E+02 0.  0.
          5    1    3    3  501    0  0.43874370201E+02  0.40938609696E+02 -0.73783098216E+02  0.95220615975E+02  0.47000000000E+01 0. -1.
        -11    1    4    4    0    0 -0.55493463908E+02  0.22497789407E+02 -0.19675191498E+02  0.63030058109E+02  0.00000000000E+00 0.  1.
         12    1    4    4    0    0 -0.26060204979E+02 -0.42405587789E+02 -0.60630085629E+02  0.78443453791E+02  0.00000000000E+00 0. -1.
         -5    1    5    5    0  502 -0.42518667963E+02 -0.44468758465E+02  0.22651368290E+02  0.65730374182E+02  0.47000000000E+01 0.  1.
         13    1    6    6    0    0  0.85304987861E+02 -0.45065045498E+00  0.59786490765E+01  0.85515427173E+02  0.00000000000E+00 0. -1.
        -14    1    6    6    0    0 -0.51070212118E+01  0.23888597606E+02 -0.17571490939E+02  0.30091594425E+02  0.00000000000E+00 0.  1.
<mgrwt>
<rscale>  2 0.18066620E+03</rscale>
<asrwt>0</asrwt>
<pdfrwt beam="1">  1       21 0.21153975E-01 0.18099989E+03</pdfrwt>
<pdfrwt beam="2">  1       21 0.43158567E-01 0.18099989E+03</pdfrwt>
<totfact> 0.10772892E+05</totfact>
</mgrwt>
</event>
<event>
12    1  0.1029207E-001  0.1948319E+03  0.7546771E-02  0.1155238E+00
         21   -1    0    0  503  502  0.00000000000E+00  0.00000000000E+00  0.23433487846E+03  0.23433487846E+03  0.00000000000E+00 0.  1.
         21   -1    0    0  501  503 -0.00000000000E+00 -0.00000000000E+00 -0.27799788477E+03  0.27799788477E+03  0.00000000000E+00 0.  1.
          6    2    1    2  501    0  0.79824946250E+02  0.23785771816E+02 -0.18996224349E+03  0.26868769885E+03  0.17079121926E+03 0.  0.
         24    2    3    3    0    0  0.51754374358E+02  0.72141236687E+02 -0.17237463581E+03  0.20988615182E+03  0.80351156546E+02 0.  0.
         -6    2    1    2    0  502 -0.79824946250E+02 -0.23785771816E+02  0.14629923718E+03  0.24364506438E+03  0.17612968407E+03 0.  0.
        -24    2    5    5    0    0  0.17333076351E+02  0.16510649728E+02  0.95412824391E+02  0.12670490895E+03  0.79859187347E+02 0.  0.
          5    1    3    3  501    0  0.28070571893E+02 -0.48355464871E+02 -0.17587607679E+02  0.58801547030E+02  0.47000000000E+01 0. -1.
        -11    1    4    4    0    0  0.63314980968E+02  0.24159383073E+02 -0.77561768677E+02  0.10299655609E+03  0.00000000000E+00 0.  1.
         12    1    4    4    0    0 -0.11560606611E+02  0.47981853614E+02 -0.94812867136E+02  0.10688959573E+03  0.00000000000E+00 0. -1.
         -5    1    5    5    0  502 -0.97158022601E+02 -0.40296421544E+02  0.50886412787E+02  0.11694015543E+03  0.47000000000E+01 0.  1.
         13    1    6    6    0    0 -0.17564788401E+02  0.38363788833E+02  0.48550057105E+02  0.64322703069E+02  0.00000000000E+00 0. -1.
        -14    1    6    6    0    0  0.34897864752E+02 -0.21853139105E+02  0.46862767286E+02  0.62382205882E+02  0.00000000000E+00 0.  1.
<mgrwt>
<rscale>  2 0.19361747E+03</rscale>
<asrwt>0</asrwt>
<pdfrwt beam="1">  1       21 0.36051520E-01 0.19483185E+03</pdfrwt>
<pdfrwt beam="2">  1       21 0.42768905E-01 0.19483185E+03</pdfrwt>
<totfact> 0.38972187E+04</totfact>
</mgrwt>
</event>
<event>
12    1  0.1029207E-001  0.1779414E+03  0.7546771E-02  0.1170020E+00
         21   -1    0    0  501  502  0.00000000000E+00  0.00000000000E+00  0.24416037891E+02  0.24416037891E+02  0.00000000000E+00 0.  1.
         21   -1    0    0  502  503 -0.00000000000E+00 -0.00000000000E+00 -0.17059541138E+04  0.17059541138E+04  0.00000000000E+00 0.  1.
         -6    2    1    2    0  503  0.34777587522E+02 -0.16991586365E+02 -0.12661427230E+04  0.12784670268E+04  0.17280725947E+03 0.  0.
        -24    2    3    3    0    0  0.69536453758E+02 -0.42887841272E+01 -0.49348160899E+03  0.50490589340E+03  0.80945356257E+02 0.  0.
          6    2    1    2  501    0 -0.34777587522E+02  0.16991586365E+02 -0.41539535287E+03  0.45190312489E+03  0.17368057029E+03 0.  0.
         24    2    5    5    0    0 -0.80550973522E+02  0.14117513360E+02 -0.19478588836E+03  0.22652768480E+03  0.81764822257E+02 0.  0.
          5    1    5    5  501    0  0.45773386000E+02  0.28740730044E+01 -0.22060946451E+03  0.22537544009E+03  0.47000000000E+01 0. -1.
        -11    1    6    6    0    0 -0.70132922461E+02 -0.25175562134E+02 -0.13562515563E+03  0.15474695015E+03  0.00000000000E+00 0.  1.
         12    1    6    6    0    0 -0.10418051061E+02  0.39293075495E+02 -0.59160732735E+02  0.71780734654E+02  0.00000000000E+00 0. -1.
         -5    1    3    3    0  503 -0.34758866236E+02 -0.12702802238E+02 -0.77266111400E+03  0.77356113337E+03  0.47000000000E+01 0.  1.
         13    1    4    4    0    0 -0.50417585945E+01 -0.24846405533E+02 -0.70777638865E+02  0.75181363123E+02  0.00000000000E+00 0. -1.
        -14    1    4    4    0    0  0.74578212352E+02  0.20557621406E+02 -0.42270397013E+03  0.42972453027E+03  0.00000000000E+00 0.  1.
<mgrwt>
<rscale>  2 0.17772792E+03</rscale>
<asrwt>0</asrwt>
<pdfrwt beam="1">  1       21 0.37563124E-02 0.17794138E+03</pdfrwt>
<pdfrwt beam="2">  1       21 0.26245456E+00 0.17794138E+03</pdfrwt>
<totfact> 0.24806360E+04</totfact>
</mgrwt>
</event>
<event>
12    1  0.1029207E-001  0.1886221E+03  0.7546771E-02  0.1159873E+00
         21   -1    0    0  501  502  0.00000000000E+00  0.00000000000E+00  0.20088336782E+03  0.20088336782E+03  0.00000000000E+00 0.  1.
         21   -1    0    0  502  503 -0.00000000000E+00 -0.00000000000E+00 -0.24490858193E+03  0.24490858193E+03  0.00000000000E+00 0.  1.
         -6    2    1    2    0  503 -0.72058350552E+02 -0.13872559449E+02 -0.13989835749E+03  0.23484003411E+03  0.17376258919E+03 0.  0.
        -24    2    3    3    0    0  0.12032306852E+01 -0.32808025100E+02 -0.15630261779E+02  0.89270597904E+02  0.81529873616E+02 0.  0.
          6    2    1    2  501    0  0.72058350552E+02  0.13872559449E+02  0.95873143375E+02  0.21095191564E+03  0.17298611882E+03 0.  0.
         24    2    5    5    0    0  0.10247356003E+03  0.11226570857E+02  0.11557796663E+03  0.17431237031E+03  0.79997935447E+02 0.  0.
          5    1    5    5  501    0 -0.30415209474E+02  0.26459885923E+01 -0.19704823251E+02  0.36639545334E+02  0.47000000000E+01 0. -1.
        -11    1    6    6    0    0  0.61678829797E+02 -0.67850164207E+01  0.14337608639E+02  0.63685803084E+02  0.00000000000E+00 0.  1.
         12    1    6    6    0    0  0.40794730229E+02  0.18011587278E+02  0.10124035799E+03  0.11062656722E+03  0.00000000000E+00 0. -1.
         -5    1    3    3    0  503 -0.73261581237E+02  0.18935465651E+02 -0.12426809571E+03  0.14556943620E+03  0.47000000000E+01 0.  1.
         13    1    4    4    0    0 -0.10224808555E+02  0.16933510428E+02  0.19131745801E+02  0.27519341976E+02  0.00000000000E+00 0. -1.
        -14    1    4    4    0    0  0.11428039241E+02 -0.49741535529E+02 -0.34762007580E+02  0.61751255928E+02  0.00000000000E+00 0.  1.
<mgrwt>
<rscale>  2 0.18844307E+03</rscale>
<asrwt>0</asrwt>
<pdfrwt beam="1">  1       21 0.30905133E-01 0.18862209E+03</pdfrwt>
<pdfrwt beam="2">  1       21 0.37678243E-01 0.18862209E+03</pdfrwt>
<totfact> 0.68428384E+04</totfact>
</mgrwt>
</event>
<event>
12    1  0.1029207E-001  0.1788314E+03  0.7546771E-02  0.1168975E+00
         21   -1    0    0  503  502  0.00000000000E+00  0.00000000000E+00  0.63824005238E+02  0.63824005238E+02  0.00000000000E+00 0. -1.
         21   -1    0    0  501  503 -0.00000000000E+00 -0.00000000000E+00 -0.53124392649E+03  0.53124392649E+03  0.00000000000E+00 0. -1.
          6    2    1    2  501    0 -0.35917169615E+02  0.19489826198E+02 -0.30500356802E+03  0.35349032382E+03  0.17394923435E+03 0.  0.
         24    2    3    3    0    0 -0.52633051281E+02  0.73928925566E+02 -0.21678776644E+03  0.24838488206E+03  0.80388990747E+02 0.  0.
         -6    2    1    2    0  502  0.35917169615E+02 -0.19489826198E+02 -0.16241635323E+03  0.24157760791E+03  0.17409989215E+03 0.  0.
        -24    2    5    5    0    0  0.22489786431E+02 -0.78672428016E+02 -0.12616965711E+03  0.17073420344E+03  0.80847043389E+02 0.  0.
          5    1    3    3  501    0  0.16715881666E+02 -0.54439099368E+02 -0.88215801577E+02  0.10510544176E+03  0.47000000000E+01 0. -1.
        -13    1    4    4    0    0 -0.86874385983E+01 -0.56065455402E+00  0.52028943553E+01  0.10141796320E+02  0.00000000000E+00 0.  1.
         14    1    4    4    0    0 -0.43945612683E+02  0.74489580121E+02 -0.22199066079E+03  0.23824308574E+03  0.00000000000E+00 0. -1.
         -5    1    5    5    0  502  0.13427383184E+02  0.59182601818E+02 -0.36246696125E+02  0.70843404471E+02  0.47000000000E+01 0.  1.
         13    1    6    6    0    0  0.44890461937E+02 -0.69959608411E+02 -0.11989811947E+03  0.14589400068E+03  0.00000000000E+00 0. -1.
        -14    1    6    6    0    0 -0.22400675505E+02 -0.87128196053E+01 -0.62715376349E+01  0.24840202754E+02  0.00000000000E+00 0.  1.
<mgrwt>
<rscale>  2 0.17879472E+03</rscale>
<asrwt>0</asrwt>
<pdfrwt beam="1">  1       21 0.98190780E-02 0.17883140E+03</pdfrwt>
<pdfrwt beam="2">  1       21 0.81729833E-01 0.17883140E+03</pdfrwt>
<totfact> 0.11039172E+05</totfact>
</mgrwt>
</event>
<event>
11    1  0.1029207E-001  0.1855947E+03  0.7546771E-02  0.1162547E+00
         21   -1    0    0  503  502  0.00000000000E+00  0.00000000000E+00  0.91515119132E+02  0.91515119132E+02  0.00000000000E+00 0.  1.
         21   -1    0    0  501  503 -0.00000000000E+00 -0.00000000000E+00 -0.38454236559E+03  0.38454236559E+03  0.00000000000E+00 0. -1.
          6    2    1    2  501    0 -0.69269312420E+02  0.38700104308E+01 -0.18218392613E+03  0.26006995593E+03  0.17214001398E+03 0.  0.
         -6    2    1    2    0  502  0.69269312420E+02 -0.38700104308E+01 -0.11084332033E+03  0.21598752879E+03  0.17190449764E+03 0.  0.
        -24    2    4    4    0    0  0.11314569835E+03 -0.77982418143E+01 -0.73880087258E+02  0.15829057182E+03  0.82066291517E+02 0.  0.
          5    1    3    3  501    0 -0.13728645492E+02  0.23761869815E+02 -0.19062124673E+03  0.19264384722E+03  0.47000000000E+01 0. -1.
        -13    1    3    3    0    0 -0.57435572608E+02 -0.20560411762E+02  0.23876105584E+01  0.61051422725E+02  0.00000000000E+00 0.  1.
         14    1    3    3    0    0  0.18949056797E+01  0.66855237828E+00  0.60497100451E+01  0.63746859881E+01  0.00000000000E+00 0. -1.
         -5    1    4    4    0  502 -0.43876385934E+02  0.39282313835E+01 -0.36963233067E+02  0.57696956967E+02  0.47000000000E+01 0.  1.
         11    1    5    5    0    0  0.12090960368E+03 -0.22561266614E+02 -0.68382978690E+02  0.14072801706E+03  0.00000000000E+00 0. -1.
        -12    1    5    5    0    0 -0.77639053211E+01  0.14763024800E+02 -0.54971085688E+01  0.17562554760E+02  0.00000000000E+00 0.  1.
<mgrwt>
<rscale>  2 0.18554009E+03</rscale>
<asrwt>0</asrwt>
<pdfrwt beam="1">  1       21 0.14079249E-01 0.18559472E+03</pdfrwt>
<pdfrwt beam="2">  1       21 0.59160363E-01 0.18559472E+03</pdfrwt>
<totfact> 0.11784179E+05</totfact>
</mgrwt>
</event>
<event>
12    1  0.1029207E-001  0.2069179E+03  0.7546771E-02  0.1144256E+00
         21   -1    0    0  501  502  0.00000000000E+00  0.00000000000E+00  0.48940364850E+02  0.48940364850E+02  0.00000000000E+00 0.  1.
         21   -1    0    0  502  503 -0.00000000000E+00 -0.00000000000E+00 -0.87443097595E+03  0.87443097595E+03  0.00000000000E+00 0.  1.
         -6    2    1    2    0  503 -0.10438472230E+03  0.40789197443E+02 -0.38145886843E+03  0.43396528346E+03  0.17393984611E+03 0.  0.
        -24    2    3    3    0    0 -0.10588130640E+02 -0.29063611250E+02 -0.12037978206E+03  0.14785063017E+03  0.80073184662E+02 0.  0.
          6    2    1    2  501    0  0.10438472230E+03 -0.40789197443E+02 -0.44403174267E+03  0.48940605734E+03  0.17260988264E+03 0.  0.
         24    2    5    5    0    0  0.39972580843E+02 -0.54684705663E+02 -0.38997101934E+03  0.40404411663E+03  0.81154346770E+02 0.  0.
          5    1    5    5  501    0  0.64412141460E+02  0.13895508220E+02 -0.54060723323E+02  0.85361940713E+02  0.47000000000E+01 0. -1.
        -13    1    6    6    0    0  0.62538074729E+02 -0.52216163845E+02 -0.27328358025E+03  0.28516916698E+03  0.00000000000E+00 0.  1.
         14    1    6    6    0    0 -0.22565493886E+02 -0.24685418181E+01 -0.11668743909E+03  0.11887494965E+03  0.00000000000E+00 0. -1.
         -5    1    3    3    0  503 -0.93796591663E+02  0.69852808693E+02 -0.26107908637E+03  0.28611465330E+03  0.47000000000E+01 0.  1.
         11    1    4    4    0    0 -0.19317291633E+02 -0.35060417035E+02 -0.12844536027E+03  0.13453847470E+03  0.00000000000E+00 0. -1.
        -12    1    4    4    0    0  0.87291609930E+01  0.59968057853E+01  0.80655782117E+01  0.13312155466E+02  0.00000000000E+00 0.  1.
<mgrwt>
<rscale>  2 0.20663810E+03</rscale>
<asrwt>0</asrwt>
<pdfrwt beam="1">  1       21 0.75292875E-02 0.20691786E+03</pdfrwt>
<pdfrwt beam="2">  1       21 0.13452783E+00 0.20691786E+03</pdfrwt>
<totfact> 0.52443361E+04</totfact>
</mgrwt>
</event>
<event>
12    1  0.1029207E-001  0.2730381E+03  0.7546771E-02  0.1099633E+00
         21   -1    0    0  501  502  0.00000000000E+00  0.00000000000E+00  0.10213980099E+04  0.10213980099E+04  0.00000000000E+00 0.  1.
         21   -1    0    0  502  503 -0.00000000000E+00 -0.00000000000E+00 -0.11691017380E+03  0.11691017380E+03  0.00000000000E+00 0. -1.
         -6    2    1    2    0  503 -0.13135483393E+03 -0.16481712510E+03  0.10249339122E+03  0.29110992972E+03  0.17268850226E+03 0.  0.
        -24    2    3    3    0    0 -0.12200803805E+03 -0.19270845007E+03  0.98457151316E+02  0.26104882803E+03  0.80188352604E+02 0.  0.
          6    2    1    2  501    0  0.13135483393E+03  0.16481712510E+03  0.80199444484E+03  0.84719825394E+03  0.17358287591E+03 0.  0.
         24    2    5    5    0    0  0.42327493875E+02  0.96126182974E+02  0.24051660813E+03  0.27455197226E+03  0.80614433545E+02 0.  0.
          5    1    5    5  501    0  0.89027340053E+02  0.68690942128E+02  0.56147783671E+03  0.57264628168E+03  0.47000000000E+01 0. -1.
        -13    1    6    6    0    0  0.49563132759E+02  0.10547757750E+03  0.23305703922E+03  0.26057169265E+03  0.00000000000E+00 0.  1.
         14    1    6    6    0    0 -0.72356388836E+01 -0.93513945218E+01  0.74595689090E+01  0.13980279606E+02  0.00000000000E+00 0. -1.
         -5    1    3    3    0  503 -0.93467958796E+01  0.27891324972E+02  0.40362398998E+01  0.30061101684E+02  0.47000000000E+01 0.  1.
         13    1    4    4    0    0 -0.29310412853E+02 -0.10046863105E+03  0.14524454317E+02  0.10565985945E+03  0.00000000000E+00 0. -1.
        -14    1    4    4    0    0 -0.92697625196E+02 -0.92239819025E+02  0.83932696998E+02  0.15538896858E+03  0.00000000000E+00 0.  1.
<mgrwt>
<rscale>  2 0.27289604E+03</rscale>
<asrwt>0</asrwt>
<pdfrwt beam="1">  1       21 0.15713815E+00 0.27303808E+03</pdfrwt>
<pdfrwt beam="2">  1       21 0.17986181E-01 0.27303808E+03</pdfrwt>
<totfact> 0.70248032E+03</totfact>
</mgrwt>
</event>
<event>
12    1  0.1029207E-001  0.1947846E+03  0.7546771E-02  0.1154407E+00
         21   -1    0    0  501  502  0.00000000000E+00  0.00000000000E+00  0.38676893629E+02  0.38676893629E+02  0.00000000000E+00 0.  1.
         21   -1    0    0  502  503 -0.00000000000E+00 -0.00000000000E+00 -0.14369246655E+04  0.14369246655E+04  0.00000000000E+00 0.  1.
         -6    2    1    2    0  503  0.61110017687E+02 -0.62227196149E+02 -0.11178089648E+04  0.11346532251E+04  0.17416773846E+03 0.  0.
        -24    2    3    3    0    0 -0.13122188968E+02 -0.58107142851E+01 -0.76178130078E+03  0.76658933456E+03  0.84513320873E+02 0.  0.
          6    2    1    2  501    0 -0.61110017687E+02  0.62227196149E+02 -0.28043880701E+03  0.34094833402E+03  0.17318540294E+03 0.  0.
         24    2    5    5    0    0 -0.95681740715E+02  0.80918265882E+02 -0.18534326004E+03  0.23794438665E+03  0.81010158842E+02 0.  0.
          5    1    5    5  501    0  0.34571723028E+02 -0.18691069734E+02 -0.95095546965E+02  0.10300394737E+03  0.47000000000E+01 0. -1.
        -11    1    6    6    0    0 -0.42470975805E+02 -0.13626348326E+01 -0.22991293290E+02  0.48313974445E+02  0.00000000000E+00 0.  1.
         12    1    6    6    0    0 -0.53210764910E+02  0.82280900715E+02 -0.16235196675E+03  0.18963041221E+03  0.00000000000E+00 0. -1.
         -5    1    3    3    0  503  0.74232206655E+02 -0.56416481864E+02 -0.35602766406E+03  0.36806389052E+03  0.47000000000E+01 0.  1.
         13    1    4    4    0    0 -0.15649304210E+02  0.38361431048E+02 -0.38122758723E+03  0.38347225895E+03  0.00000000000E+00 0. -1.
        -14    1    4    4    0    0  0.25271152424E+01 -0.44172145333E+02 -0.38055371354E+03  0.38311707561E+03  0.00000000000E+00 0.  1.
<mgrwt>
<rscale>  2 0.19456481E+03</rscale>
<asrwt>0</asrwt>
<pdfrwt beam="1">  1       21 0.59502906E-02 0.19478465E+03</pdfrwt>
<pdfrwt beam="2">  1       21 0.22106536E+00 0.19478465E+03</pdfrwt>
<totfact> 0.19785808E+04</totfact>
</mgrwt>
</event>
<event>
12    1  0.1029207E-001  0.1785051E+03  0.7546771E-02  0.1169756E+00
         21   -1    0    0  501  502  0.00000000000E+00  0.00000000000E+00  0.51780218309E+02  0.51780218309E+02  0.00000000000E+00 0.  1.
         21   -1    0    0  502  503 -0.00000000000E+00 -0.00000000000E+00 -0.67479426604E+03  0.67479426604E+03  0.00000000000E+00 0.  1.
         -6    2    1    2    0  503  0.45761024701E+02 -0.14676630362E+00 -0.42705034715E+03  0.46285644033E+03  0.17253982854E+03 0.  0.
        -24    2    3    3    0    0  0.76379639252E+02 -0.71299240943E+01 -0.41463639426E+03  0.42876156863E+03  0.77643146400E+02 0.  0.
          6    2    1    2  501    0 -0.45761024701E+02  0.14676630362E+00 -0.19596370058E+03  0.26371804401E+03  0.17044454193E+03 0.  0.
         24    2    5    5    0    0 -0.64593890610E+02  0.45609583972E+02 -0.73528818735E+02  0.13168041710E+03  0.75370021955E+02 0.  0.
          5    1    5    5  501    0  0.18832865909E+02 -0.45462817669E+02 -0.12243488184E+03  0.13203762691E+03  0.47000000000E+01 0. -1.
        -13    1    6    6    0    0 -0.83603097094E+01  0.84461195568E+01  0.15802400874E+02  0.19772394579E+02  0.00000000000E+00 0.  1.
         14    1    6    6    0    0 -0.56233580901E+02  0.37163464415E+02 -0.89331219609E+02  0.11190802252E+03  0.00000000000E+00 0. -1.
         -5    1    3    3    0  503 -0.30618614551E+02  0.69831577907E+01 -0.12413952892E+02  0.34094871699E+02  0.47000000000E+01 0.  1.
         11    1    4    4    0    0  0.29815724948E+02 -0.39087513406E+02 -0.14005770222E+03  0.14843507372E+03  0.00000000000E+00 0. -1.
        -12    1    4    4    0    0  0.46563914304E+02  0.31957589311E+02 -0.27457869204E+03  0.28032649491E+03  0.00000000000E+00 0.  1.
<mgrwt>
<rscale>  2 0.17799686E+03</rscale>
<asrwt>0</asrwt>
<pdfrwt beam="1">  1       21 0.79661882E-02 0.17850514E+03</pdfrwt>
<pdfrwt beam="2">  1       21 0.10381449E+00 0.17850514E+03</pdfrwt>
<totfact> 0.91313236E+04</totfact>
</mgrwt>
</event>
<event>
12    1  0.1029207E-001  0.1887100E+03  0.7546771E-02  0.1159896E+00
         21   -1    0    0  501  502  0.00000000000E+00  0.00000000000E+00  0.15878561870E+03  0.15878561870E+03  0.00000000000E+00 0.  1.
         21   -1    0    0  502  503 -0.00000000000E+00 -0.00000000000E+00 -0.24219320204E+03  0.24219320204E+03  0.00000000000E+00 0.  1.
         -6    2    1    2    0  503 -0.53917667364E+02  0.49487475441E+02  0.14773660182E+02  0.18928736750E+03  0.17394056853E+03 0.  0.
        -24    2    3    3    0    0 -0.54746355503E+02 -0.17375760207E+02 -0.30877801208E+02  0.10818542590E+03  0.86322461071E+02 0.  0.
          6    2    1    2  501    0  0.53917667364E+02 -0.49487475441E+02 -0.98181243527E+02  0.21169145324E+03  0.17267770474E+03 0.  0.
         24    2    5    5    0    0  0.34888487399E+02 -0.90172747474E+02 -0.10811903726E+03  0.16545022926E+03  0.79597243705E+02 0.  0.
          5    1    5    5  501    0  0.19029179965E+02  0.40685272034E+02  0.99377937317E+01  0.46241223976E+02  0.47000000000E+01 0. -1.
        -13    1    6    6    0    0  0.48594939311E+02 -0.97933211608E+02 -0.91639857714E+02  0.14265428695E+03  0.00000000000E+00 0.  1.
         14    1    6    6    0    0 -0.13706451912E+02  0.77604641341E+01 -0.16479179545E+02  0.22795942316E+02  0.00000000000E+00 0. -1.
         -5    1    3    3    0  503  0.82868813953E+00  0.66863235648E+02  0.45651461391E+02  0.81101941607E+02  0.47000000000E+01 0.  1.
         13    1    4    4    0    0 -0.26156660922E+02 -0.47792923234E+02 -0.37191901219E+02  0.65966445547E+02  0.00000000000E+00 0. -1.
        -14    1    4    4    0    0 -0.28589694581E+02  0.30417163026E+02  0.63141000112E+01  0.42218980350E+02  0.00000000000E+00 0.  1.
<mgrwt>
<rscale>  2 0.18841843E+03</rscale>
<asrwt>0</asrwt>
<pdfrwt beam="1">  1       21 0.24428557E-01 0.18870995E+03</pdfrwt>
<pdfrwt beam="2">  1       21 0.37260492E-01 0.18870995E+03</pdfrwt>
<totfact> 0.11012237E+05</totfact>
</mgrwt>
</event>
<event>
12    1  0.1029207E-001  0.2531985E+03  0.7546771E-02  0.1111410E+00
         21   -1    0    0  501  502  0.00000000000E+00  0.00000000000E+00  0.59365461036E+03  0.59365461036E+03  0.00000000000E+00 0.  1.
         21   -1    0    0  502  503 -0.00000000000E+00 -0.00000000000E+00 -0.12183024489E+03  0.12183024489E+03  0.00000000000E+00 0.  1.
         -6    2    1    2    0  503 -0.13566517669E+03  0.12684491793E+03  0.35808407830E+03  0.43855865464E+03  0.17208954953E+03 0.  0.
        -24    2    3    3    0    0 -0.89358607981E+02  0.27658010498E+02  0.10101305946E+03  0.15911288238E+03  0.79770575971E+02 0.  0.
          6    2    1    2  501    0  0.13566517669E+03 -0.12684491793E+03  0.11374028717E+03  0.27692620060E+03  0.17104559124E+03 0.  0.
         24    2    5    5    0    0  0.54403951877E+02 -0.11327193026E+03  0.22015206606E+02  0.15354389613E+03  0.85444359387E+02 0.  0.
          5    1    5    5  501    0  0.81261224818E+02 -0.13572987670E+02  0.91725080559E+02  0.12338230447E+03  0.47000000000E+01 0. -1.
        -11    1    6    6    0    0  0.64629505033E+02 -0.50155105262E+02  0.33821147904E+02  0.88523316421E+02  0.00000000000E+00 0.  1.
         12    1    6    6    0    0 -0.10225553156E+02 -0.63116825001E+02 -0.11805941298E+02  0.65020579707E+02  0.00000000000E+00 0. -1.
         -5    1    3    3    0  503 -0.46306568714E+02  0.99186907434E+02  0.25707101884E+03  0.27944577227E+03  0.47000000000E+01 0.  1.
         11    1    4    4    0    0 -0.35668795265E+02 -0.15579639317E+02  0.76708340849E+02  0.86018356603E+02  0.00000000000E+00 0. -1.
        -12    1    4    4    0    0 -0.53689812716E+02  0.43237649815E+02  0.24304718615E+02  0.73094525773E+02  0.00000000000E+00 0.  1.
<mgrwt>
<rscale>  2 0.25302123E+03</rscale>
<asrwt>0</asrwt>
<pdfrwt beam="1">  1       21 0.91331477E-01 0.25319851E+03</pdfrwt>
<pdfrwt beam="2">  1       21 0.18743115E-01 0.25319851E+03</pdfrwt>
<totfact> 0.25617775E+04</totfact>
</mgrwt>
</event>
<event>
12    1  0.1029207E-001  0.2052058E+03  0.7546771E-02  0.1145516E+00
         21   -1    0    0  503  502  0.00000000000E+00  0.00000000000E+00  0.30362019731E+03  0.30362019731E+03  0.00000000000E+00 0.  1.
         21   -1    0    0  501  503 -0.00000000000E+00 -0.00000000000E+00 -0.43167207107E+03  0.43167207107E+03  0.00000000000E+00 0.  1.
          6    2    1    2  501    0 -0.28513729598E+02 -0.10820840700E+03 -0.36709580167E+03  0.42055766275E+03  0.17200967407E+03 0.  0.
         24    2    3    3    0    0 -0.57688387150E+02 -0.61660270612E+02 -0.12159495130E+03  0.16894159177E+03  0.81400185894E+02 0.  0.
         -6    2    1    2    0  502  0.28513729598E+02  0.10820840700E+03  0.23904392790E+03  0.31473460563E+03  0.17144614429E+03 0.  0.
        -24    2    5    5    0    0  0.48064643482E+02  0.98929150160E+02  0.25331478314E+03  0.28838901491E+03  0.83082235514E+02 0.  0.
          5    1    3    3  501    0  0.29174657552E+02 -0.46548136385E+02 -0.24550085037E+03  0.25161607098E+03  0.47000000000E+01 0. -1.
        -13    1    4    4    0    0 -0.53220851785E+02 -0.80057226697E+02 -0.11237471677E+03  0.14788406128E+03  0.00000000000E+00 0.  1.
         14    1    4    4    0    0 -0.44675353645E+01  0.18396956085E+02 -0.92202345241E+01  0.21057530485E+02  0.00000000000E+00 0. -1.
         -5    1    5    5    0  502 -0.19550913884E+02  0.92792568366E+01 -0.14270855236E+02  0.26345590719E+02  0.47000000000E+01 0.  1.
         11    1    6    6    0    0 -0.12720398914E+02 -0.77199591712E+01  0.32573751432E+02  0.35811389257E+02  0.00000000000E+00 0. -1.
        -12    1    6    6    0    0  0.60785042396E+02  0.10664910933E+03  0.22074103171E+03  0.25257762565E+03  0.00000000000E+00 0.  1.
<mgrwt>
<rscale>  2 0.20508766E+03</rscale>
<asrwt>0</asrwt>
<pdfrwt beam="1">  1       21 0.46710800E-01 0.20520580E+03</pdfrwt>
<pdfrwt beam="2">  1       21 0.66411088E-01 0.20520580E+03</pdfrwt>
<totfact> 0.90466992E+03</totfact>
</mgrwt>
</event>
<event>
12    1  0.1029207E-001  0.1762031E+03  0.7546771E-02  0.1172898E+00
         21   -1    0    0  503  502  0.00000000000E+00  0.00000000000E+00  0.13340578967E+04  0.13340578967E+04  0.00000000000E+00 0.  1.
         21   -1    0    0  501  503 -0.00000000000E+00 -0.00000000000E+00 -0.23262806719E+02  0.23262806719E+02  0.00000000000E+00 0.  1.
          6    2    1    2  501    0 -0.78365540026E+01  0.35963216653E+02  0.54767192863E+03  0.57531912039E+03  0.17231594340E+03 0.  0.
         24    2    3    3    0    0 -0.25220522386E+02  0.84727733859E+02  0.31813442589E+03  0.33996887999E+03  0.80959636791E+02 0.  0.
         -6    2    1    2    0  502  0.78365540026E+01 -0.35963216653E+02  0.76312316134E+03  0.78200158301E+03  0.16677755224E+03 0.  0.
        -24    2    5    5    0    0 -0.37598608477E+02  0.20123001724E+02  0.53170030648E+03  0.53953788339E+03  0.81100685257E+02 0.  0.
          5    1    3    3  501    0  0.17383968384E+02 -0.48764517205E+02  0.22953750274E+03  0.23535024040E+03  0.47000000000E+01 0. -1.
        -13    1    4    4    0    0 -0.73935497878E+01  0.31833465279E+02  0.24889963857E+03  0.25103598182E+03  0.00000000000E+00 0.  1.
         14    1    4    4    0    0 -0.17826972598E+02  0.52894268580E+02  0.69234787324E+02  0.88932898167E+02  0.00000000000E+00 0. -1.
         -5    1    5    5    0  502  0.45435162480E+02 -0.56086218377E+02  0.23142285486E+03  0.24246369962E+03  0.47000000000E+01 0.  1.
         11    1    6    6    0    0 -0.46623967231E+02 -0.13206148439E+01  0.48622149341E+03  0.48845355869E+03  0.00000000000E+00 0. -1.
        -12    1    6    6    0    0  0.90253587538E+01  0.21443616568E+02  0.45478813068E+02  0.51084324702E+02  0.00000000000E+00 0.  1.
<mgrwt>
<rscale>  2 0.17483420E+03</rscale>
<asrwt>0</asrwt>
<pdfrwt beam="1">  1       21 0.20523962E+00 0.17620315E+03</pdfrwt>
<pdfrwt beam="2">  1       21 0.35788944E-02 0.17620315E+03</pdfrwt>
<totfact> 0.59315738E+04</totfact>
</mgrwt>
</event>
<event>
12    1  0.1029207E-001  0.1728307E+03  0.7546771E-02  0.1175573E+00
         21   -1    0    0  503  502  0.00000000000E+00  0.00000000000E+00  0.23692776772E+02  0.23692776772E+02  0.00000000000E+00 0. -1.
         21   -1    0    0  501  503 -0.00000000000E+00 -0.00000000000E+00 -0.17406768998E+04  0.17406768998E+04  0.00000000000E+00 0. -1.
          6    2    1    2  501    0  0.13830636026E+02 -0.11778956388E+02 -0.13259492749E+04  0.13368434141E+04  0.16934817383E+03 0.  0.
         24    2    3    3    0    0  0.47893723902E+02 -0.38365806878E+02 -0.46480143849E+03  0.47459934153E+03  0.73745602115E+02 0.  0.
         -6    2    1    2    0  502 -0.13830636026E+02  0.11778956388E+02 -0.39103484821E+03  0.42752626252E+03  0.17187327404E+03 0.  0.
        -24    2    5    5    0    0 -0.71591391690E+02  0.29457405289E+02 -0.23010360090E+03  0.25556757909E+03  0.79837674328E+02 0.  0.
          5    1    3    3  501    0 -0.34063087875E+02  0.26586850490E+02 -0.86114783638E+03  0.86224407257E+03  0.47000000000E+01 0. -1.
        -11    1    4    4    0    0  0.64239022007E+02 -0.12796195369E+02 -0.32701988736E+03  0.33351521899E+03  0.00000000000E+00 0.  1.
         12    1    4    4    0    0 -0.16345298106E+02 -0.25569611509E+02 -0.13778155112E+03  0.14108412254E+03  0.00000000000E+00 0. -1.
         -5    1    5    5    0  502  0.57760755664E+02 -0.17678448901E+02 -0.16093124730E+03  0.17195868344E+03  0.47000000000E+01 0.  1.
         11    1    6    6    0    0 -0.47670814089E+02 -0.23280359658E+02 -0.11853715541E+03  0.12986738957E+03  0.00000000000E+00 0. -1.
        -12    1    6    6    0    0 -0.23920577601E+02  0.52737764947E+02 -0.11156644550E+03  0.12570018952E+03  0.00000000000E+00 0.  1.
<mgrwt>
<rscale>  2 0.17219953E+03</rscale>
<asrwt>0</asrwt>
<pdfrwt beam="1">  1       21 0.36450423E-02 0.17283071E+03</pdfrwt>
<pdfrwt beam="2">  1       21 0.26779647E+00 0.17283071E+03</pdfrwt>
<totfact> 0.24411339E+04</totfact>
</mgrwt>
</event>
<event>
12    1  0.1029207E-001  0.2483343E+03  0.7546771E-02  0.1114780E+00
         21   -1    0    0  503  502  0.00000000000E+00  0.00000000000E+00  0.73184238716E+02  0.73184238716E+02  0.00000000000E+00 0.  1.
         21   -1    0    0  501  503 -0.00000000000E+00 -0.00000000000E+00 -0.12447347838E+04  0.12447347838E+04  0.00000000000E+00 0. -1.
          6    2    1    2  501    0  0.16970934499E+01 -0.17539987160E+03 -0.96644055743E+03  0.99783630551E+03  0.17578949479E+03 0.  0.
         24    2    3    3    0    0  0.27370489595E+01 -0.11957660825E+03 -0.34655084061E+03  0.37541950846E+03  0.80847173906E+02 0.  0.
         -6    2    1    2    0  502 -0.16970934499E+01  0.17539987160E+03 -0.20510998766E+03  0.32008271700E+03  0.17208963829E+03 0.  0.
        -24    2    5    5    0    0 -0.41196233570E+02  0.37511154590E+02 -0.11120591752E+03  0.14857894231E+03  0.81269487665E+02 0.  0.
          5    1    3    3  501    0 -0.10399555096E+01 -0.55823263351E+02 -0.61988971682E+03  0.62241679705E+03  0.47000000000E+01 0. -1.
        -13    1    4    4    0    0 -0.38459823569E+02 -0.67170325350E+02 -0.19833601552E+03  0.21290417020E+03  0.00000000000E+00 0.  1.
         14    1    4    4    0    0  0.41196872529E+02 -0.52406282895E+02 -0.14821482509E+03  0.16251533826E+03  0.00000000000E+00 0. -1.
         -5    1    5    5    0  502  0.39499140120E+02  0.13788871701E+03 -0.93904070133E+02  0.17150377470E+03  0.47000000000E+01 0.  1.
         13    1    6    6    0    0 -0.66003616133E+02  0.29749104112E+02 -0.85274607765E+02  0.11186261783E+03  0.00000000000E+00 0. -1.
        -14    1    6    6    0    0  0.24807382563E+02  0.77620504788E+01 -0.25931309759E+02  0.36716324477E+02  0.00000000000E+00 0.  1.
<mgrwt>
<rscale>  2 0.24768047E+03</rscale>
<asrwt>0</asrwt>
<pdfrwt beam="1">  1       21 0.11259114E-01 0.24833433E+03</pdfrwt>
<pdfrwt beam="2">  1       21 0.19149765E+00 0.24833433E+03</pdfrwt>
<totfact> 0.96158109E+03</totfact>
</mgrwt>
</event>
<event>
12    1  0.1029207E-001  0.2650856E+03  0.7546771E-02  0.1104286E+00
         21   -1    0    0  503  502  0.00000000000E+00  0.00000000000E+00  0.13410003180E+04  0.13410003180E+04  0.00000000000E+00 0.  1.
         21   -1    0    0  501  503 -0.00000000000E+00 -0.00000000000E+00 -0.22509233211E+03  0.22509233211E+03  0.00000000000E+00 0. -1.
          6    2    1    2  501    0  0.15746898351E+03  0.12191081372E+03 -0.12807704980E+03  0.29440464828E+03  0.17496182147E+03 0.  0.
         24    2    3    3    0    0  0.13486034553E+03  0.13184020110E+03 -0.15552993929E+03  0.25718241854E+03  0.79900456622E+02 0.  0.
         -6    2    1    2    0  502 -0.15746898351E+03 -0.12191081372E+03  0.12439850357E+04  0.12716880018E+04  0.17329996458E+03 0.  0.
        -24    2    5    5    0    0 -0.17897496604E+03 -0.94146325355E+02  0.11425181366E+04  0.11642124431E+04  0.95641786575E+02 0.  0.
          5    1    3    3  501    0  0.22608637982E+02 -0.99293873818E+01  0.27452889491E+02  0.37222229737E+02  0.47000000000E+01 0. -1.
        -13    1    4    4    0    0  0.62270529681E+02  0.42216440887E+02 -0.17371104025E+02  0.77211411093E+02  0.00000000000E+00 0.  1.
         14    1    4    4    0    0  0.72589815848E+02  0.89623760211E+02 -0.13815883527E+03  0.17997100745E+03  0.00000000000E+00 0. -1.
         -5    1    5    5    0  502  0.21505982530E+02 -0.27764488360E+02  0.10146689914E+03  0.10747555871E+03  0.47000000000E+01 0.  1.
         11    1    6    6    0    0 -0.30404730711E+02 -0.34300089757E+02  0.10734981916E+03  0.11672586466E+03  0.00000000000E+00 0. -1.
        -12    1    6    6    0    0 -0.14857023533E+03 -0.59846235599E+02  0.10351683174E+04  0.10474865785E+04  0.00000000000E+00 0.  1.
<mgrwt>
<rscale>  2 0.26481168E+03</rscale>
<asrwt>0</asrwt>
<pdfrwt beam="1">  1       21 0.20630774E+00 0.26508558E+03</pdfrwt>
<pdfrwt beam="2">  1       21 0.34629590E-01 0.26508558E+03</pdfrwt>
<totfact> 0.91595704E+02</totfact>
</mgrwt>
</event>
<event>
12    1  0.1029207E-001  0.1831175E+03  0.7546771E-02  0.1164828E+00
         21   -1    0    0  501  502  0.00000000000E+00  0.00000000000E+00  0.15719100757E+03  0.15719100757E+03  0.00000000000E+00 0.  1.
         21   -1    0    0  502  503 -0.00000000000E+00 -0.00000000000E+00 -0.22918547629E+03  0.22918547629E+03  0.00000000000E+00 0.  1.
         -6    2    1    2    0  503  0.50716389884E+02 -0.28471380844E+02 -0.86886839216E+02  0.20265436973E+03  0.17359924831E+03 0.  0.
        -24    2    3    3    0    0  0.10111398760E+03 -0.26752152349E+02 -0.57011515209E+02  0.14385387155E+03  0.80646806205E+02 0.  0.
          6    2    1    2  501    0 -0.50716389884E+02  0.28471380844E+02  0.14892370501E+02  0.18372211413E+03  0.17363542493E+03 0.  0.
         24    2    5    5    0    0 -0.45364782438E+02  0.30174627423E+01 -0.60137051806E+02  0.10417309867E+03  0.71892286925E+02 0.  0.
          5    1    5    5  501    0 -0.53516074454E+01  0.25453918101E+02  0.75029422306E+02  0.79549015459E+02  0.47000000000E+01 0. -1.
        -11    1    6    6    0    0 -0.52372750522E+02  0.26374821026E+02 -0.31515031142E+02  0.66571265342E+02  0.00000000000E+00 0.  1.
         12    1    6    6    0    0  0.70079680840E+01 -0.23357358283E+02 -0.28622020664E+02  0.37601833327E+02  0.00000000000E+00 0. -1.
         -5    1    3    3    0  503 -0.50397597713E+02 -0.17192284945E+01 -0.29875324007E+02  0.58800498181E+02  0.47000000000E+01 0.  1.
         11    1    4    4    0    0  0.71037964616E+02 -0.21006965288E+02  0.54620674610E+01  0.74280005307E+02  0.00000000000E+00 0. -1.
        -12    1    4    4    0    0  0.30076022980E+02 -0.57451870609E+01 -0.62473582670E+02  0.69573866245E+02  0.00000000000E+00 0.  1.
<mgrwt>
<rscale>  2 0.18310896E+03</rscale>
<asrwt>0</asrwt>
<pdfrwt beam="1">  1       21 0.24183232E-01 0.18311754E+03</pdfrwt>
<pdfrwt beam="2">  1       21 0.35259304E-01 0.18311754E+03</pdfrwt>
<totfact> 0.12554854E+05</totfact>
</mgrwt>
</event>
<event>
12    1  0.1029207E-001  0.1998803E+03  0.7546771E-02  0.1150031E+00
         21   -1    0    0  501  502  0.00000000000E+00  0.00000000000E+00  0.54734057537E+03  0.54734057537E+03  0.00000000000E+00 0. -1.
         21   -1    0    0  502  503 -0.00000000000E+00 -0.00000000000E+00 -0.92648752117E+02  0.92648752117E+02  0.00000000000E+00 0.  1.
         -6    2    1    2    0  503 -0.34471950127E+02 -0.90172517520E+02  0.78327392880E+02  0.21384110395E+03  0.17399264065E+03 0.  0.
        -24    2    3    3    0    0  0.41311495812E+02 -0.18905443333E+02  0.27041314876E+02  0.97761483264E+02  0.82231498988E+02 0.  0.
          6    2    1    2  501    0  0.34471950127E+02  0.90172517520E+02  0.37636443038E+03  0.42614822354E+03  0.17502207207E+03 0.  0.
         24    2    5    5    0    0 -0.42503838429E+02  0.23442498958E+02  0.21447711942E+03  0.23481668184E+03  0.82354795103E+02 0.  0.
          5    1    5    5  501    0  0.76975788556E+02  0.66730018562E+02  0.16188731096E+03  0.19133154170E+03  0.47000000000E+01 0. -1.
        -11    1    6    6    0    0  0.14027642537E+02  0.67746585350E+01  0.37776916595E+01  0.16029401351E+02  0.00000000000E+00 0.  1.
         12    1    6    6    0    0 -0.56531480966E+02  0.16667840423E+02  0.21069942776E+03  0.21878728048E+03  0.00000000000E+00 0. -1.
         -5    1    3    3    0  503 -0.75783445940E+02 -0.71267074187E+02  0.51286078005E+02  0.11607962069E+03  0.47000000000E+01 0.  1.
         11    1    4    4    0    0  0.22871689484E+02  0.26203280700E+02  0.33876290712E+02  0.48552334359E+02  0.00000000000E+00 0. -1.
        -12    1    4    4    0    0  0.18439806328E+02 -0.45108724033E+02 -0.68349758360E+01  0.49209148905E+02  0.00000000000E+00 0.  1.
<mgrwt>
<rscale>  2 0.19965470E+03</rscale>
<asrwt>0</asrwt>
<pdfrwt beam="1">  1       21 0.84206240E-01 0.19988027E+03</pdfrwt>
<pdfrwt beam="2">  1       21 0.14253655E-01 0.19988027E+03</pdfrwt>
<totfact> 0.52502492E+04</totfact>
</mgrwt>
</event>
<event>
12    1  0.1029207E-001  0.2220209E+03  0.7546771E-02  0.1132520E+00
         21   -1    0    0  501  502  0.00000000000E+00  0.00000000000E+00  0.21379391439E+03  0.21379391439E+03  0.00000000000E+00 0.  1.
         21   -1    0    0  502  503 -0.00000000000E+00 -0.00000000000E+00 -0.23164539886E+03  0.23164539886E+03  0.00000000000E+00 0.  1.
         -6    2    1    2    0  503 -0.13605687673E+03 -0.22150129855E+02  0.10919071261E+02  0.22156207129E+03  0.17311390285E+03 0.  0.
        -24    2    3    3    0    0 -0.16629065517E+03 -0.27956085514E+02  0.23029681064E+02  0.18814729387E+03  0.80217911135E+02 0.  0.
          6    2    1    2  501    0  0.13605687673E+03  0.22150129855E+02 -0.28770555725E+02  0.22387724196E+03  0.17404359406E+03 0.  0.
         24    2    5    5    0    0  0.46393358889E+02  0.41430807657E+02 -0.68057880434E+02  0.12399293463E+03  0.82906677519E+02 0.  0.
          5    1    5    5  501    0  0.89663517839E+02 -0.19280677802E+02  0.39287324708E+02  0.99884307328E+02  0.47000000000E+01 0. -1.
        -11    1    6    6    0    0  0.47165930274E+02  0.31526437743E+02 -0.15564257520E+01  0.56753534837E+02  0.00000000000E+00 0.  1.
         12    1    6    6    0    0 -0.77257138507E+00  0.99043699138E+01 -0.66501454682E+02  0.67239399795E+02  0.00000000000E+00 0. -1.
         -5    1    3    3    0  503  0.30233778446E+02  0.58059556594E+01 -0.12110609802E+02  0.33414777420E+02  0.47000000000E+01 0.  1.
         13    1    4    4    0    0 -0.83133042622E+02 -0.44067713245E+02 -0.15033326739E+02  0.95284138444E+02  0.00000000000E+00 0. -1.
        -14    1    4    4    0    0 -0.83157612552E+02  0.16111627730E+02  0.38063007802E+02  0.92863155430E+02  0.00000000000E+00 0.  1.
<mgrwt>
<rscale>  2 0.22183865E+03</rscale>
<asrwt>0</asrwt>
<pdfrwt beam="1">  1       21 0.32891372E-01 0.22202089E+03</pdfrwt>
<pdfrwt beam="2">  1       21 0.35637754E-01 0.22202089E+03</pdfrwt>
<totfact> 0.66693653E+04</totfact>
</mgrwt>
</event>
<event>
12    1  0.1029207E-001  0.1738538E+03  0.7546771E-02  0.1175445E+00
         21   -1    0    0  501  502  0.00000000000E+00  0.00000000000E+00  0.30199406174E+03  0.30199406174E+03  0.00000000000E+00 0.  1.
         21   -1    0    0  502  503 -0.00000000000E+00 -0.00000000000E+00 -0.24333717320E+03  0.24333717320E+03  0.00000000000E+00 0.  1.
         -6    2    1    2    0  503 -0.24204191955E+02 -0.11317343191E+02 -0.18257241547E+03  0.24798171485E+03  0.16567534170E+03 0.  0.
        -24    2    3    3    0    0  0.34734658379E+01  0.10991124604E+02 -0.23099250356E+02  0.84526825461E+02  0.80488129997E+02 0.  0.
          6    2    1    2  501    0  0.24204191955E+02  0.11317343191E+02  0.24122930400E+03  0.29734952009E+03  0.17178834309E+03 0.  0.
         24    2    5    5    0    0  0.49794218880E+02 -0.49000945202E+02  0.11299248712E+03  0.15326650028E+03  0.76437955875E+02 0.  0.
          5    1    5    5  501    0 -0.25590026925E+02  0.60318288393E+02  0.12823681688E+03  0.14408301981E+03  0.47000000000E+01 0. -1.
        -13    1    6    6    0    0  0.18441087123E+02 -0.31324857294E+02  0.11146414208E+03  0.11724152570E+03  0.00000000000E+00 0.  1.
         14    1    6    6    0    0  0.31353131757E+02 -0.17676087908E+02  0.15283450349E+01  0.36024974577E+02  0.00000000000E+00 0. -1.
         -5    1    3    3    0  503 -0.27677657793E+02 -0.22308467795E+02 -0.15947316511E+03  0.16345488939E+03  0.47000000000E+01 0.  1.
         13    1    4    4    0    0 -0.31950870214E+02 -0.13972034160E+01 -0.32752595087E+02  0.45777098748E+02  0.00000000000E+00 0. -1.
        -14    1    4    4    0    0  0.35424336052E+02  0.12388328020E+02  0.96533447309E+01  0.38749726713E+02  0.00000000000E+00 0.  1.
<mgrwt>
<rscale>  2 0.17232434E+03</rscale>
<asrwt>0</asrwt>
<pdfrwt beam="1">  1       21 0.46460625E-01 0.17385385E+03</pdfrwt>
<pdfrwt beam="2">  1       21 0.37436488E-01 0.17385385E+03</pdfrwt>
<totfact> 0.30847917E+04</totfact>
</mgrwt>
</event>
<event>
12    1  0.1029207E-001  0.1743949E+03  0.7546771E-02  0.1173568E+00
         21   -1    0    0  501  502  0.00000000000E+00  0.00000000000E+00  0.66936923385E+03  0.66936923385E+03  0.00000000000E+00 0.  1.
         21   -1    0    0  502  503 -0.00000000000E+00 -0.00000000000E+00 -0.68045703566E+02  0.68045703566E+02  0.00000000000E+00 0.  1.
         -6    2    1    2    0  503  0.78805919209E+00 -0.27585189021E+02  0.86517804266E+02  0.19387238480E+03  0.17128808319E+03 0.  0.
        -24    2    3    3    0    0  0.14333830660E+02  0.40850929864E+02  0.77060614807E+02  0.12331376573E+03  0.85986564605E+02 0.  0.
          6    2    1    2  501    0 -0.78805919209E+00  0.27585189021E+02  0.51480572601E+03  0.54354255261E+03  0.17219758206E+03 0.  0.
         24    2    5    5    0    0  0.70246396349E+01  0.36265109059E+01  0.51121699759E+03  0.51765770199E+03  0.81019631301E+02 0.  0.
          5    1    5    5  501    0 -0.78126988270E+01  0.23958678115E+02  0.35887284230E+01  0.25884850621E+02  0.47000000000E+01 0. -1.
        -13    1    6    6    0    0  0.42142546093E+02  0.82533120433E+01  0.20857298479E+03  0.21294788409E+03  0.00000000000E+00 0.  1.
         14    1    6    6    0    0 -0.35117906458E+02 -0.46268011374E+01  0.30264401280E+03  0.30470981790E+03  0.00000000000E+00 0. -1.
         -5    1    3    3    0  503 -0.13545771468E+02 -0.68436118885E+02  0.94571894587E+01  0.70558619071E+02  0.47000000000E+01 0.  1.
         13    1    4    4    0    0 -0.25184486107E+02  0.37235960297E+01  0.62022390140E+02  0.67044018275E+02  0.00000000000E+00 0. -1.
        -14    1    4    4    0    0  0.39518316767E+02  0.37127333835E+02  0.15038224668E+02  0.56269747458E+02  0.00000000000E+00 0.  1.
<mgrwt>
<rscale>  2 0.17416994E+03</rscale>
<asrwt>0</asrwt>
<pdfrwt beam="1">  1       21 0.10297988E+00 0.17439487E+03</pdfrwt>
<pdfrwt beam="2">  1       21 0.10468570E-01 0.17439487E+03</pdfrwt>
<totfact> 0.57791452E+04</totfact>
</mgrwt>
</event>
<event>
12    1  0.1029207E-001  0.1849534E+03  0.7546771E-02  0.1163223E+00
         21   -1    0    0  501  502  0.00000000000E+00  0.00000000000E+00  0.92375733393E+03  0.92375733393E+03  0.00000000000E+00 0. -1.
         21   -1    0    0  502  503 -0.00000000000E+00 -0.00000000000E+00 -0.72562644064E+02  0.72562644064E+02  0.00000000000E+00 0. -1.
         -6    2    1    2    0  503 -0.55252569326E+02  0.35156509281E+02  0.76785264109E+02  0.20025913958E+03  0.17297086356E+03 0.  0.
        -24    2    3    3    0    0  0.31322704600E+02 -0.77430814023E+01  0.24195228965E+02  0.90152578777E+02  0.80628848574E+02 0.  0.
          6    2    1    2  501    0  0.55252569326E+02 -0.35156509281E+02  0.77440942576E+03  0.79606083841E+03  0.17237770502E+03 0.  0.
         24    2    5    5    0    0  0.47294761223E+02  0.33201451442E+02  0.29469446847E+03  0.31141182340E+03  0.82421861122E+02 0.  0.
          5    1    5    5  501    0  0.79578081033E+01 -0.68357960723E+02  0.47971495729E+03  0.48464901501E+03  0.47000000000E+01 0. -1.
        -13    1    6    6    0    0  0.50254742087E+02 -0.11702704994E+02  0.11293780590E+03  0.12416698598E+03  0.00000000000E+00 0.  1.
         14    1    6    6    0    0 -0.29599808645E+01  0.44904156435E+02  0.18175666257E+03  0.18724483742E+03  0.00000000000E+00 0. -1.
         -5    1    3    3    0  503 -0.86575273926E+02  0.42899590683E+02  0.52590035144E+02  0.11010656081E+03  0.47000000000E+01 0.  1.
         13    1    4    4    0    0  0.17737170529E+02  0.24840002810E+02 -0.17766096510E+02  0.35316669480E+02  0.00000000000E+00 0. -1.
        -14    1    4    4    0    0  0.13585534071E+02 -0.32583084213E+02  0.41961325475E+02  0.54835909297E+02  0.00000000000E+00 0.  1.
<mgrwt>
<rscale>  2 0.18481455E+03</rscale>
<asrwt>0</asrwt>
<pdfrwt beam="1">  1       21 0.14211650E+00 0.18495336E+03</pdfrwt>
<pdfrwt beam="2">  1       21 0.11163484E-01 0.18495336E+03</pdfrwt>
<totfact> 0.23091496E+04</totfact>
</mgrwt>
</event>
<event>
12    1  0.1029207E-001  0.1838202E+03  0.7546771E-02  0.1164364E+00
         21   -1    0    0  501  502  0.00000000000E+00  0.00000000000E+00  0.45541559464E+03  0.45541559464E+03  0.00000000000E+00 0. -1.
         21   -1    0    0  502  503 -0.00000000000E+00 -0.00000000000E+00 -0.37482264362E+03  0.37482264362E+03  0.00000000000E+00 0. -1.
         -6    2    1    2    0  503  0.55310313577E+02 -0.27218416242E+02 -0.33167275534E+03  0.37920531216E+03  0.17317557322E+03 0.  0.
        -24    2    3    3    0    0  0.40868480030E+02 -0.84151556140E+02 -0.20211183678E+03  0.23687446310E+03  0.80675892558E+02 0.  0.
          6    2    1    2  501    0 -0.55310313577E+02  0.27218416242E+02  0.41226570636E+03  0.45103292611E+03  0.17224289482E+03 0.  0.
         24    2    5    5    0    0 -0.27761499725E+02  0.71067619345E+02  0.16899304926E+03  0.20226523236E+03  0.80816249216E+02 0.  0.
          5    1    5    5  501    0 -0.27548813853E+02 -0.43849203103E+02  0.24327265710E+03  0.24876769374E+03  0.47000000000E+01 0. -1.
        -11    1    6    6    0    0 -0.51702183990E+02  0.31797153150E+02  0.67140185281E+02  0.90509553404E+02  0.00000000000E+00 0.  1.
         12    1    6    6    0    0  0.23940684265E+02  0.39270466195E+02  0.10185286398E+03  0.11175567896E+03  0.00000000000E+00 0. -1.
         -5    1    3    3    0  503  0.14441833547E+02  0.56933139898E+02 -0.12956091856E+03  0.14233084906E+03  0.47000000000E+01 0.  1.
         13    1    4    4    0    0 -0.19322927231E+02 -0.28977801075E+02 -0.10143565136E+03  0.10724868223E+03  0.00000000000E+00 0. -1.
        -14    1    4    4    0    0  0.60191407262E+02 -0.55173755065E+02 -0.10067618542E+03  0.12962578087E+03  0.00000000000E+00 0.  1.
<mgrwt>
<rscale>  2 0.18360017E+03</rscale>
<asrwt>0</asrwt>
<pdfrwt beam="1">  1       21 0.70063937E-01 0.18382016E+03</pdfrwt>
<pdfrwt beam="2">  1       21 0.57665022E-01 0.18382016E+03</pdfrwt>
<totfact> 0.52525411E+03</totfact>
</mgrwt>
</event>
<event>
12    1  0.1029207E-001  0.2344031E+03  0.7546771E-02  0.1123612E+00
         21   -1    0    0  503  502  0.00000000000E+00  0.00000000000E+00  0.18163306651E+03  0.18163306651E+03  0.00000000000E+00 0.  1.
         21   -1    0    0  501  503 -0.00000000000E+00 -0.00000000000E+00 -0.41887367122E+03  0.41887367122E+03  0.00000000000E+00 0.  1.
          6    2    1    2  501    0  0.99489868442E+02  0.12138066360E+03 -0.27708510571E+03  0.36293384865E+03  0.17410721774E+03 0.  0.
         24    2    3    3    0    0  0.61906180348E+02  0.20758407396E+02 -0.21304140246E+03  0.23778969984E+03  0.83030208631E+02 0.  0.
         -6    2    1    2    0  502 -0.99489868442E+02 -0.12138066360E+03  0.39844500991E+02  0.23757288909E+03  0.17384416571E+03 0.  0.
        -24    2    5    5    0    0 -0.64304808925E+02 -0.18446113330E+02  0.69345590931E+02  0.12476369460E+03  0.79257813251E+02 0.  0.
          5    1    3    3  501    0  0.37583688094E+02  0.10062225621E+03 -0.64043703250E+02  0.12514414881E+03  0.47000000000E+01 0. -1.
        -11    1    4    4    0    0  0.62554808606E+02  0.41033878664E+02 -0.11170559896E+03  0.13444338629E+03  0.00000000000E+00 0.  1.
         12    1    4    4    0    0 -0.64862825782E+00 -0.20275471269E+02 -0.10133580349E+03  0.10334631355E+03  0.00000000000E+00 0. -1.
         -5    1    5    5    0  502 -0.35185059516E+02 -0.10293455027E+03 -0.29501089939E+02  0.11280919449E+03  0.47000000000E+01 0.  1.
         11    1    6    6    0    0  0.51471622973E+01  0.20172548739E+02  0.28839545011E+02  0.35568867831E+02  0.00000000000E+00 0. -1.
        -12    1    6    6    0    0 -0.69451971223E+02 -0.38618662069E+02  0.40506045920E+02  0.89194826772E+02  0.00000000000E+00 0.  1.
<mgrwt>
<rscale>  2 0.23435427E+03</rscale>
<asrwt>0</asrwt>
<pdfrwt beam="1">  1       21 0.27943549E-01 0.23440312E+03</pdfrwt>
<pdfrwt beam="2">  1       21 0.64442102E-01 0.23440312E+03</pdfrwt>
<totfact> 0.26562200E+04</totfact>
</mgrwt>
</event>
<event>
12    1  0.1029207E-001  0.1848586E+03  0.7546771E-02  0.1163792E+00
         21   -1    0    0  501  502  0.00000000000E+00  0.00000000000E+00  0.14348802704E+03  0.14348802704E+03  0.00000000000E+00 0. -1.
         21   -1    0    0  502  503 -0.00000000000E+00 -0.00000000000E+00 -0.26190338023E+03  0.26190338023E+03  0.00000000000E+00 0. -1.
         -6    2    1    2    0  503 -0.56241867905E+02  0.26591656405E+02 -0.12475145928E+03  0.22301487840E+03  0.17407597623E+03 0.  0.
        -24    2    3    3    0    0 -0.97366629704E+01  0.79885657801E+02 -0.75408484033E+02  0.13664472223E+03  0.80677256528E+02 0.  0.
          6    2    1    2  501    0  0.56241867905E+02 -0.26591656405E+02  0.63361060871E+01  0.18237652887E+03  0.17132071722E+03 0.  0.
         24    2    5    5    0    0  0.22600913682E+01  0.41248052312E+02 -0.14727320314E+02  0.93034398785E+02  0.82048738937E+02 0.  0.
          5    1    5    5  501    0  0.53981776536E+02 -0.67839708717E+02  0.21063426401E+02  0.89342130087E+02  0.47000000000E+01 0. -1.
        -13    1    6    6    0    0 -0.45130254160E+01 -0.11596529689E+02  0.24091412251E+02  0.27115365450E+02  0.00000000000E+00 0.  1.
         14    1    6    6    0    0  0.67731167842E+01  0.52844582002E+02 -0.38818732565E+02  0.65919033335E+02  0.00000000000E+00 0. -1.
         -5    1    3    3    0  503 -0.46505204934E+02 -0.53294001396E+02 -0.49342975242E+02  0.86370156168E+02  0.47000000000E+01 0.  1.
         11    1    4    4    0    0 -0.35026752259E+02  0.40705813515E+02 -0.74363729787E+01  0.54213801479E+02  0.00000000000E+00 0. -1.
        -12    1    4    4    0    0  0.25290089289E+02  0.39179844285E+02 -0.67972111055E+02  0.82430920750E+02  0.00000000000E+00 0.  1.
<mgrwt>
<rscale>  2 0.18420714E+03</rscale>
<asrwt>0</asrwt>
<pdfrwt beam="1">  1       21 0.22075081E-01 0.18485862E+03</pdfrwt>
<pdfrwt beam="2">  1       21 0.40292828E-01 0.18485862E+03</pdfrwt>
<totfact> 0.11415456E+05</totfact>
</mgrwt>
</event>
<event>
12    1  0.1029207E-001  0.1828829E+03  0.7546771E-02  0.1168311E+00
         21   -1    0    0  503  502  0.00000000000E+00  0.00000000000E+00  0.25911135612E+03  0.25911135612E+03  0.00000000000E+00 0.  1.
         21   -1    0    0  501  503 -0.00000000000E+00 -0.00000000000E+00 -0.12828580129E+03  0.12828580129E+03  0.00000000000E+00 0.  1.
          6    2    1    2  501    0 -0.12065253248E+02 -0.57454274917E+02  0.13613004061E+02  0.17017617604E+03  0.15914789653E+03 0.  0.
         24    2    3    3    0    0  0.46343093923E+02 -0.55259050877E+02  0.23171257149E+02  0.11076402047E+03  0.80811608168E+02 0.  0.
         -6    2    1    2    0  502  0.12065253248E+02  0.57454274917E+02  0.11721255077E+03  0.21722098137E+03  0.17320395102E+03 0.  0.
        -24    2    5    5    0    0 -0.36001986833E+02  0.90552628600E+01  0.11995416962E+03  0.14879196405E+03  0.79824212600E+02 0.  0.
          5    1    3    3  501    0 -0.58408347171E+02 -0.21952240398E+01 -0.95582530872E+01  0.59412155574E+02  0.47000000000E+01 0. -1.
        -13    1    4    4    0    0  0.53622792235E+02 -0.65222775959E+02 -0.85998381529E-01  0.84435903185E+02  0.00000000000E+00 0.  1.
         14    1    4    4    0    0 -0.72796983123E+01  0.99637250819E+01  0.23257255530E+02  0.26328117286E+02  0.00000000000E+00 0. -1.
         -5    1    5    5    0  502  0.48067240080E+02  0.48399012057E+02 -0.27416188494E+01  0.68429017317E+02  0.47000000000E+01 0.  1.
         13    1    6    6    0    0  0.10666203822E+02  0.19146899796E+01  0.94570520703E+02  0.95189376128E+02  0.00000000000E+00 0. -1.
        -14    1    6    6    0    0 -0.46668190655E+02  0.71405728804E+01  0.25383648912E+02  0.53602587924E+02  0.00000000000E+00 0.  1.
<mgrwt>
<rscale>  2 0.17947589E+03</rscale>
<asrwt>0</asrwt>
<pdfrwt beam="1">  1       21 0.39863285E-01 0.18288295E+03</pdfrwt>
<pdfrwt beam="2">  1       21 0.19736277E-01 0.18288295E+03</pdfrwt>
<totfact> 0.14397752E+05</totfact>
</mgrwt>
</event>
<event>
12    1  0.1029207E-001  0.2835408E+03  0.7546771E-02  0.1094802E+00
         21   -1    0    0  501  502  0.00000000000E+00  0.00000000000E+00  0.74542985247E+03  0.74542985247E+03  0.00000000000E+00 0. -1.
         21   -1    0    0  502  503 -0.00000000000E+00 -0.00000000000E+00 -0.16542893189E+03  0.16542893189E+03  0.00000000000E+00 0.  1.
         -6    2    1    2    0  503 -0.21356487257E+03  0.20695575058E+02  0.17231891638E+02  0.28406396128E+03  0.18535677594E+03 0.  0.
        -24    2    3    3    0    0 -0.50228723050E+02 -0.37164427032E+02  0.39182547151E+02  0.10933445931E+03  0.80713274845E+02 0.  0.
          6    2    1    2  501    0  0.21356487257E+03 -0.20695575058E+02  0.56276902894E+03  0.62679482307E+03  0.17356413417E+03 0.  0.
         24    2    5    5    0    0  0.19674798543E+03  0.36265467446E+02  0.45842619777E+03  0.50664123605E+03  0.80658597606E+02 0.  0.
          5    1    5    5  501    0  0.16816887137E+02 -0.56961042504E+02  0.10434283117E+03  0.12015358702E+03  0.47000000000E+01 0. -1.
        -13    1    6    6    0    0  0.10787231440E+03 -0.44586192320E+01  0.16346251914E+03  0.19589872553E+03  0.00000000000E+00 0.  1.
         14    1    6    6    0    0  0.88875671028E+02  0.40724086679E+02  0.29496367863E+03  0.31074251053E+03  0.00000000000E+00 0. -1.
         -5    1    3    3    0  503 -0.16333614952E+03  0.57860002090E+02 -0.21950655513E+02  0.17472950197E+03  0.47000000000E+01 0.  1.
         13    1    4    4    0    0  0.21723446110E+02 -0.15232223616E+02  0.14077307065E+02  0.30034968310E+02  0.00000000000E+00 0. -1.
        -14    1    4    4    0    0 -0.71952169161E+02 -0.21932203417E+02  0.25105240086E+02  0.79299491003E+02  0.00000000000E+00 0.  1.
<mgrwt>
<rscale>  2 0.28163040E+03</rscale>
<asrwt>0</asrwt>
<pdfrwt beam="1">  1       21 0.11468151E+00 0.28354082E+03</pdfrwt>
<pdfrwt beam="2">  1       21 0.25450605E-01 0.28354082E+03</pdfrwt>
<totfact> 0.81628311E+03</totfact>
</mgrwt>
</event>
<event>
12    1  0.1029207E-001  0.4820849E+03  0.7546771E-02  0.1018602E+00
         21   -1    0    0  501  502  0.00000000000E+00  0.00000000000E+00  0.61133550420E+03  0.61133550420E+03  0.00000000000E+00 0. -1.
         21   -1    0    0  502  503 -0.00000000000E+00 -0.00000000000E+00 -0.38729686679E+03  0.38729686679E+03  0.00000000000E+00 0.  1.
         -6    2    1    2    0  503 -0.32654816189E+03 -0.30973276160E+03  0.42095225208E+02  0.48335650074E+03  0.17115318631E+03 0.  0.
        -24    2    3    3    0    0 -0.58482230507E+02 -0.73988802514E+02  0.11246120354E+02  0.12501544102E+03  0.81288812810E+02 0.  0.
          6    2    1    2  501    0  0.32654816189E+03  0.30973276160E+03  0.18194341220E+03  0.51527587025E+03  0.17273601702E+03 0.  0.
         24    2    5    5    0    0  0.25682460347E+03  0.25311406785E+03  0.77683789639E+02  0.37758342319E+03  0.80677518587E+02 0.  0.
          5    1    5    5  501    0  0.69723558419E+02  0.56618693751E+02  0.10425962256E+03  0.13769244706E+03  0.47000000000E+01 0. -1.
        -11    1    6    6    0    0  0.18133686962E+03  0.18825845456E+03  0.91851876875E+02  0.27705788797E+03  0.00000000000E+00 0.  1.
         12    1    6    6    0    0  0.75487733852E+02  0.64855613283E+02 -0.14168087237E+02  0.10052553523E+03  0.00000000000E+00 0. -1.
         -5    1    3    3    0  503 -0.26806593139E+03 -0.23574395908E+03  0.30849104854E+02  0.35834105972E+03  0.47000000000E+01 0.  1.
         13    1    4    4    0    0 -0.56767871400E+02 -0.66768761157E+01  0.61510416665E+01  0.57489192128E+02  0.00000000000E+00 0. -1.
        -14    1    4    4    0    0 -0.17143591065E+01 -0.67311926398E+02  0.50950786872E+01  0.67526248892E+02  0.00000000000E+00 0.  1.
<mgrwt>
<rscale>  2 0.48194358E+03</rscale>
<asrwt>0</asrwt>
<pdfrwt beam="1">  1       21 0.94051616E-01 0.48208487E+03</pdfrwt>
<pdfrwt beam="2">  1       21 0.59584134E-01 0.48208487E+03</pdfrwt>
<totfact> 0.21307564E+03</totfact>
</mgrwt>
</event>
<event>
12    1  0.1029207E-001  0.1831815E+03  0.7546771E-02  0.1164827E+00
         21   -1    0    0  501  502  0.00000000000E+00  0.00000000000E+00  0.26681355344E+03  0.26681355344E+03  0.00000000000E+00 0. -1.
         21   -1    0    0  502  503 -0.00000000000E+00 -0.00000000000E+00 -0.13491859343E+03  0.13491859343E+03  0.00000000000E+00 0. -1.
         -6    2    1    2    0  503  0.27402794028E+02  0.54161832961E+02  0.13114150871E+02  0.18365035789E+03  0.17283244987E+03 0.  0.
        -24    2    3    3    0    0  0.65882262198E+02  0.62323491808E+02  0.47176634348E+02  0.13140454536E+03  0.82564093955E+02 0.  0.
          6    2    1    2  501    0 -0.27402794028E+02 -0.54161832961E+02  0.11878080915E+03  0.21808178898E+03  0.17252932734E+03 0.  0.
         24    2    5    5    0    0 -0.47146409611E+02 -0.80730966493E+02  0.13297607213E+03  0.18175927937E+03  0.81323594299E+02 0.  0.
          5    1    5    5  501    0  0.19743615583E+02  0.26569133533E+02 -0.14195262980E+02  0.36322509606E+02  0.47000000000E+01 0. -1.
        -13    1    6    6    0    0 -0.57870023519E+01 -0.28756325087E+02  0.10614286968E+03  0.11012140760E+03  0.00000000000E+00 0.  1.
         14    1    6    6    0    0 -0.41359407259E+02 -0.51974641406E+02  0.26833202448E+02  0.71637871770E+02  0.00000000000E+00 0. -1.
         -5    1    3    3    0  503 -0.38479468170E+02 -0.81616588470E+01 -0.34062483477E+02  0.52245812525E+02  0.47000000000E+01 0.  1.
         13    1    4    4    0    0  0.40280904400E+02  0.46119392353E+01  0.54411718347E+02  0.67856144426E+02  0.00000000000E+00 0. -1.
        -14    1    4    4    0    0  0.25601357798E+02  0.57711552572E+02 -0.72350839997E+01  0.63548400939E+02  0.00000000000E+00 0.  1.
<mgrwt>
<rscale>  2 0.18311000E+03</rscale>
<asrwt>0</asrwt>
<pdfrwt beam="1">  1       21 0.41048239E-01 0.18318153E+03</pdfrwt>
<pdfrwt beam="2">  1       21 0.20756707E-01 0.18318153E+03</pdfrwt>
<totfact> 0.12349572E+05</totfact>
</mgrwt>
</event>
<event>
12    1  0.1029207E-001  0.1926522E+03  0.7546771E-02  0.1156349E+00
         21   -1    0    0  501  502  0.00000000000E+00  0.00000000000E+00  0.18034166312E+04  0.18034166312E+04  0.00000000000E+00 0. -1.
         21   -1    0    0  502  503 -0.00000000000E+00 -0.00000000000E+00 -0.20688221796E+02  0.20688221796E+02  0.00000000000E+00 0.  1.
         -6    2    1    2    0  503  0.80513105332E+01 -0.84016411308E+02  0.79213982249E+03  0.81495639464E+03  0.17188614200E+03 0.  0.
        -24    2    3    3    0    0 -0.54091608074E+02 -0.78358701043E+02  0.42383084192E+03  0.44136925997E+03  0.78155313264E+02 0.  0.
          6    2    1    2  501    0 -0.80513105332E+01  0.84016411308E+02  0.99058858687E+03  0.10091484583E+04  0.17317991083E+03 0.  0.
         24    2    5    5    0    0  0.33248762371E+02  0.11002916504E+03  0.64660175156E+03  0.66168422671E+03  0.80748333727E+02 0.  0.
          5    1    5    5  501    0 -0.41300072904E+02 -0.26012753731E+02  0.34398683531E+03  0.34746423161E+03  0.47000000000E+01 0. -1.
        -11    1    6    6    0    0 -0.15785818788E+02  0.82682644890E+02  0.37274031524E+03  0.38212688266E+03  0.00000000000E+00 0.  1.
         12    1    6    6    0    0  0.49034581159E+02  0.27346520149E+02  0.27386143631E+03  0.27955734405E+03  0.00000000000E+00 0. -1.
         -5    1    3    3    0  503  0.62142918608E+02 -0.56577102646E+01  0.36830898057E+03  0.37358713466E+03  0.47000000000E+01 0.  1.
         11    1    4    4    0    0 -0.66391776642E+02 -0.81495524629E+02  0.40659813658E+03  0.41996599054E+03  0.00000000000E+00 0. -1.
        -12    1    4    4    0    0  0.12300168568E+02  0.31368235862E+01  0.17232705345E+02  0.21403269436E+02  0.00000000000E+00 0.  1.
<mgrwt>
<rscale>  2 0.19236098E+03</rscale>
<asrwt>0</asrwt>
<pdfrwt beam="1">  1       21 0.27744859E+00 0.19265218E+03</pdfrwt>
<pdfrwt beam="2">  1       21 0.31828047E-02 0.19265218E+03</pdfrwt>
<totfact> 0.26408117E+04</totfact>
</mgrwt>
</event>
<event>
12    1  0.1029207E-001  0.2141726E+03  0.7546771E-02  0.1138460E+00
         21   -1    0    0  503  502  0.00000000000E+00  0.00000000000E+00  0.10016740034E+03  0.10016740034E+03  0.00000000000E+00 0. -1.
         21   -1    0    0  501  503 -0.00000000000E+00 -0.00000000000E+00 -0.82100497811E+03  0.82100497811E+03  0.00000000000E+00 0. -1.
          6    2    1    2  501    0 -0.11687130270E+03 -0.46933126831E+02 -0.66781763236E+03  0.70132039489E+03  0.17322899991E+03 0.  0.
         24    2    3    3    0    0 -0.14034039111E+03 -0.39114165650E+02 -0.40929737433E+03  0.44157677499E+03  0.78995976164E+02 0.  0.
         -6    2    1    2    0  502  0.11687130270E+03  0.46933126831E+02 -0.53019945399E+02  0.21985198356E+03  0.17222706023E+03 0.  0.
        -24    2    5    5    0    0  0.31156163589E+02  0.71651110052E+02 -0.64720060472E+02  0.12975733078E+03  0.80893081047E+02 0.  0.
          5    1    3    3  501    0  0.23469088411E+02 -0.78189611815E+01 -0.25852025803E+03  0.25974361990E+03  0.47000000000E+01 0. -1.
        -11    1    4    4    0    0 -0.33626529995E+02  0.24343861110E+02 -0.10770141506E+03  0.11542513548E+03  0.00000000000E+00 0.  1.
         12    1    4    4    0    0 -0.10671386111E+03 -0.63458026760E+02 -0.30159595927E+03  0.32615163952E+03  0.00000000000E+00 0. -1.
         -5    1    5    5    0  502  0.85715139108E+02 -0.24717983221E+02  0.11700115073E+02  0.90094652780E+02  0.47000000000E+01 0.  1.
         13    1    6    6    0    0  0.22232861456E+02  0.70797455854E+02 -0.10670635302E+02  0.74969609454E+02  0.00000000000E+00 0. -1.
        -14    1    6    6    0    0  0.89233021327E+01  0.85365419832E+00 -0.54049425170E+02  0.54787721322E+02  0.00000000000E+00 0.  1.
<mgrwt>
<rscale>  2 0.21396992E+03</rscale>
<asrwt>0</asrwt>
<pdfrwt beam="1">  1       21 0.15410369E-01 0.21417261E+03</pdfrwt>
<pdfrwt beam="2">  1       21 0.12630846E+00 0.21417261E+03</pdfrwt>
<totfact> 0.17114585E+04</totfact>
</mgrwt>
</event>
<event>
12    1  0.1029207E-001  0.1873303E+03  0.7546771E-02  0.1160906E+00
         21   -1    0    0  501  502  0.00000000000E+00  0.00000000000E+00  0.24089400006E+03  0.24089400006E+03  0.00000000000E+00 0. -1.
         21   -1    0    0  502  503 -0.00000000000E+00 -0.00000000000E+00 -0.15410424563E+03  0.15410424563E+03  0.00000000000E+00 0. -1.
         -6    2    1    2    0  503 -0.49518036976E+02 -0.51342777873E+02  0.89706983371E+02  0.20764522752E+03  0.17315045717E+03 0.  0.
        -24    2    3    3    0    0  0.26308803731E+02 -0.61747809393E+02  0.77444928487E+02  0.12998943287E+03  0.79966184041E+02 0.  0.
          6    2    1    2  501    0  0.49518036976E+02  0.51342777873E+02 -0.29172289457E+01  0.18735301817E+03  0.17321814676E+03 0.  0.
         24    2    5    5    0    0  0.88013934680E+01  0.10408361913E+02 -0.63978711188E+02  0.10318612395E+03  0.79801642629E+02 0.  0.
          5    1    5    5  501    0  0.40716643508E+02  0.40934415961E+02  0.61061482242E+02  0.84166894218E+02  0.47000000000E+01 0. -1.
        -11    1    6    6    0    0  0.10791937982E+02  0.16047987162E+02  0.14692879373E+02  0.24287538402E+02  0.00000000000E+00 0.  1.
         12    1    6    6    0    0 -0.19905445139E+01 -0.56396252497E+01 -0.78671590561E+02  0.78898585550E+02  0.00000000000E+00 0. -1.
         -5    1    3    3    0  503 -0.75826840708E+02  0.10405031520E+02  0.12262054884E+02  0.77655794649E+02  0.47000000000E+01 0.  1.
         11    1    4    4    0    0 -0.10031243102E+02 -0.41751441440E+02  0.77397660560E+02  0.88511053325E+02  0.00000000000E+00 0. -1.
        -12    1    4    4    0    0  0.36340046834E+02 -0.19996367953E+02  0.47267926931E-01  0.41478379542E+02  0.00000000000E+00 0.  1.
<mgrwt>
<rscale>  2 0.18731466E+03</rscale>
<asrwt>0</asrwt>
<pdfrwt beam="1">  1       21 0.37060615E-01 0.18733031E+03</pdfrwt>
<pdfrwt beam="2">  1       21 0.23708345E-01 0.18733031E+03</pdfrwt>
<totfact> 0.11788382E+05</totfact>
</mgrwt>
</event>
<event>
12    1  0.1029207E-001  0.2064876E+03  0.7546771E-02  0.1144484E+00
         21   -1    0    0  503  502  0.00000000000E+00  0.00000000000E+00  0.88528744815E+02  0.88528744815E+02  0.00000000000E+00 0.  1.
         21   -1    0    0  501  503 -0.00000000000E+00 -0.00000000000E+00 -0.48328457333E+03  0.48328457333E+03  0.00000000000E+00 0.  1.
          6    2    1    2  501    0 -0.10615408952E+03 -0.33303182683E+02 -0.17502698182E+03  0.27028738836E+03  0.17332926829E+03 0.  0.
         24    2    3    3    0    0 -0.63675838263E+02  0.88894546168E+01 -0.20778230540E+02  0.10475978419E+03  0.80057746268E+02 0.  0.
         -6    2    1    2    0  502  0.10615408952E+03  0.33303182683E+02 -0.21972884669E+03  0.30152592978E+03  0.17395208409E+03 0.  0.
        -24    2    5    5    0    0  0.14902832996E+02  0.65671352316E+02 -0.15034275026E+03  0.18231598640E+03  0.78111173285E+02 0.  0.
          5    1    3    3  501    0 -0.42478251261E+02 -0.42192637300E+02 -0.15424875128E+03  0.16552760417E+03  0.47000000000E+01 0. -1.
        -11    1    4    4    0    0 -0.69584060817E+02 -0.12091632013E+02 -0.34908861890E+02  0.78783105568E+02  0.00000000000E+00 0.  1.
         12    1    4    4    0    0  0.59082225536E+01  0.20981086630E+02  0.14130631350E+02  0.25976678623E+02  0.00000000000E+00 0. -1.
         -5    1    5    5    0  502  0.91251256528E+02 -0.32368169633E+02 -0.69386096429E+02  0.11920994338E+03  0.47000000000E+01 0.  1.
         13    1    6    6    0    0  0.23320483561E+02  0.76162051425E+02 -0.14879956815E+03  0.16877741114E+03  0.00000000000E+00 0. -1.
        -14    1    6    6    0    0 -0.84176505657E+01 -0.10490699109E+02 -0.15431821160E+01  0.13538575253E+02  0.00000000000E+00 0.  1.
<mgrwt>
<rscale>  2 0.20635635E+03</rscale>
<asrwt>0</asrwt>
<pdfrwt beam="1">  1       21 0.13619807E-01 0.20648758E+03</pdfrwt>
<pdfrwt beam="2">  1       21 0.74351471E-01 0.20648758E+03</pdfrwt>
<totfact> 0.75291404E+04</totfact>
</mgrwt>
</event>
<event>
12    1  0.1029207E-001  0.1831197E+03  0.7546771E-02  0.1165242E+00
         21   -1    0    0  501  502  0.00000000000E+00  0.00000000000E+00  0.63719782195E+02  0.63719782195E+02  0.00000000000E+00 0.  1.
         21   -1    0    0  502  503 -0.00000000000E+00 -0.00000000000E+00 -0.58379013338E+03  0.58379013338E+03  0.00000000000E+00 0.  1.
         -6    2    1    2    0  503 -0.21180408449E+02 -0.51024913058E+02 -0.36495714997E+03  0.40752467210E+03  0.17271504163E+03 0.  0.
        -24    2    3    3    0    0 -0.59217216849E+02  0.12144407208E+02 -0.26110106648E+03  0.28006747186E+03  0.81301023855E+02 0.  0.
          6    2    1    2  501    0  0.21180408449E+02  0.51024913058E+02 -0.15511320122E+03  0.23998524347E+03  0.17458711418E+03 0.  0.
         24    2    5    5    0    0  0.15236909406E+02 -0.40867645347E+02 -0.94788923732E+02  0.12980050803E+03  0.77206890736E+02 0.  0.
          5    1    5    5  501    0  0.59434990432E+01  0.91892558406E+02 -0.60324277486E+02  0.11018473545E+03  0.47000000000E+01 0. -1.
        -13    1    6    6    0    0  0.36801288159E+02 -0.11255500121E+01 -0.18710936137E+02  0.41300130800E+02  0.00000000000E+00 0.  1.
         14    1    6    6    0    0 -0.21564378753E+02 -0.39742095335E+02 -0.76077987595E+02  0.88500377226E+02  0.00000000000E+00 0. -1.
         -5    1    3    3    0  503  0.38036808399E+02 -0.63169320266E+02 -0.10385608349E+03  0.12745720025E+03  0.47000000000E+01 0.  1.
         13    1    4    4    0    0 -0.28243360151E+02  0.37657572127E+02 -0.67130715877E+02  0.81989713655E+02  0.00000000000E+00 0. -1.
        -14    1    4    4    0    0 -0.30973856698E+02 -0.25513164919E+02 -0.19397035060E+03  0.19807775820E+03  0.00000000000E+00 0.  1.
<mgrwt>
<rscale>  2 0.18267204E+03</rscale>
<asrwt>0</asrwt>
<pdfrwt beam="1">  1       21 0.98030439E-02 0.18311967E+03</pdfrwt>
<pdfrwt beam="2">  1       21 0.89813862E-01 0.18311967E+03</pdfrwt>
<totfact> 0.89072276E+04</totfact>
</mgrwt>
</event>
<event>
12    1  0.1029207E-001  0.2489422E+03  0.7546771E-02  0.1114184E+00
         21   -1    0    0  503  502  0.00000000000E+00  0.00000000000E+00  0.72667401077E+03  0.72667401077E+03  0.00000000000E+00 0. -1.
         21   -1    0    0  501  503 -0.00000000000E+00 -0.00000000000E+00 -0.16077268405E+03  0.16077268405E+03  0.00000000000E+00 0. -1.
          6    2    1    2  501    0 -0.13296848970E+03  0.11754209695E+03 -0.22402899554E+02  0.24863994334E+03  0.17269385544E+03 0.  0.
         24    2    3    3    0    0 -0.27678369550E+02 -0.52876842494E+01 -0.21004802573E+01  0.85522063326E+02  0.80719016053E+02 0.  0.
         -6    2    1    2    0  502  0.13296848970E+03 -0.11754209695E+03  0.58830422628E+03  0.63880675148E+03  0.17457216064E+03 0.  0.
        -24    2    5    5    0    0  0.49524201015E+02 -0.93051787039E+02  0.18353814162E+03  0.22477728648E+03  0.75678910751E+02 0.  0.
          5    1    3    3  501    0 -0.10529012015E+03  0.12282978120E+03 -0.20302419297E+02  0.16311788001E+03  0.47000000000E+01 0. -1.
        -13    1    4    4    0    0 -0.26555557767E+02 -0.11488636129E+02  0.36405857095E+02  0.46503471260E+02  0.00000000000E+00 0.  1.
         14    1    4    4    0    0 -0.11228117832E+01  0.62009518801E+01 -0.38506337352E+02  0.39018592066E+02  0.00000000000E+00 0. -1.
         -5    1    5    5    0  502  0.83444288687E+02 -0.24490309907E+02  0.40476608466E+03  0.41402946500E+03  0.47000000000E+01 0.  1.
         13    1    6    6    0    0  0.52926603797E+02 -0.49553517898E+02  0.61161046943E+02  0.94854890168E+02  0.00000000000E+00 0. -1.
        -14    1    6    6    0    0 -0.34024027827E+01 -0.43498269141E+02  0.12237709468E+03  0.12992239632E+03  0.00000000000E+00 0.  1.
<mgrwt>
<rscale>  2 0.24861313E+03</rscale>
<asrwt>0</asrwt>
<pdfrwt beam="1">  1       21 0.11179600E+00 0.24894217E+03</pdfrwt>
<pdfrwt beam="2">  1       21 0.24734259E-01 0.24894217E+03</pdfrwt>
<totfact> 0.93563358E+03</totfact>
</mgrwt>
</event>
<event>
12    1  0.1029207E-001  0.3653071E+03  0.7546771E-02  0.1056543E+00
         21   -1    0    0  503  502  0.00000000000E+00  0.00000000000E+00  0.13402362311E+04  0.13402362311E+04  0.00000000000E+00 0. -1.
         21   -1    0    0  501  503 -0.00000000000E+00 -0.00000000000E+00 -0.74679987913E+03  0.74679987913E+03  0.00000000000E+00 0.  1.
          6    2    1    2  501    0 -0.26545622881E+03  0.18075598425E+03 -0.67480879640E+03  0.76734361402E+03  0.17409645321E+03 0.  0.
         24    2    3    3    0    0 -0.21079336805E+03  0.18984534849E+03 -0.63001141971E+03  0.69593255152E+03  0.83262398141E+02 0.  0.
         -6    2    1    2    0  502  0.26545622881E+03 -0.18075598425E+03  0.12682451483E+04  0.13196924962E+04  0.17321314296E+03 0.  0.
        -24    2    5    5    0    0  0.25792705492E+03 -0.19791040751E+03  0.10883985094E+04  0.11388116894E+04  0.81153273013E+02 0.  0.
          5    1    3    3  501    0 -0.54662860762E+02 -0.90893642410E+01 -0.44797376692E+02  0.71411062501E+02  0.47000000000E+01 0. -1.
        -13    1    4    4    0    0 -0.59737836613E+02  0.54467568899E+02 -0.27953352456E+03  0.29098851616E+03  0.00000000000E+00 0.  1.
         14    1    4    4    0    0 -0.15105553144E+03  0.13537777959E+03 -0.35047789515E+03  0.40494403536E+03  0.00000000000E+00 0. -1.
         -5    1    5    5    0  502  0.75291738882E+01  0.17154423263E+02  0.17984663898E+03  0.18088080675E+03  0.47000000000E+01 0.  1.
         13    1    6    6    0    0  0.10374995088E+03 -0.32396656566E+02  0.33527263959E+03  0.35245047669E+03  0.00000000000E+00 0. -1.
        -14    1    6    6    0    0  0.15417710404E+03 -0.16551375094E+03  0.75312586977E+03  0.78636121273E+03  0.00000000000E+00 0.  1.
<mgrwt>
<rscale>  2 0.36520207E+03</rscale>
<asrwt>0</asrwt>
<pdfrwt beam="1">  1       21 0.20619019E+00 0.36530715E+03</pdfrwt>
<pdfrwt beam="2">  1       21 0.11489229E+00 0.36530715E+03</pdfrwt>
<totfact> 0.59874025E+01</totfact>
</mgrwt>
</event>
<event>
12    1  0.1029207E-001  0.2784380E+03  0.7546771E-02  0.1096609E+00
         21   -1    0    0  503  502  0.00000000000E+00  0.00000000000E+00  0.37968206305E+03  0.37968206305E+03  0.00000000000E+00 0. -1.
         21   -1    0    0  501  503 -0.00000000000E+00 -0.00000000000E+00 -0.42430293750E+03  0.42430293750E+03  0.00000000000E+00 0.  1.
          6    2    1    2  501    0 -0.18081556256E+03  0.12212286329E+03 -0.31207733729E+03  0.41823436789E+03  0.17297242737E+03 0.  0.
         24    2    3    3    0    0 -0.13692049699E+03  0.87201580331E+02 -0.31352414938E+03  0.36192756501E+03  0.79641898298E+02 0.  0.
         -6    2    1    2    0  502  0.18081556256E+03 -0.12212286329E+03  0.26745646283E+03  0.38575063266E+03  0.17222755206E+03 0.  0.
        -24    2    5    5    0    0  0.12819294522E+03 -0.11678708383E+03  0.27224443111E+03  0.33243435899E+03  0.79516781966E+02 0.  0.
          5    1    3    3  501    0 -0.43895065572E+02  0.34921282958E+02  0.14468120850E+01  0.56306802877E+02  0.47000000000E+01 0. -1.
        -11    1    4    4    0    0 -0.33751363881E+02  0.58894542654E+02 -0.79015031217E+02  0.10416859832E+03  0.00000000000E+00 0.  1.
         12    1    4    4    0    0 -0.10316913311E+03  0.28307037677E+02 -0.23450911816E+03  0.25775896669E+03  0.00000000000E+00 0. -1.
         -5    1    5    5    0  502  0.52622617339E+02 -0.53357794601E+01 -0.47879682768E+01  0.53316273672E+02  0.47000000000E+01 0.  1.
         13    1    6    6    0    0  0.52094619516E+02 -0.84549600009E+02  0.19723088385E+03  0.22082233988E+03  0.00000000000E+00 0. -1.
        -14    1    6    6    0    0  0.76098325708E+02 -0.32237483819E+02  0.75013547257E+02  0.11161201911E+03  0.00000000000E+00 0.  1.
<mgrwt>
<rscale>  2 0.27832240E+03</rscale>
<asrwt>0</asrwt>
<pdfrwt beam="1">  1       21 0.58412625E-01 0.27843800E+03</pdfrwt>
<pdfrwt beam="2">  1       21 0.65277375E-01 0.27843800E+03</pdfrwt>
<totfact> 0.56053728E+03</totfact>
</mgrwt>
</event>
<event>
12    1  0.1029207E-001  0.2070003E+03  0.7546771E-02  0.1144347E+00
         21   -1    0    0  503  502  0.00000000000E+00  0.00000000000E+00  0.10367748069E+04  0.10367748069E+04  0.00000000000E+00 0. -1.
         21   -1    0    0  501  503 -0.00000000000E+00 -0.00000000000E+00 -0.41051394509E+02  0.41051394509E+02  0.00000000000E+00 0. -1.
          6    2    1    2  501    0 -0.61934512063E+02  0.90243422328E+02  0.52204743190E+03  0.56089481121E+03  0.17346385513E+03 0.  0.
         24    2    3    3    0    0 -0.91767223577E+02  0.21973980168E+02  0.39037163284E+03  0.40952997558E+03  0.80129333223E+02 0.  0.
         -6    2    1    2    0  502  0.61934512063E+02 -0.90243422328E+02  0.47367598053E+03  0.51693139024E+03  0.17569680879E+03 0.  0.
        -24    2    5    5    0    0  0.88835128337E+02 -0.11729137093E+03  0.35427128318E+03  0.39149293350E+03  0.78164116901E+02 0.  0.
          5    1    3    3  501    0  0.29832711514E+02  0.68269442161E+02  0.13167579906E+03  0.15136483564E+03  0.47000000000E+01 0. -1.
        -13    1    4    4    0    0 -0.18531031772E+02  0.14599682983E+02  0.24926687972E+03  0.25038076445E+03  0.00000000000E+00 0.  1.
         14    1    4    4    0    0 -0.73236191805E+02  0.73742971841E+01  0.14110475312E+03  0.15914921113E+03  0.00000000000E+00 0. -1.
         -5    1    5    5    0  502 -0.26900616274E+02  0.27047948601E+02  0.11940469735E+03  0.12543845674E+03  0.47000000000E+01 0.  1.
         13    1    6    6    0    0  0.65588614194E+02 -0.12191420931E+03  0.26319173822E+03  0.29737994521E+03  0.00000000000E+00 0. -1.
        -14    1    6    6    0    0  0.23246514143E+02  0.46228383851E+01  0.91079544962E+02  0.94112988291E+02  0.00000000000E+00 0.  1.
<mgrwt>
<rscale>  2 0.20652571E+03</rscale>
<asrwt>0</asrwt>
<pdfrwt beam="1">  1       21 0.15950380E+00 0.20700031E+03</pdfrwt>
<pdfrwt beam="2">  1       21 0.63156000E-02 0.20700031E+03</pdfrwt>
<totfact> 0.45449310E+04</totfact>
</mgrwt>
</event>
<event>
12    1  0.1029207E-001  0.1925914E+03  0.7546771E-02  0.1156419E+00
         21   -1    0    0  501  502  0.00000000000E+00  0.00000000000E+00  0.13068599392E+04  0.13068599392E+04  0.00000000000E+00 0. -1.
         21   -1    0    0  502  503 -0.00000000000E+00 -0.00000000000E+00 -0.50025394807E+02  0.50025394807E+02  0.00000000000E+00 0.  1.
         -6    2    1    2    0  503  0.73569004169E+02  0.32874932816E+02  0.17916079899E+03  0.26213780607E+03  0.17356404551E+03 0.  0.
        -24    2    3    3    0    0  0.90790740191E+02 -0.16823818405E+02  0.70190795269E+02  0.14104649434E+03  0.80258123927E+02 0.  0.
          6    2    1    2  501    0 -0.73569004169E+02 -0.32874932816E+02  0.10776737454E+04  0.10947475280E+04  0.17492366567E+03 0.  0.
         24    2    5    5    0    0 -0.47639702393E+02 -0.86838735120E+02  0.84061138519E+03  0.85019676985E+03  0.79978368313E+02 0.  0.
          5    1    5    5  501    0 -0.25929301776E+02  0.53963802304E+02  0.23706236025E+03  0.24455075812E+03  0.47000000000E+01 0. -1.
        -13    1    6    6    0    0 -0.19126033055E+02 -0.29171131901E+02  0.85384518978E+02  0.92234896639E+02  0.00000000000E+00 0.  1.
         14    1    6    6    0    0 -0.28513669338E+02 -0.57667603219E+02  0.75522686621E+03  0.75796187321E+03  0.00000000000E+00 0. -1.
         -5    1    3    3    0  503 -0.17221736022E+02  0.49698751221E+02  0.10897000372E+03  0.12109131173E+03  0.47000000000E+01 0.  1.
         11    1    4    4    0    0  0.68180282573E+01  0.14920338270E+02  0.44865047170E+02  0.47770016338E+02  0.00000000000E+00 0. -1.
        -12    1    4    4    0    0  0.83972711933E+02 -0.31744156675E+02  0.25325748100E+02  0.93276478006E+02  0.00000000000E+00 0.  1.
<mgrwt>
<rscale>  2 0.19228215E+03</rscale>
<asrwt>0</asrwt>
<pdfrwt beam="1">  1       21 0.20105535E+00 0.19259140E+03</pdfrwt>
<pdfrwt beam="2">  1       21 0.76962156E-02 0.19259140E+03</pdfrwt>
<totfact> 0.16969369E+04</totfact>
</mgrwt>
</event>
<event>
12    1  0.1029207E-001  0.2637176E+03  0.7546771E-02  0.1105306E+00
         21   -1    0    0  501  502  0.00000000000E+00  0.00000000000E+00  0.18203925020E+03  0.18203925020E+03  0.00000000000E+00 0.  1.
         21   -1    0    0  502  503 -0.00000000000E+00 -0.00000000000E+00 -0.58422815671E+03  0.58422815671E+03  0.00000000000E+00 0.  1.
         -6    2    1    2    0  503  0.18351602832E+03 -0.67956329380E+02 -0.42788465947E+03  0.50130094849E+03  0.17297735054E+03 0.  0.
        -24    2    3    3    0    0  0.14169378166E+03  0.39641210702E+01 -0.19572399856E+03  0.25463860037E+03  0.80250178623E+02 0.  0.
          6    2    1    2  501    0 -0.18351602832E+03  0.67956329380E+02  0.25695752961E+02  0.26496645842E+03  0.17677883644E+03 0.  0.
         24    2    5    5    0    0 -0.52470178446E+02 -0.27993182232E+02 -0.85462281634E+01  0.98912470751E+02  0.78574174998E+02 0.  0.
          5    1    5    5  501    0 -0.13104584988E+03  0.95949511613E+02  0.34241981125E+02  0.16605398767E+03  0.47000000000E+01 0. -1.
        -13    1    6    6    0    0 -0.52447791680E+02  0.12425098377E+02  0.93585734162E+01  0.54705912096E+02  0.00000000000E+00 0.  1.
         14    1    6    6    0    0 -0.22386765587E-01 -0.40418280609E+02 -0.17904801580E+02  0.44206558656E+02  0.00000000000E+00 0. -1.
         -5    1    3    3    0  503  0.41822246661E+02 -0.71920450451E+02 -0.23216066091E+03  0.24666234812E+03  0.47000000000E+01 0.  1.
         11    1    4    4    0    0  0.15027984368E+02  0.15214694710E+02 -0.79627525555E+02  0.82449196935E+02  0.00000000000E+00 0. -1.
        -12    1    4    4    0    0  0.12666579729E+03 -0.11250573640E+02 -0.11609647301E+03  0.17218940344E+03  0.00000000000E+00 0.  1.
<mgrwt>
<rscale>  2 0.26308201E+03</rscale>
<asrwt>0</asrwt>
<pdfrwt beam="1">  1       21 0.28006038E-01 0.26371756E+03</pdfrwt>
<pdfrwt beam="2">  1       21 0.89881256E-01 0.26371756E+03</pdfrwt>
<totfact> 0.12304849E+04</totfact>
</mgrwt>
</event>
<event>
12    1  0.1029207E-001  0.1872476E+03  0.7546771E-02  0.1161151E+00
         21   -1    0    0  503  502  0.00000000000E+00  0.00000000000E+00  0.11423191346E+03  0.11423191346E+03  0.00000000000E+00 0.  1.
         21   -1    0    0  501  503 -0.00000000000E+00 -0.00000000000E+00 -0.44152367616E+03  0.44152367616E+03  0.00000000000E+00 0. -1.
          6    2    1    2  501    0 -0.67678040085E+02 -0.31872896209E+02 -0.31804836425E+03  0.36907507733E+03  0.17165503803E+03 0.  0.
         24    2    3    3    0    0 -0.47420065179E+01  0.42176385431E+02 -0.13753706023E+03  0.16401249832E+03  0.78627746718E+02 0.  0.
         -6    2    1    2    0  502  0.67678040085E+02  0.31872896209E+02 -0.92433984519E+01  0.18668051229E+03  0.17078634205E+03 0.  0.
        -24    2    5    5    0    0  0.94700003998E+02  0.59461031676E+02 -0.30785696776E+02  0.14221195745E+03  0.82296881293E+02 0.  0.
          5    1    3    3  501    0 -0.62936033567E+02 -0.74049281640E+02 -0.18051130402E+03  0.20506257901E+03  0.47000000000E+01 0. -1.
        -13    1    4    4    0    0  0.26910253070E+02 -0.61350393118E+01 -0.23775706617E+02  0.36429173100E+02  0.00000000000E+00 0.  1.
         14    1    4    4    0    0 -0.31652259588E+02  0.48311424743E+02 -0.11376135361E+03  0.12758332522E+03  0.00000000000E+00 0. -1.
         -5    1    5    5    0  502 -0.27021963913E+02 -0.27588135467E+02  0.21542298324E+02  0.44468554838E+02  0.47000000000E+01 0.  1.
         13    1    6    6    0    0  0.55319931455E+02  0.60320401593E+01 -0.48168996010E+02  0.73599813187E+02  0.00000000000E+00 0. -1.
        -14    1    6    6    0    0  0.39380072543E+02  0.53428991517E+02  0.17383299234E+02  0.68612144263E+02  0.00000000000E+00 0.  1.
<mgrwt>
<rscale>  2 0.18704824E+03</rscale>
<asrwt>0</asrwt>
<pdfrwt beam="1">  1       21 0.17574140E-01 0.18724757E+03</pdfrwt>
<pdfrwt beam="2">  1       21 0.67926721E-01 0.18724757E+03</pdfrwt>
<totfact> 0.58233449E+04</totfact>
</mgrwt>
</event>
<event>
12    1  0.1029207E-001  0.1842955E+03  0.7546771E-02  0.1165235E+00
         21   -1    0    0  503  502  0.00000000000E+00  0.00000000000E+00  0.95140059262E+03  0.95140059262E+03  0.00000000000E+00 0. -1.
         21   -1    0    0  501  503 -0.00000000000E+00 -0.00000000000E+00 -0.34586523509E+02  0.34586523509E+02  0.00000000000E+00 0. -1.
          6    2    1    2  501    0  0.33450255592E+02 -0.33669516288E+02  0.43840562910E+03  0.47556735714E+03  0.17807936329E+03 0.  0.
         24    2    3    3    0    0 -0.34039540753E+02 -0.14580720639E+02  0.35820330919E+03  0.36891954024E+03  0.80129449719E+02 0.  0.
         -6    2    1    2    0  502 -0.33450255592E+02  0.33669516288E+02  0.47840844001E+03  0.51041975898E+03  0.17146760324E+03 0.  0.
        -24    2    5    5    0    0  0.11089923962E+02 -0.29586944241E+02  0.35185124693E+03  0.36201483819E+03  0.79101639842E+02 0.  0.
          5    1    3    3  501    0  0.67489796346E+02 -0.19088795650E+02  0.80202319912E+02  0.10664781690E+03  0.47000000000E+01 0. -1.
        -13    1    4    4    0    0 -0.53949424656E+02  0.35335940961E+01  0.29948071697E+03  0.30432174840E+03  0.00000000000E+00 0.  1.
         14    1    4    4    0    0  0.19909883903E+02 -0.18114314735E+02  0.58722592213E+02  0.64597791848E+02  0.00000000000E+00 0. -1.
         -5    1    5    5    0  502 -0.44540179554E+02  0.63256460529E+02  0.12655719308E+03  0.14840492079E+03  0.47000000000E+01 0.  1.
         11    1    6    6    0    0 -0.18018146061E+02  0.13056688778E+02  0.20784330806E+03  0.20903102978E+03  0.00000000000E+00 0. -1.
        -12    1    6    6    0    0  0.29108070023E+02 -0.42643633019E+02  0.14400793887E+03  0.15298380841E+03  0.00000000000E+00 0.  1.
<mgrwt>
<rscale>  2 0.18267917E+03</rscale>
<asrwt>0</asrwt>
<pdfrwt beam="1">  1       21 0.14636930E+00 0.18429546E+03</pdfrwt>
<pdfrwt beam="2">  1       21 0.53210043E-02 0.18429546E+03</pdfrwt>
<totfact> 0.77464692E+04</totfact>
</mgrwt>
</event>
<event>
12    1  0.1029207E-001  0.2041505E+03  0.7546771E-02  0.1146286E+00
         21   -1    0    0  503  502  0.00000000000E+00  0.00000000000E+00  0.23578802405E+03  0.23578802405E+03  0.00000000000E+00 0. -1.
         21   -1    0    0  501  503 -0.00000000000E+00 -0.00000000000E+00 -0.21213757722E+03  0.21213757722E+03  0.00000000000E+00 0. -1.
          6    2    1    2  501    0  0.23176376333E+02 -0.10618320518E+03  0.10330182625E+03  0.22879840056E+03  0.17281615465E+03 0.  0.
         24    2    3    3    0    0  0.41229724214E+02 -0.94178461302E+02  0.73342654999E+01  0.13030017742E+03  0.79717451366E+02 0.  0.
         -6    2    1    2    0  502 -0.23176376333E+02  0.10618320518E+03 -0.79651379419E+02  0.21912720071E+03  0.17280153462E+03 0.  0.
        -24    2    5    5    0    0 -0.24136633681E+02  0.44941268946E+02  0.14094980539E+02  0.10704702025E+03  0.93048919003E+02 0.  0.
          5    1    3    3  501    0 -0.18053347882E+02 -0.12004743877E+02  0.95967560752E+02  0.98498223141E+02  0.47000000000E+01 0. -1.
        -13    1    4    4    0    0  0.41579194004E+02 -0.89018876695E+02  0.33364537001E+02  0.10376117825E+03  0.00000000000E+00 0.  1.
         14    1    4    4    0    0 -0.34946979002E+00 -0.51595846077E+01 -0.26030271501E+02  0.26538999169E+02  0.00000000000E+00 0. -1.
         -5    1    5    5    0  502  0.96025734814E+00  0.61241936233E+02 -0.93746359958E+02  0.11208018047E+03  0.47000000000E+01 0.  1.
         11    1    6    6    0    0 -0.23476436929E+02  0.59383668065E+02 -0.22496704444E+02  0.67702768293E+02  0.00000000000E+00 0. -1.
        -12    1    6    6    0    0 -0.66019675201E+00 -0.14442399118E+02  0.36591684983E+02  0.39344251955E+02  0.00000000000E+00 0.  1.
<mgrwt>
<rscale>  2 0.20414744E+03</rscale>
<asrwt>0</asrwt>
<pdfrwt beam="1">  1       21 0.36275081E-01 0.20415053E+03</pdfrwt>
<pdfrwt beam="2">  1       21 0.32636550E-01 0.20415053E+03</pdfrwt>
<totfact> 0.65874689E+04</totfact>
</mgrwt>
</event>
<event>
12    1  0.1029207E-001  0.1756914E+03  0.7546771E-02  0.1172164E+00
         21   -1    0    0  501  502  0.00000000000E+00  0.00000000000E+00  0.26279579577E+03  0.26279579577E+03  0.00000000000E+00 0. -1.
         21   -1    0    0  502  503 -0.00000000000E+00 -0.00000000000E+00 -0.16649492964E+03  0.16649492964E+03  0.00000000000E+00 0. -1.
         -6    2    1    2    0  503  0.16640499699E+02  0.14536613813E+02 -0.68779730341E+02  0.18821172945E+03  0.17379523706E+03 0.  0.
        -24    2    3    3    0    0  0.38854454759E+02  0.91910101819E+01 -0.10926576876E+03  0.14148652657E+03  0.80531271275E+02 0.  0.
          6    2    1    2  501    0 -0.16640499699E+02 -0.14536613813E+02  0.16508059647E+03  0.24107899596E+03  0.17429647038E+03 0.  0.
         24    2    5    5    0    0  0.20978105894E+02 -0.69369894904E+02  0.88817264932E+02  0.13978717033E+03  0.79998019925E+02 0.  0.
          5    1    5    5  501    0 -0.37618605593E+02  0.54833281090E+02  0.76263331541E+02  0.10129182563E+03  0.47000000000E+01 0. -1.
        -11    1    6    6    0    0 -0.30245078491E+02 -0.23227471833E+02  0.23360595790E+02  0.44721333348E+02  0.00000000000E+00 0.  1.
         12    1    6    6    0    0  0.51223184385E+02 -0.46142423070E+02  0.65456669141E+02  0.95065836978E+02  0.00000000000E+00 0. -1.
         -5    1    3    3    0  503 -0.22213955060E+02  0.53456036316E+01  0.40486038423E+02  0.46725202887E+02  0.47000000000E+01 0.  1.
         11    1    4    4    0    0 -0.12267353294E+02 -0.23661948466E+02 -0.49687862980E+02  0.56384922537E+02  0.00000000000E+00 0. -1.
        -12    1    4    4    0    0  0.51121808053E+02  0.32852958648E+02 -0.59577905784E+02  0.85101604028E+02  0.00000000000E+00 0.  1.
<mgrwt>
<rscale>  2 0.17556699E+03</rscale>
<asrwt>0</asrwt>
<pdfrwt beam="1">  1       21 0.40430123E-01 0.17569143E+03</pdfrwt>
<pdfrwt beam="2">  1       21 0.25614604E-01 0.17569143E+03</pdfrwt>
<totfact> 0.85814898E+04</totfact>
</mgrwt>
</event>
<event>
12    1  0.1029207E-001  0.1911498E+03  0.7546771E-02  0.1157455E+00
         21   -1    0    0  503  502  0.00000000000E+00  0.00000000000E+00  0.39282101077E+02  0.39282101077E+02  0.00000000000E+00 0. -1.
         21   -1    0    0  501  503 -0.00000000000E+00 -0.00000000000E+00 -0.94455494916E+03  0.94455494916E+03  0.00000000000E+00 0.  1.
          6    2    1    2  501    0 -0.51674873003E+02 -0.62298697642E+02 -0.39053640854E+03  0.43475431442E+03  0.17303527756E+03 0.  0.
         24    2    3    3    0    0  0.16434465441E+02 -0.56664933305E+02 -0.32702053408E+03  0.34133602074E+03  0.78018222408E+02 0.  0.
         -6    2    1    2    0  502  0.51674873003E+02  0.62298697642E+02 -0.51473643954E+03  0.54908273582E+03  0.17316705332E+03 0.  0.
        -24    2    5    5    0    0 -0.23703441254E+02  0.14674927749E+02 -0.14417872504E+03  0.16792001008E+03  0.81439661091E+02 0.  0.
          5    1    3    3  501    0 -0.68109338444E+02 -0.56337643375E+01 -0.63515874463E+02  0.93418293673E+02  0.47000000000E+01 0. -1.
        -11    1    4    4    0    0 -0.29342226851E+02 -0.25637247780E+02 -0.18211226661E+03  0.18623402590E+03  0.00000000000E+00 0.  1.
         12    1    4    4    0    0  0.45776692292E+02 -0.31027685525E+02 -0.14490826746E+03  0.15510199485E+03  0.00000000000E+00 0. -1.
         -5    1    5    5    0  502  0.75378314257E+02  0.47623769893E+02 -0.37055771450E+03  0.38116272574E+03  0.47000000000E+01 0.  1.
         13    1    6    6    0    0 -0.30834247867E+02 -0.18207178983E+02 -0.12313201792E+03  0.12823317061E+03  0.00000000000E+00 0. -1.
        -14    1    6    6    0    0  0.71308066132E+01  0.32882106732E+02 -0.21046707117E+02  0.39686839463E+02  0.00000000000E+00 0.  1.
<mgrwt>
<rscale>  2 0.19111996E+03</rscale>
<asrwt>0</asrwt>
<pdfrwt beam="1">  1       21 0.60433998E-02 0.19114981E+03</pdfrwt>
<pdfrwt beam="2">  1       21 0.14531616E+00 0.19114981E+03</pdfrwt>
<totfact> 0.63312641E+04</totfact>
</mgrwt>
</event>
<event>
12    1  0.1029207E-001  0.2283980E+03  0.7546771E-02  0.1129241E+00
         21   -1    0    0  501  502  0.00000000000E+00  0.00000000000E+00  0.14686497945E+04  0.14686497945E+04  0.00000000000E+00 0.  1.
         21   -1    0    0  502  503 -0.00000000000E+00 -0.00000000000E+00 -0.64730198070E+02  0.64730198070E+02  0.00000000000E+00 0.  1.
         -6    2    1    2    0  503 -0.12215460194E+03  0.60530633017E+02  0.18278014813E+03  0.29253072571E+03  0.18324829774E+03 0.  0.
        -24    2    3    3    0    0 -0.13326359664E+03  0.84975343096E+02  0.96954942835E+02  0.20248068697E+03  0.81352151359E+02 0.  0.
          6    2    1    2  501    0  0.12215460194E+03 -0.60530633017E+02  0.12211394483E+04  0.12408492669E+04  0.17303076767E+03 0.  0.
         24    2    5    5    0    0  0.34277253384E+00 -0.32902459464E+02  0.66430089166E+03  0.67015433441E+03  0.82027239021E+02 0.  0.
          5    1    5    5  501    0  0.12181182941E+03 -0.27628173553E+02  0.55683855665E+03  0.57069493246E+03  0.47000000000E+01 0. -1.
        -13    1    6    6    0    0  0.16322629336E+02 -0.42844859675E+02  0.62392708979E+03  0.62560940178E+03  0.00000000000E+00 0.  1.
         14    1    6    6    0    0 -0.15979856802E+02  0.99424002113E+01  0.40373801869E+02  0.44544932627E+02  0.00000000000E+00 0. -1.
         -5    1    3    3    0  503  0.11108994693E+02 -0.24444710079E+02  0.85825205293E+02  0.90050038743E+02  0.47000000000E+01 0.  1.
         13    1    4    4    0    0 -0.15654246300E+02  0.10759462870E+02 -0.14794512016E+02  0.24076940301E+02  0.00000000000E+00 0. -1.
        -14    1    4    4    0    0 -0.11760935034E+03  0.74215880226E+02  0.11174945485E+03  0.17840374666E+03  0.00000000000E+00 0.  1.
<mgrwt>
<rscale>  2 0.22634208E+03</rscale>
<asrwt>0</asrwt>
<pdfrwt beam="1">  1       21 0.22594610E+00 0.22839799E+03</pdfrwt>
<pdfrwt beam="2">  1       21 0.99584931E-02 0.22839799E+03</pdfrwt>
<totfact> 0.73298887E+03</totfact>
</mgrwt>
</event>
<event>
12    1  0.1029207E-001  0.1786257E+03  0.7546771E-02  0.1169875E+00
         21   -1    0    0  503  502  0.00000000000E+00  0.00000000000E+00  0.28657563704E+02  0.28657563704E+02  0.00000000000E+00 0.  1.
         21   -1    0    0  501  503 -0.00000000000E+00 -0.00000000000E+00 -0.11984551500E+04  0.11984551500E+04  0.00000000000E+00 0.  1.
          6    2    1    2  501    0 -0.30156141040E+02  0.11344723995E+02 -0.76974324830E+03  0.79019731354E+03  0.17569584634E+03 0.  0.
         24    2    3    3    0    0 -0.98652201768E+01  0.62931482670E+02 -0.65282776064E+03  0.66072053418E+03  0.79434533671E+02 0.  0.
         -6    2    1    2    0  502  0.30156141040E+02 -0.11344723995E+02 -0.40005433797E+03  0.43691540013E+03  0.17266585633E+03 0.  0.
        -24    2    5    5    0    0  0.30356576502E+02 -0.64586904328E+02 -0.17187938666E+03  0.20256380883E+03  0.79978641792E+02 0.  0.
          5    1    3    3  501    0 -0.20290920863E+02 -0.51586758675E+02 -0.11691548766E+03  0.12947677936E+03  0.47000000000E+01 0. -1.
        -11    1    4    4    0    0  0.25435378084E+02  0.54784126618E+01 -0.32440717256E+03  0.32544889779E+03  0.00000000000E+00 0.  1.
         12    1    4    4    0    0 -0.35300598261E+02  0.57453070008E+02 -0.32842058808E+03  0.33527163639E+03  0.00000000000E+00 0. -1.
         -5    1    5    5    0  502 -0.20043546196E+00  0.53242180333E+02 -0.22817495131E+03  0.23435159130E+03  0.47000000000E+01 0.  1.
         11    1    6    6    0    0  0.12713963218E+02 -0.66979593019E+02 -0.17172061472E+03  0.18475897884E+03  0.00000000000E+00 0. -1.
        -12    1    6    6    0    0  0.17642613284E+02  0.23926886916E+01 -0.15877194152E+00  0.17804829996E+02  0.00000000000E+00 0.  1.
<mgrwt>
<rscale>  2 0.17787609E+03</rscale>
<asrwt>0</asrwt>
<pdfrwt beam="1">  1       21 0.44088554E-02 0.17862566E+03</pdfrwt>
<pdfrwt beam="2">  1       21 0.18437774E+00 0.17862566E+03</pdfrwt>
<totfact> 0.57045460E+04</totfact>
</mgrwt>
</event>
<event>
12    1  0.1029207E-001  0.1768128E+03  0.7546771E-02  0.1171186E+00
         21   -1    0    0  501  502  0.00000000000E+00  0.00000000000E+00  0.24456540224E+03  0.24456540224E+03  0.00000000000E+00 0. -1.
         21   -1    0    0  502  503 -0.00000000000E+00 -0.00000000000E+00 -0.24034381251E+03  0.24034381251E+03  0.00000000000E+00 0. -1.
         -6    2    1    2    0  503 -0.24775970751E+02  0.14167661802E+02 -0.16434089115E+03  0.24062235282E+03  0.17342611339E+03 0.  0.
        -24    2    3    3    0    0 -0.17223654401E+02  0.71338355342E+02 -0.14169488629E+03  0.17848977507E+03  0.79970893388E+02 0.  0.
          6    2    1    2  501    0  0.24775970751E+02 -0.14167661802E+02  0.16856248088E+03  0.24428686193E+03  0.17449409612E+03 0.  0.
         24    2    5    5    0    0  0.24567721693E+02 -0.37650199307E+02  0.75648896750E+01  0.81517739209E+02  0.67578131026E+02 0.  0.
          5    1    5    5  501    0  0.20824905798E+00  0.23482537505E+02  0.16099759121E+03  0.16276912272E+03  0.47000000000E+01 0. -1.
        -11    1    6    6    0    0 -0.81851380531E+01  0.15350264297E+02 -0.46956282291E+01  0.18018768643E+02  0.00000000000E+00 0.  1.
         12    1    6    6    0    0  0.32752859746E+02 -0.53000463604E+02  0.12260517904E+02  0.63498970567E+02  0.00000000000E+00 0. -1.
         -5    1    3    3    0  503 -0.75523163504E+01 -0.57170693540E+02 -0.22646004856E+02  0.62132577751E+02  0.47000000000E+01 0.  1.
         13    1    4    4    0    0 -0.68948356484E+01  0.11678883099E+02 -0.10868709400E+03  0.10952999348E+03  0.00000000000E+00 0. -1.
        -14    1    4    4    0    0 -0.10328818752E+02  0.59659472243E+02 -0.33007792291E+02  0.68959781591E+02  0.00000000000E+00 0.  1.
<mgrwt>
<rscale>  2 0.17654872E+03</rscale>
<asrwt>0</asrwt>
<pdfrwt beam="1">  1       21 0.37625447E-01 0.17681279E+03</pdfrwt>
<pdfrwt beam="2">  1       21 0.36975971E-01 0.17681279E+03</pdfrwt>
<totfact> 0.48420186E+04</totfact>
</mgrwt>
</event>
<event>
12    1  0.1029207E-001  0.2464689E+03  0.7546771E-02  0.1116147E+00
         21   -1    0    0  503  502  0.00000000000E+00  0.00000000000E+00  0.14266062401E+04  0.14266062401E+04  0.00000000000E+00 0.  1.
         21   -1    0    0  501  503 -0.00000000000E+00 -0.00000000000E+00 -0.83919559700E+02  0.83919559700E+02  0.00000000000E+00 0. -1.
          6    2    1    2  501    0  0.91386433208E+02 -0.14387081951E+03  0.13976486882E+03  0.28333927941E+03  0.17803549033E+03 0.  0.
         24    2    3    3    0    0 -0.20750473541E+02 -0.70216611012E+02  0.86618663729E+02  0.13895701803E+03  0.80282659020E+02 0.  0.
         -6    2    1    2    0  502 -0.91386433208E+02  0.14387081951E+03  0.12029218116E+04  0.12271865204E+04  0.17296120428E+03 0.  0.
        -24    2    5    5    0    0 -0.71131653089E+02  0.11751710030E+02  0.58984144316E+03  0.59968724282E+03  0.80709642433E+02 0.  0.
          5    1    3    3  501    0  0.11213690675E+03 -0.73654208494E+02  0.53146205091E+02  0.14438226138E+03  0.47000000000E+01 0. -1.
        -11    1    4    4    0    0  0.37509606309E+01 -0.11236398384E+02  0.72612369488E+02  0.73572294765E+02  0.00000000000E+00 0.  1.
         12    1    4    4    0    0 -0.24501434172E+02 -0.58980212628E+02  0.14006294241E+02  0.65384723265E+02  0.00000000000E+00 0. -1.
         -5    1    5    5    0  502 -0.20254780119E+02  0.13211910948E+03  0.61308036842E+03  0.62749927757E+03  0.47000000000E+01 0.  1.
         11    1    6    6    0    0 -0.67819274701E+02 -0.18295110570E+02  0.29263720840E+03  0.30094966495E+03  0.00000000000E+00 0. -1.
        -12    1    6    6    0    0 -0.33123783878E+01  0.30046820600E+02  0.29720423475E+03  0.29873757787E+03  0.00000000000E+00 0.  1.
<mgrwt>
<rscale>  2 0.24555383E+03</rscale>
<asrwt>0</asrwt>
<pdfrwt beam="1">  1       21 0.21947787E+00 0.24646892E+03</pdfrwt>
<pdfrwt beam="2">  1       21 0.12910703E-01 0.24646892E+03</pdfrwt>
<totfact> 0.49770138E+03</totfact>
</mgrwt>
</event>
<event>
12    1  0.1029207E-001  0.2424918E+03  0.7546771E-02  0.1118589E+00
         21   -1    0    0  503  502  0.00000000000E+00  0.00000000000E+00  0.47541806263E+02  0.47541806263E+02  0.00000000000E+00 0. -1.
         21   -1    0    0  501  503 -0.00000000000E+00 -0.00000000000E+00 -0.13879915638E+04  0.13879915638E+04  0.00000000000E+00 0. -1.
          6    2    1    2  501    0 -0.11430069865E+03 -0.12017552848E+03 -0.91427526175E+03  0.94519982763E+03  0.17319541723E+03 0.  0.
         24    2    3    3    0    0 -0.15338748366E+01 -0.75299873952E+02 -0.60889385986E+03  0.61655097012E+03  0.60917504820E+02 0.  0.
         -6    2    1    2    0  502  0.11430069865E+03  0.12017552848E+03 -0.42617449577E+03  0.49033354242E+03  0.17690527017E+03 0.  0.
        -24    2    5    5    0    0  0.98109017943E+02  0.62151398510E+02 -0.40045769283E+03  0.42466456849E+03  0.80532330439E+02 0.  0.
          5    1    3    3  501    0 -0.11276682381E+03 -0.44875654531E+02 -0.30538140189E+03  0.32864885751E+03  0.47000000000E+01 0. -1.
        -13    1    4    4    0    0 -0.25072741465E+02 -0.37474756133E+02 -0.42285279632E+03  0.42524991131E+03  0.00000000000E+00 0.  1.
         14    1    4    4    0    0  0.23538866628E+02 -0.37825117819E+02 -0.18604106354E+03  0.19130105882E+03  0.00000000000E+00 0. -1.
         -5    1    5    5    0  502  0.16191680705E+02  0.58024129974E+02 -0.25716802946E+02  0.65668973930E+02  0.47000000000E+01 0.  1.
         11    1    6    6    0    0  0.10554947514E+03  0.51110376147E+02 -0.39132430184E+03  0.40851887529E+03  0.00000000000E+00 0. -1.
        -12    1    6    6    0    0 -0.74404571962E+01  0.11041022363E+02 -0.91333909846E+01  0.16145693202E+02  0.00000000000E+00 0.  1.
<mgrwt>
<rscale>  2 0.24181574E+03</rscale>
<asrwt>0</asrwt>
<pdfrwt beam="1">  1       21 0.73141247E-02 0.24249182E+03</pdfrwt>
<pdfrwt beam="2">  1       21 0.21353714E+00 0.24249182E+03</pdfrwt>
<totfact> 0.14893296E+04</totfact>
</mgrwt>
</event>
<event>
12    1  0.1029207E-001  0.1864711E+03  0.7546771E-02  0.1161783E+00
         21   -1    0    0  503  502  0.00000000000E+00  0.00000000000E+00  0.27380842454E+03  0.27380842454E+03  0.00000000000E+00 0.  1.
         21   -1    0    0  501  503 -0.00000000000E+00 -0.00000000000E+00 -0.18617329884E+03  0.18617329884E+03  0.00000000000E+00 0. -1.
          6    2    1    2  501    0 -0.59684750986E+02  0.37089305983E+02 -0.86141182033E+02  0.20540633642E+03  0.17272398120E+03 0.  0.
         24    2    3    3    0    0 -0.10121097140E+03  0.55493094607E+02 -0.59128185524E+02  0.15235053186E+03  0.79946219127E+02 0.  0.
         -6    2    1    2    0  502  0.59684750986E+02 -0.37089305983E+02  0.17377630774E+03  0.25457538696E+03  0.17225718097E+03 0.  0.
        -24    2    5    5    0    0 -0.27118507787E+02 -0.23356922222E+02  0.45499690083E+02  0.99010722804E+02  0.80323982422E+02 0.  0.
          5    1    3    3  501    0  0.41526220414E+02 -0.18403788624E+02 -0.27012996509E+02  0.53055804565E+02  0.47000000000E+01 0. -1.
        -13    1    4    4    0    0 -0.48375324775E+02  0.60926414397E+02 -0.72970297755E+01  0.78137357659E+02  0.00000000000E+00 0.  1.
         14    1    4    4    0    0 -0.52835646626E+02 -0.54333197899E+01 -0.51831155748E+02  0.74213174198E+02  0.00000000000E+00 0. -1.
         -5    1    5    5    0  502  0.86803258773E+02 -0.13732383761E+02  0.12827661765E+03  0.15556466416E+03  0.47000000000E+01 0.  1.
         13    1    6    6    0    0  0.57386512329E+01  0.44745710585E+01 -0.19628898388E+02  0.20934363044E+02  0.00000000000E+00 0. -1.
        -14    1    6    6    0    0 -0.32857159020E+02 -0.27831493281E+02  0.65128588471E+02  0.78076359760E+02  0.00000000000E+00 0.  1.
<mgrwt>
<rscale>  2 0.18636290E+03</rscale>
<asrwt>0</asrwt>
<pdfrwt beam="1">  1       21 0.42124373E-01 0.18647107E+03</pdfrwt>
<pdfrwt beam="2">  1       21 0.28642046E-01 0.18647107E+03</pdfrwt>
<totfact> 0.63409906E+04</totfact>
</mgrwt>
</event>
<event>
12    1  0.1029207E-001  0.5241464E+03  0.7546771E-02  0.1007679E+00
         21   -1    0    0  503  502  0.00000000000E+00  0.00000000000E+00  0.17410481093E+03  0.17410481093E+03  0.00000000000E+00 0. -1.
         21   -1    0    0  501  503 -0.00000000000E+00 -0.00000000000E+00 -0.17224696767E+04  0.17224696767E+04  0.00000000000E+00 0. -1.
          6    2    1    2  501    0 -0.40356476300E+03 -0.28567217405E+03 -0.10494580330E+04  0.11729465151E+04  0.17311341757E+03 0.  0.
         24    2    3    3    0    0 -0.22922335940E+03 -0.18130173022E+03 -0.47562884915E+03  0.56418536591E+03  0.81661858200E+02 0.  0.
         -6    2    1    2    0  502  0.40356476300E+03  0.28567217405E+03 -0.49890683279E+03  0.72362797253E+03  0.17394339841E+03 0.  0.
        -24    2    5    5    0    0  0.27135770155E+03  0.26956509992E+03 -0.37429833349E+03  0.54117931390E+03  0.80470255716E+02 0.  0.
          5    1    3    3  501    0 -0.17434140360E+03 -0.10437044382E+03 -0.57382918382E+03  0.60876114919E+03  0.47000000000E+01 0. -1.
        -13    1    4    4    0    0 -0.11326865689E+03 -0.43430902143E+02 -0.16035103616E+03  0.20106836323E+03  0.00000000000E+00 0.  1.
         14    1    4    4    0    0 -0.11595470251E+03 -0.13787082808E+03 -0.31527781299E+03  0.36311700267E+03  0.00000000000E+00 0. -1.
         -5    1    5    5    0  502  0.13220706145E+03  0.16107074123E+02 -0.12460849931E+03  0.18244865862E+03  0.47000000000E+01 0.  1.
         11    1    6    6    0    0  0.15165461508E+03  0.10086325300E+03 -0.20180118634E+03  0.27183862288E+03  0.00000000000E+00 0. -1.
        -12    1    6    6    0    0  0.11970308647E+03  0.16870184692E+03 -0.17249714715E+03  0.26934069102E+03  0.00000000000E+00 0.  1.
<mgrwt>
<rscale>  2 0.52407764E+03</rscale>
<asrwt>0</asrwt>
<pdfrwt beam="1">  1       21 0.26785355E-01 0.52414637E+03</pdfrwt>
<pdfrwt beam="2">  1       21 0.26499534E+00 0.52414637E+03</pdfrwt>
<totfact> 0.56257571E+02</totfact>
</mgrwt>
</event>
<event>
12    1  0.1029207E-001  0.2081690E+03  0.7546771E-02  0.1143415E+00
         21   -1    0    0  503  502  0.00000000000E+00  0.00000000000E+00  0.49285857016E+03  0.49285857016E+03  0.00000000000E+00 0. -1.
         21   -1    0    0  501  503 -0.00000000000E+00 -0.00000000000E+00 -0.14602630310E+03  0.14602630310E+03  0.00000000000E+00 0. -1.
          6    2    1    2  501    0  0.94915010370E+02  0.63991213183E+02 -0.29981534758E+02  0.20839332720E+03  0.17153761056E+03 0.  0.
         24    2    3    3    0    0  0.10600103454E+03  0.99852784284E+02 -0.25844414212E+02  0.17033865626E+03  0.84501634412E+02 0.  0.
         -6    2    1    2    0  502 -0.94915010370E+02 -0.63991213183E+02  0.37681380182E+03  0.43049154607E+03  0.17386947817E+03 0.  0.
        -24    2    5    5    0    0 -0.64377671919E+02 -0.10847764660E+03  0.30955458735E+03  0.34413493817E+03  0.81810321243E+02 0.  0.
          5    1    3    3  501    0 -0.11086024166E+02 -0.35861571102E+02 -0.41371205458E+01  0.38054670937E+02  0.47000000000E+01 0. -1.
        -11    1    4    4    0    0  0.56989960989E+01 -0.14372204957E+02  0.26276113948E+01  0.15682575474E+02  0.00000000000E+00 0.  1.
         12    1    4    4    0    0  0.10030203844E+03  0.11422498924E+03 -0.28472025607E+02  0.15465608079E+03  0.00000000000E+00 0. -1.
         -5    1    5    5    0  502 -0.30537338452E+02  0.44486433419E+02  0.67259214467E+02  0.86356607904E+02  0.47000000000E+01 0.  1.
         11    1    6    6    0    0 -0.52098337765E+01 -0.54135554431E+02  0.55599457117E+02  0.77775961924E+02  0.00000000000E+00 0. -1.
        -12    1    6    6    0    0 -0.59167838142E+02 -0.54342092171E+02  0.25395513024E+03  0.26635897624E+03  0.00000000000E+00 0.  1.
<mgrwt>
<rscale>  2 0.20768137E+03</rscale>
<asrwt>0</asrwt>
<pdfrwt beam="1">  1       21 0.75824394E-01 0.20816899E+03</pdfrwt>
<pdfrwt beam="2">  1       21 0.22465585E-01 0.20816899E+03</pdfrwt>
<totfact> 0.28540116E+04</totfact>
</mgrwt>
</event>
<event>
12    1  0.1029207E-001  0.2443458E+03  0.7546771E-02  0.1116965E+00
         21   -1    0    0  503  502  0.00000000000E+00  0.00000000000E+00  0.47095554382E+03  0.47095554382E+03  0.00000000000E+00 0.  1.
         21   -1    0    0  501  503 -0.00000000000E+00 -0.00000000000E+00 -0.12741932578E+03  0.12741932578E+03  0.00000000000E+00 0. -1.
          6    2    1    2  501    0 -0.16864742604E+03 -0.40934192111E+02  0.14882697182E+03  0.28610199958E+03  0.17200966319E+03 0.  0.
         24    2    3    3    0    0 -0.11483494652E+03 -0.85076951037E+02  0.14958724143E+03  0.21633786748E+03  0.63250119127E+02 0.  0.
         -6    2    1    2    0  502  0.16864742604E+03  0.40934192111E+02  0.19470924622E+03  0.31227287001E+03  0.17171223715E+03 0.  0.
        -24    2    5    5    0    0  0.10673990962E+03  0.12350077363E+02  0.36271556949E+02  0.13972089643E+03  0.81611092012E+02 0.  0.
          5    1    3    3  501    0 -0.53812479521E+02  0.44142758927E+02 -0.76026960352E+00  0.69764132101E+02  0.47000000000E+01 0. -1.
        -11    1    4    4    0    0 -0.42777899423E+02 -0.55272194705E+02  0.36160337275E+02  0.78692656445E+02  0.00000000000E+00 0.  1.
         12    1    4    4    0    0 -0.72057047097E+02 -0.29804756333E+02  0.11342690415E+03  0.13764521104E+03  0.00000000000E+00 0. -1.
         -5    1    5    5    0  502  0.61907516422E+02  0.28584114748E+02  0.15843768927E+03  0.17255197358E+03  0.47000000000E+01 0.  1.
         13    1    6    6    0    0  0.15890854916E+02 -0.20014574976E+02 -0.15873660260E+02  0.30084473927E+02  0.00000000000E+00 0. -1.
        -14    1    6    6    0    0  0.90849054703E+02  0.32364652339E+02  0.52145217210E+02  0.10963642250E+03  0.00000000000E+00 0.  1.
<mgrwt>
<rscale>  2 0.24429350E+03</rscale>
<asrwt>0</asrwt>
<pdfrwt beam="1">  1       21 0.72454698E-01 0.24434583E+03</pdfrwt>
<pdfrwt beam="2">  1       21 0.19602973E-01 0.24434583E+03</pdfrwt>
<totfact> 0.40132509E+04</totfact>
</mgrwt>
</event>
<event>
12    1  0.1029207E-001  0.2901943E+03  0.7546771E-02  0.1090363E+00
         21   -1    0    0  503  502  0.00000000000E+00  0.00000000000E+00  0.16698823144E+04  0.16698823144E+04  0.00000000000E+00 0. -1.
         21   -1    0    0  501  503 -0.00000000000E+00 -0.00000000000E+00 -0.50887250375E+02  0.50887250375E+02  0.00000000000E+00 0.  1.
          6    2    1    2  501    0  0.22782402590E+03 -0.45367800719E+02  0.71401326677E+03  0.77039868305E+03  0.17244466247E+03 0.  0.
         24    2    3    3    0    0  0.13841073227E+03 -0.23121054440E+01  0.25672995224E+03  0.30244713672E+03  0.80007034026E+02 0.  0.
         -6    2    1    2    0  502 -0.22782402590E+03  0.45367800719E+02  0.90498179730E+03  0.95037088176E+03  0.17392738525E+03 0.  0.
        -24    2    5    5    0    0 -0.15846981712E+03 -0.32509887990E+02  0.65495810807E+03  0.67943015790E+03  0.80533473628E+02 0.  0.
          5    1    3    3  501    0  0.89413293626E+02 -0.43055695275E+02  0.45728331452E+03  0.46795154633E+03  0.47000000000E+01 0. -1.
        -11    1    4    4    0    0  0.86359200178E+02 -0.30455496858E+02  0.20224747020E+03  0.22201235990E+03  0.00000000000E+00 0.  1.
         12    1    4    4    0    0  0.52051532094E+02  0.28143391414E+02  0.54482482041E+02  0.80434776825E+02  0.00000000000E+00 0. -1.
         -5    1    5    5    0  502 -0.69354208779E+02  0.77877688709E+02  0.25002368922E+03  0.27094072386E+03  0.47000000000E+01 0.  1.
         13    1    6    6    0    0 -0.14875991635E+03 -0.34112314048E+02  0.46892049069E+03  0.49313242569E+03  0.00000000000E+00 0. -1.
        -14    1    6    6    0    0 -0.97099007683E+01  0.16024260580E+01  0.18603761739E+03  0.18629773221E+03  0.00000000000E+00 0.  1.
<mgrwt>
<rscale>  2 0.28997254E+03</rscale>
<asrwt>0</asrwt>
<pdfrwt beam="1">  1       21 0.25690493E+00 0.29019435E+03</pdfrwt>
<pdfrwt beam="2">  1       21 0.78288091E-02 0.29019435E+03</pdfrwt>
<totfact> 0.69616226E+03</totfact>
</mgrwt>
</event>
<event>
12    1  0.1029207E-001  0.2330440E+03  0.7546771E-02  0.1124594E+00
         21   -1    0    0  501  502  0.00000000000E+00  0.00000000000E+00  0.12453221461E+04  0.12453221461E+04  0.00000000000E+00 0. -1.
         21   -1    0    0  502  503 -0.00000000000E+00 -0.00000000000E+00 -0.51884935235E+02  0.51884935235E+02  0.00000000000E+00 0. -1.
         -6    2    1    2    0  503 -0.69746213306E+02 -0.14153154192E+03  0.33687149557E+03  0.40962409686E+03  0.17150447391E+03 0.  0.
        -24    2    3    3    0    0  0.44782667735E+01 -0.86248548028E+02  0.99789377481E+02  0.15507448760E+03  0.81432855387E+02 0.  0.
          6    2    1    2  501    0  0.69746213306E+02  0.14153154192E+03  0.85656571532E+03  0.88758298450E+03  0.17088890567E+03 0.  0.
         24    2    5    5    0    0 -0.10796916477E+02  0.11893894161E+03  0.45671563720E+03  0.47904926947E+03  0.81461549697E+02 0.  0.
          5    1    5    5  501    0  0.80543129783E+02  0.22592600313E+02  0.39985007812E+03  0.40853371503E+03  0.47000000000E+01 0. -1.
        -11    1    6    6    0    0 -0.23058842072E+02  0.73566854483E+01  0.15979492106E+03  0.16161759747E+03  0.00000000000E+00 0.  1.
         12    1    6    6    0    0  0.12261925595E+02  0.11158225616E+03  0.29692071615E+03  0.31743167200E+03  0.00000000000E+00 0. -1.
         -5    1    3    3    0  503 -0.74224480080E+02 -0.55282993891E+02  0.23708211809E+03  0.25454960926E+03  0.47000000000E+01 0.  1.
         13    1    4    4    0    0 -0.15237717909E+02 -0.79008432740E+02  0.36434575092E+02  0.88328923650E+02  0.00000000000E+00 0. -1.
        -14    1    4    4    0    0  0.19715984682E+02 -0.72401152884E+01  0.63354802389E+02  0.66745563951E+02  0.00000000000E+00 0.  1.
<mgrwt>
<rscale>  2 0.23293074E+03</rscale>
<asrwt>0</asrwt>
<pdfrwt beam="1">  1       21 0.19158800E+00 0.23304398E+03</pdfrwt>
<pdfrwt beam="2">  1       21 0.79822987E-02 0.23304398E+03</pdfrwt>
<totfact> 0.17822454E+04</totfact>
</mgrwt>
</event>
<event>
12    1  0.1029207E-001  0.2451316E+03  0.7546771E-02  0.1116632E+00
         21   -1    0    0  501  502  0.00000000000E+00  0.00000000000E+00  0.69164953752E+03  0.69164953752E+03  0.00000000000E+00 0.  1.
         21   -1    0    0  502  503 -0.00000000000E+00 -0.00000000000E+00 -0.13171742255E+03  0.13171742255E+03  0.00000000000E+00 0.  1.
         -6    2    1    2    0  503 -0.16279409558E+03  0.55438596521E+02  0.39026961971E+02  0.24821881684E+03  0.17468291769E+03 0.  0.
        -24    2    3    3    0    0 -0.18175974965E+03  0.35633496461E+02  0.63416290616E+02  0.21122060912E+03  0.79285352596E+02 0.  0.
          6    2    1    2  501    0  0.16279409558E+03 -0.55438596521E+02  0.52090515299E+03  0.57514814323E+03  0.17285211226E+03 0.  0.
         24    2    5    5    0    0  0.10915055400E+03 -0.90473536233E+02  0.45320660067E+03  0.48181936664E+03  0.81574352498E+02 0.  0.
          5    1    5    5  501    0  0.53643541574E+02  0.35034939712E+02  0.67698552324E+02  0.93328776591E+02  0.47000000000E+01 0. -1.
        -11    1    6    6    0    0  0.32329951129E+02 -0.17773843413E+02  0.25026912146E+03  0.25297384925E+03  0.00000000000E+00 0.  1.
         12    1    6    6    0    0  0.76820602875E+02 -0.72699692820E+02  0.20293747921E+03  0.22884551739E+03  0.00000000000E+00 0. -1.
         -5    1    3    3    0  503  0.18965654073E+02  0.19805100060E+02 -0.24389328645E+02  0.36998207721E+02  0.47000000000E+01 0.  1.
         13    1    4    4    0    0 -0.11749272026E+03 -0.16394610299E+02  0.33251035262E+02  0.12320289732E+03  0.00000000000E+00 0. -1.
        -14    1    4    4    0    0 -0.64267029389E+02  0.52028106760E+02  0.30165255353E+02  0.88017711797E+02  0.00000000000E+00 0.  1.
<mgrwt>
<rscale>  2 0.24480559E+03</rscale>
<asrwt>0</asrwt>
<pdfrwt beam="1">  1       21 0.10640762E+00 0.24513155E+03</pdfrwt>
<pdfrwt beam="2">  1       21 0.20264219E-01 0.24513155E+03</pdfrwt>
<totfact> 0.15441746E+04</totfact>
</mgrwt>
</event>
<event>
12    1  0.1029207E-001  0.2511340E+03  0.7546771E-02  0.1112685E+00
         21   -1    0    0  503  502  0.00000000000E+00  0.00000000000E+00  0.56874727244E+03  0.56874727244E+03  0.00000000000E+00 0. -1.
         21   -1    0    0  501  503 -0.00000000000E+00 -0.00000000000E+00 -0.11063934951E+03  0.11063934951E+03  0.00000000000E+00 0.  1.
          6    2    1    2  501    0  0.16836544016E+03 -0.69214672844E+02  0.22542593572E+03  0.33746870759E+03  0.17300486621E+03 0.  0.
         24    2    3    3    0    0  0.37198821009E+02 -0.67036350000E+02  0.14437964272E+03  0.18319616085E+03  0.82690553341E+02 0.  0.
         -6    2    1    2    0  502 -0.16836544016E+03  0.69214672844E+02  0.23268198720E+03  0.34191791435E+03  0.17213181173E+03 0.  0.
        -24    2    5    5    0    0 -0.11217531949E+03 -0.22919397552E+02  0.10684761987E+03  0.17607945503E+03  0.80491984231E+02 0.  0.
          5    1    3    3  501    0  0.13116661915E+03 -0.21783228441E+01  0.81046293001E+02  0.15427254674E+03  0.47000000000E+01 0. -1.
        -11    1    4    4    0    0  0.59920997773E+01 -0.47907502530E+01  0.10071657564E+03  0.10100834202E+03  0.00000000000E+00 0.  1.
         12    1    4    4    0    0  0.31206721231E+02 -0.62245599747E+02  0.43663067080E+02  0.82187818834E+02  0.00000000000E+00 0. -1.
         -5    1    5    5    0  502 -0.56190120670E+02  0.92134070396E+02  0.12583436733E+03  0.16583845932E+03  0.47000000000E+01 0.  1.
         11    1    6    6    0    0 -0.73510121069E+02 -0.43121438189E+02  0.10086078935E+03  0.13204580705E+03  0.00000000000E+00 0. -1.
        -12    1    6    6    0    0 -0.38665198420E+02  0.20202040637E+02  0.59868305181E+01  0.44033647980E+02  0.00000000000E+00 0.  1.
<mgrwt>
<rscale>  2 0.25098368E+03</rscale>
<asrwt>0</asrwt>
<pdfrwt beam="1">  1       21 0.87499579E-01 0.25113398E+03</pdfrwt>
<pdfrwt beam="2">  1       21 0.17021439E-01 0.25113398E+03</pdfrwt>
<totfact> 0.33892341E+04</totfact>
</mgrwt>
</event>
<event>
12    1  0.1029207E-001  0.2363508E+03  0.7546771E-02  0.1122618E+00
         21   -1    0    0  503  502  0.00000000000E+00  0.00000000000E+00  0.86420208096E+02  0.86420208096E+02  0.00000000000E+00 0.  1.
         21   -1    0    0  501  503 -0.00000000000E+00 -0.00000000000E+00 -0.70553768210E+03  0.70553768210E+03  0.00000000000E+00 0.  1.
          6    2    1    2  501    0  0.73878058624E+02  0.14273695577E+03 -0.43109329413E+03  0.49163312367E+03  0.17329135568E+03 0.  0.
         24    2    3    3    0    0  0.75549463737E+02  0.13962842831E+03 -0.44371835371E+03  0.47770693728E+03  0.78192845231E+02 0.  0.
         -6    2    1    2    0  502 -0.73878058624E+02 -0.14273695577E+03 -0.18802417987E+03  0.30032476652E+03  0.17032341907E+03 0.  0.
        -24    2    5    5    0    0 -0.22162819972E+02 -0.61853195496E+01 -0.95129384794E+02  0.12719952800E+03  0.81244515532E+02 0.  0.
          5    1    3    3  501    0 -0.16714051124E+01  0.31085274595E+01  0.12625059576E+02  0.13926186388E+02  0.47000000000E+01 0. -1.
        -11    1    4    4    0    0  0.43679112120E+02  0.77080745254E+02 -0.34741416239E+03  0.35853299201E+03  0.00000000000E+00 0.  1.
         12    1    4    4    0    0  0.31870351616E+02  0.62547683056E+02 -0.96304191316E+02  0.11917394528E+03  0.00000000000E+00 0. -1.
         -5    1    5    5    0  502 -0.51715238652E+02 -0.13655163622E+03 -0.92894795073E+02  0.17312523853E+03  0.47000000000E+01 0.  1.
         13    1    6    6    0    0 -0.10026375883E+02  0.17548116032E+02  0.72003419731E+01  0.21454824962E+02  0.00000000000E+00 0. -1.
        -14    1    6    6    0    0 -0.12136444089E+02 -0.23733435581E+02 -0.10232972677E+03  0.10574470303E+03  0.00000000000E+00 0.  1.
<mgrwt>
<rscale>  2 0.23580708E+03</rscale>
<asrwt>0</asrwt>
<pdfrwt beam="1">  1       21 0.13295417E-01 0.23635080E+03</pdfrwt>
<pdfrwt beam="2">  1       21 0.10854425E+00 0.23635080E+03</pdfrwt>
<totfact> 0.32161102E+04</totfact>
</mgrwt>
</event>
<event>
12    1  0.1029207E-001  0.2720626E+03  0.7546771E-02  0.1100213E+00
         21   -1    0    0  501  502  0.00000000000E+00  0.00000000000E+00  0.17596789266E+03  0.17596789266E+03  0.00000000000E+00 0.  1.
         21   -1    0    0  502  503 -0.00000000000E+00 -0.00000000000E+00 -0.42565655279E+03  0.42565655279E+03  0.00000000000E+00 0.  1.
         -6    2    1    2    0  503  0.17146787530E+03  0.12074179692E+03 -0.16132612982E+03  0.31629757066E+03  0.17331537514E+03 0.  0.
        -24    2    3    3    0    0  0.19578399701E+03  0.12632502208E+03 -0.14373011542E+03  0.28540815661E+03  0.80685098320E+02 0.  0.
          6    2    1    2  501    0 -0.17146787530E+03 -0.12074179692E+03 -0.88362530305E+02  0.28532687478E+03  0.17211529545E+03 0.  0.
         24    2    5    5    0    0 -0.11931993543E+03 -0.53517295585E+01 -0.57185582345E+02  0.15483408815E+03  0.80234132552E+02 0.  0.
          5    1    5    5  501    0 -0.52147939875E+02 -0.11539006736E+03 -0.31176947960E+02  0.13049278663E+03  0.47000000000E+01 0. -1.
        -13    1    6    6    0    0 -0.11676778461E+03 -0.10659142310E+02 -0.22175106378E+02  0.11933175680E+03  0.00000000000E+00 0.  1.
         14    1    6    6    0    0 -0.25521508122E+01  0.53074127515E+01 -0.35010475967E+02  0.35502331351E+02  0.00000000000E+00 0. -1.
         -5    1    3    3    0  503 -0.24316121705E+02 -0.55832251601E+01 -0.17596014401E+02  0.30889414056E+02  0.47000000000E+01 0.  1.
         11    1    4    4    0    0  0.17299011021E+03  0.13741397676E+03 -0.12449949253E+03  0.25359081781E+03  0.00000000000E+00 0. -1.
        -12    1    4    4    0    0  0.22793886801E+02 -0.11088954676E+02 -0.19230622895E+02  0.31817338799E+02  0.00000000000E+00 0.  1.
<mgrwt>
<rscale>  2 0.27187162E+03</rscale>
<asrwt>0</asrwt>
<pdfrwt beam="1">  1       21 0.27071984E-01 0.27206255E+03</pdfrwt>
<pdfrwt beam="2">  1       21 0.65485623E-01 0.27206255E+03</pdfrwt>
<totfact> 0.26812788E+04</totfact>
</mgrwt>
</event>
<event>
12    1  0.1029207E-001  0.2747650E+03  0.7546771E-02  0.1098690E+00
         21   -1    0    0  501  502  0.00000000000E+00  0.00000000000E+00  0.54465772197E+03  0.54465772197E+03  0.00000000000E+00 0. -1.
         21   -1    0    0  502  503 -0.00000000000E+00 -0.00000000000E+00 -0.16604077194E+03  0.16604077194E+03  0.00000000000E+00 0. -1.
         -6    2    1    2    0  503  0.20502851592E+03  0.57840051570E+02  0.44091983091E+02  0.27828027056E+03  0.17353282716E+03 0.  0.
        -24    2    3    3    0    0  0.11497476456E+03  0.29670992156E+02 -0.42289229813E+02  0.15026863833E+03  0.81809048686E+02 0.  0.
          6    2    1    2  501    0 -0.20502851592E+03 -0.57840051570E+02  0.33452496694E+03  0.43241822336E+03  0.17232644161E+03 0.  0.
         24    2    5    5    0    0 -0.14842107678E+03  0.27632072547E+02  0.21068953864E+03  0.27158542363E+03  0.81093854068E+02 0.  0.
          5    1    5    5  501    0 -0.56607439136E+02 -0.85472124116E+02  0.12383542830E+03  0.16083279973E+03  0.47000000000E+01 0. -1.
        -11    1    6    6    0    0 -0.55398002848E+02  0.50381848787E+02  0.80166182547E+02  0.10969907124E+03  0.00000000000E+00 0.  1.
         12    1    6    6    0    0 -0.93023073932E+02 -0.22749776241E+02  0.13052335610E+03  0.16188635239E+03  0.00000000000E+00 0. -1.
         -5    1    3    3    0  503  0.90053751358E+02  0.28169059414E+02  0.86381212905E+02  0.12801163222E+03  0.47000000000E+01 0.  1.
         11    1    4    4    0    0  0.93106200683E+02  0.24827416438E+02  0.65051800901E+01  0.96578893038E+02  0.00000000000E+00 0. -1.
        -12    1    4    4    0    0  0.21868563875E+02  0.48435757184E+01 -0.48794409903E+02  0.53689745292E+02  0.00000000000E+00 0.  1.
<mgrwt>
<rscale>  2 0.27457472E+03</rscale>
<asrwt>0</asrwt>
<pdfrwt beam="1">  1       21 0.83793495E-01 0.27476500E+03</pdfrwt>
<pdfrwt beam="2">  1       21 0.25544734E-01 0.27476500E+03</pdfrwt>
<totfact> 0.17212050E+04</totfact>
</mgrwt>
</event>
<event>
12    1  0.1029207E-001  0.1968684E+03  0.7546771E-02  0.1152730E+00
         21   -1    0    0  501  502  0.00000000000E+00  0.00000000000E+00  0.64147342832E+03  0.64147342832E+03  0.00000000000E+00 0. -1.
         21   -1    0    0  502  503 -0.00000000000E+00 -0.00000000000E+00 -0.68348088560E+02  0.68348088560E+02  0.00000000000E+00 0. -1.
         -6    2    1    2    0  503  0.84033476402E+02 -0.34690190481E+02  0.41182976328E+03  0.45646569840E+03  0.17462000293E+03 0.  0.
        -24    2    3    3    0    0  0.11538884970E+02 -0.45181697486E+02  0.95953898134E+02  0.13217387043E+03  0.78027237576E+02 0.  0.
          6    2    1    2  501    0 -0.84033476402E+02  0.34690190481E+02  0.16129557648E+03  0.25335581848E+03  0.17293892937E+03 0.  0.
         24    2    5    5    0    0 -0.83297858505E+02 -0.19698518859E+02  0.46396675886E+02  0.12614528356E+03  0.80208579053E+02 0.  0.
          5    1    5    5  501    0 -0.73561789734E+00  0.54388709340E+02  0.11489890060E+03  0.12721053492E+03  0.47000000000E+01 0. -1.
        -11    1    6    6    0    0 -0.12841181701E+00  0.23384571871E+02  0.60203184893E+01  0.24147441394E+02  0.00000000000E+00 0.  1.
         12    1    6    6    0    0 -0.83169446688E+02 -0.43083090730E+02  0.40376357397E+02  0.10199784216E+03  0.00000000000E+00 0. -1.
         -5    1    3    3    0  503  0.72494591432E+02  0.10491507005E+02  0.31587586515E+03  0.32429182797E+03  0.47000000000E+01 0.  1.
         11    1    4    4    0    0  0.33806215103E+02 -0.43715450609E+02  0.94919353862E+02  0.10983435045E+03  0.00000000000E+00 0. -1.
        -12    1    4    4    0    0 -0.22267330132E+02 -0.14662468770E+01  0.10345442727E+01  0.22339519981E+02  0.00000000000E+00 0.  1.
<mgrwt>
<rscale>  2 0.19649498E+03</rscale>
<asrwt>0</asrwt>
<pdfrwt beam="1">  1       21 0.98688216E-01 0.19686843E+03</pdfrwt>
<pdfrwt beam="2">  1       21 0.10515091E-01 0.19686843E+03</pdfrwt>
<totfact> 0.62757534E+04</totfact>
</mgrwt>
</event>
<event>
12    1  0.1029207E-001  0.1756116E+03  0.7546771E-02  0.1172624E+00
         21   -1    0    0  503  502  0.00000000000E+00  0.00000000000E+00  0.26582869130E+03  0.26582869130E+03  0.00000000000E+00 0. -1.
         21   -1    0    0  501  503 -0.00000000000E+00 -0.00000000000E+00 -0.13437303832E+03  0.13437303832E+03  0.00000000000E+00 0. -1.
          6    2    1    2  501    0  0.12396275273E+02 -0.20281620990E+02 -0.11179091935E+02  0.17396271805E+03  0.17196814642E+03 0.  0.
         24    2    3    3    0    0 -0.68769845270E+00 -0.68850246580E+02 -0.44760838676E+02  0.11330032876E+03  0.78055124330E+02 0.  0.
         -6    2    1    2    0  502 -0.12396275273E+02  0.20281620990E+02  0.14263474492E+03  0.22623901158E+03  0.17399542556E+03 0.  0.
        -24    2    5    5    0    0  0.22382243409E+02  0.66451008796E+02  0.12642125998E+03  0.16602169824E+03  0.81634355044E+02 0.  0.
          5    1    3    3  501    0  0.13083973726E+02  0.48568625590E+02  0.33581746741E+02  0.60662389289E+02  0.47000000000E+01 0. -1.
        -13    1    4    4    0    0 -0.22264467544E+02 -0.21979608699E+01 -0.36426755028E+02  0.42748637743E+02  0.00000000000E+00 0.  1.
         14    1    4    4    0    0  0.21576769091E+02 -0.66652285710E+02 -0.83340836484E+01  0.70551691015E+02  0.00000000000E+00 0. -1.
         -5    1    5    5    0  502 -0.34778518682E+02 -0.46169387806E+02  0.16213484938E+02  0.60217313340E+02  0.47000000000E+01 0.  1.
         13    1    6    6    0    0 -0.27112102062E+02  0.45646312568E+02  0.73178409716E+02  0.90408691937E+02  0.00000000000E+00 0. -1.
        -14    1    6    6    0    0  0.49494345470E+02  0.20804696228E+02  0.53242850262E+02  0.75613006306E+02  0.00000000000E+00 0.  1.
<mgrwt>
<rscale>  2 0.17510729E+03</rscale>
<asrwt>0</asrwt>
<pdfrwt beam="1">  1       21 0.40896722E-01 0.17561156E+03</pdfrwt>
<pdfrwt beam="2">  1       21 0.20672775E-01 0.17561156E+03</pdfrwt>
<totfact> 0.12570697E+05</totfact>
</mgrwt>
</event>
<event>
12    1  0.1029207E-001  0.2619454E+03  0.7546771E-02  0.1106283E+00
         21   -1    0    0  503  502  0.00000000000E+00  0.00000000000E+00  0.52120166681E+03  0.52120166681E+03  0.00000000000E+00 0. -1.
         21   -1    0    0  501  503 -0.00000000000E+00 -0.00000000000E+00 -0.36791205753E+03  0.36791205753E+03  0.00000000000E+00 0. -1.
          6    2    1    2  501    0  0.57002907129E+02  0.18618953468E+03 -0.28047623084E+03  0.38239070127E+03  0.17216230163E+03 0.  0.
         24    2    3    3    0    0  0.35238728998E+02  0.20307828152E+03 -0.20554530798E+03  0.30241794078E+03  0.82007199838E+02 0.  0.
         -6    2    1    2    0  502 -0.57002907129E+02 -0.18618953468E+03  0.43376584011E+03  0.50672302307E+03  0.17521285289E+03 0.  0.
        -24    2    5    5    0    0 -0.78821831216E+02 -0.18703154102E+03  0.43216729490E+03  0.48433061879E+03  0.81325882113E+02 0.  0.
          5    1    3    3  501    0  0.21764178131E+02 -0.16888746840E+02 -0.74930922856E+02  0.79972760485E+02  0.47000000000E+01 0. -1.
        -11    1    4    4    0    0 -0.12542323896E+01  0.80310558100E+02 -0.31385801541E+02  0.86234722586E+02  0.00000000000E+00 0.  1.
         12    1    4    4    0    0  0.36492961387E+02  0.12276772342E+03 -0.17415950644E+03  0.21618321819E+03  0.00000000000E+00 0. -1.
         -5    1    5    5    0  502  0.21818924087E+02  0.84200634299E+00  0.15985452169E+01  0.22392404288E+02  0.47000000000E+01 0.  1.
         13    1    6    6    0    0 -0.89781622365E+02 -0.11609532608E+03  0.29737480002E+03  0.33161820839E+03  0.00000000000E+00 0. -1.
        -14    1    6    6    0    0  0.10959791149E+02 -0.70936214940E+02  0.13479249488E+03  0.15271241039E+03  0.00000000000E+00 0.  1.
<mgrwt>
<rscale>  2 0.26143632E+03</rscale>
<asrwt>0</asrwt>
<pdfrwt beam="1">  1       21 0.80184872E-01 0.26194545E+03</pdfrwt>
<pdfrwt beam="2">  1       21 0.56601855E-01 0.26194545E+03</pdfrwt>
<totfact> 0.38213136E+03</totfact>
</mgrwt>
</event>
<event>
12    1  0.1029207E-001  0.1783522E+03  0.7546771E-02  0.1170430E+00
         21   -1    0    0  501  502  0.00000000000E+00  0.00000000000E+00  0.53588576292E+02  0.53588576292E+02  0.00000000000E+00 0. -1.
         21   -1    0    0  502  503 -0.00000000000E+00 -0.00000000000E+00 -0.71515891660E+03  0.71515891660E+03  0.00000000000E+00 0. -1.
         -6    2    1    2    0  503 -0.37432743873E+02 -0.22597639047E+02 -0.50104415266E+03  0.53184092140E+03  0.17290939582E+03 0.  0.
        -24    2    3    3    0    0 -0.83658421746E+02 -0.39582412087E+02 -0.28576952809E+03  0.31095509163E+03  0.80394943578E+02 0.  0.
          6    2    1    2  501    0  0.37432743873E+02  0.22597639047E+02 -0.16052618765E+03  0.23690657149E+03  0.16865409301E+03 0.  0.
         24    2    5    5    0    0  0.51148706151E+02  0.51264775441E+02 -0.43257964961E+02  0.11531768062E+03  0.78629819970E+02 0.  0.
          5    1    5    5  501    0 -0.13715962278E+02 -0.28667136395E+02 -0.11726822269E+03  0.12158889087E+03  0.47000000000E+01 0. -1.
        -11    1    6    6    0    0 -0.55812861002E+01  0.16232904242E+02  0.17929749048E+02  0.24822043340E+02  0.00000000000E+00 0.  1.
         12    1    6    6    0    0  0.56729992251E+02  0.35031871200E+02 -0.61187714009E+02  0.90495637277E+02  0.00000000000E+00 0. -1.
         -5    1    3    3    0  503  0.46225677873E+02  0.16984773040E+02 -0.21527462457E+03  0.22088582977E+03  0.47000000000E+01 0.  1.
         13    1    4    4    0    0 -0.67050549754E+02  0.57908725617E+01 -0.21482277889E+03  0.22511805071E+03  0.00000000000E+00 0. -1.
        -14    1    4    4    0    0 -0.16607871992E+02 -0.45373284648E+02 -0.70946749199E+02  0.85837040920E+02  0.00000000000E+00 0.  1.
<mgrwt>
<rscale>  2 0.17731261E+03</rscale>
<asrwt>0</asrwt>
<pdfrwt beam="1">  1       21 0.82443961E-02 0.17835224E+03</pdfrwt>
<pdfrwt beam="2">  1       21 0.11002445E+00 0.17835224E+03</pdfrwt>
<totfact> 0.74820681E+04</totfact>
</mgrwt>
</event>
<event>
12    1  0.1029207E-001  0.2060572E+03  0.7546771E-02  0.1144802E+00
         21   -1    0    0  501  502  0.00000000000E+00  0.00000000000E+00  0.63968225085E+02  0.63968225085E+02  0.00000000000E+00 0. -1.
         21   -1    0    0  502  503 -0.00000000000E+00 -0.00000000000E+00 -0.67065226905E+03  0.67065226905E+03  0.00000000000E+00 0. -1.
         -6    2    1    2    0  503 -0.10332161043E+03 -0.41724345238E+02 -0.34394836566E+03  0.40094892664E+03  0.17332999558E+03 0.  0.
        -24    2    3    3    0    0 -0.66660145774E+02  0.21068612815E+02 -0.29055700588E+03  0.31061761495E+03  0.84690421975E+02 0.  0.
          6    2    1    2  501    0  0.10332161043E+03  0.41724345238E+02 -0.26273567831E+03  0.33367156749E+03  0.17288840947E+03 0.  0.
         24    2    5    5    0    0  0.10743315929E+03  0.60637016482E+02 -0.12556049817E+03  0.19505802554E+03  0.84044411731E+02 0.  0.
          5    1    5    5  501    0 -0.41115488597E+01 -0.18912671244E+02 -0.13717518014E+03  0.13861354196E+03  0.47000000000E+01 0. -1.
        -13    1    6    6    0    0  0.71601062402E+02  0.59597239987E+02 -0.38305921196E+02  0.10072679261E+03  0.00000000000E+00 0.  1.
         14    1    6    6    0    0  0.35832096889E+02  0.10397764948E+01 -0.87254576973E+02  0.94331232926E+02  0.00000000000E+00 0. -1.
         -5    1    3    3    0  503 -0.36661464658E+02 -0.62792958053E+02 -0.53391359779E+02  0.90331311686E+02  0.47000000000E+01 0.  1.
         11    1    4    4    0    0  0.14753937076E+02  0.21571875265E+02 -0.10078531914E+03  0.10411870637E+03  0.00000000000E+00 0. -1.
        -12    1    4    4    0    0 -0.81414082851E+02 -0.50326244969E+00 -0.18977168673E+03  0.20649890858E+03  0.00000000000E+00 0.  1.
<mgrwt>
<rscale>  2 0.20596429E+03</rscale>
<asrwt>0</asrwt>
<pdfrwt beam="1">  1       21 0.98412657E-02 0.20605719E+03</pdfrwt>
<pdfrwt beam="2">  1       21 0.10317727E+00 0.20605719E+03</pdfrwt>
<totfact> 0.63184952E+04</totfact>
</mgrwt>
</event>
<event>
12    1  0.1029207E-001  0.2073124E+03  0.7546771E-02  0.1143769E+00
         21   -1    0    0  503  502  0.00000000000E+00  0.00000000000E+00  0.71148526022E+03  0.71148526022E+03  0.00000000000E+00 0.  1.
         21   -1    0    0  501  503 -0.00000000000E+00 -0.00000000000E+00 -0.89420792235E+02  0.89420792235E+02  0.00000000000E+00 0. -1.
          6    2    1    2  501    0 -0.14740638954E+02 -0.11336225331E+03  0.82458179206E+02  0.22284602691E+03  0.17260565888E+03 0.  0.
         24    2    3    3    0    0 -0.78772505991E+02 -0.71590908014E+02  0.55994058136E+02  0.14180674638E+03  0.75122919025E+02 0.  0.
         -6    2    1    2    0  502  0.14740638954E+02  0.11336225331E+03  0.53960628878E+03  0.57806002555E+03  0.17294553863E+03 0.  0.
        -24    2    5    5    0    0 -0.58930053463E+02  0.54599380467E+02  0.29677434068E+03  0.31754152109E+03  0.79396251690E+02 0.  0.
          5    1    3    3  501    0  0.64031867037E+02 -0.41771345296E+02  0.26464121070E+02  0.81039280526E+02  0.47000000000E+01 0. -1.
        -11    1    4    4    0    0 -0.58677212827E+01  0.15543592643E+02  0.57494275629E+01  0.17580936909E+02  0.00000000000E+00 0.  1.
         12    1    4    4    0    0 -0.72904784708E+02 -0.87134500657E+02  0.50244630573E+02  0.12422580947E+03  0.00000000000E+00 0. -1.
         -5    1    5    5    0  502  0.73670692417E+02  0.58762872844E+02  0.24283194810E+03  0.26051850446E+03  0.47000000000E+01 0.  1.
         11    1    6    6    0    0 -0.42897856883E+02  0.71713656642E+02  0.18021711972E+03  0.19864864690E+03  0.00000000000E+00 0. -1.
        -12    1    6    6    0    0 -0.16032196581E+02 -0.17114276175E+02  0.11655722096E+03  0.11889287419E+03  0.00000000000E+00 0.  1.
<mgrwt>
<rscale>  2 0.20724154E+03</rscale>
<asrwt>0</asrwt>
<pdfrwt beam="1">  1       21 0.10945927E+00 0.20731244E+03</pdfrwt>
<pdfrwt beam="2">  1       21 0.13757045E-01 0.20731244E+03</pdfrwt>
<totfact> 0.30078321E+04</totfact>
</mgrwt>
</event>
<event>
12    1  0.1029207E-001  0.3456472E+03  0.7546771E-02  0.1064457E+00
         21   -1    0    0  501  502  0.00000000000E+00  0.00000000000E+00  0.45680690540E+03  0.45680690540E+03  0.00000000000E+00 0. -1.
         21   -1    0    0  502  503 -0.00000000000E+00 -0.00000000000E+00 -0.27465909494E+03  0.27465909494E+03  0.00000000000E+00 0.  1.
         -6    2    1    2    0  503 -0.15694099940E+03 -0.25481664119E+03  0.10283194937E+02  0.34580009529E+03  0.17294497358E+03 0.  0.
        -24    2    3    3    0    0 -0.16802085286E+03 -0.18798602457E+03 -0.30756268497E+02  0.26645639971E+03  0.80519019266E+02 0.  0.
          6    2    1    2  501    0  0.15694099940E+03  0.25481664119E+03  0.17186461552E+03  0.38566590504E+03  0.17215907274E+03 0.  0.
         24    2    5    5    0    0  0.13631094551E+03  0.26038372610E+03  0.18833447543E+03  0.35828091201E+03  0.80715417311E+02 0.  0.
          5    1    5    5  501    0  0.20630053894E+02 -0.55670849112E+01 -0.16469859910E+02  0.27384993035E+02  0.47000000000E+01 0. -1.
        -13    1    6    6    0    0  0.13154397952E+02  0.92640115092E+02  0.35457264306E+02  0.10006221416E+03  0.00000000000E+00 0.  1.
         14    1    6    6    0    0  0.12315654755E+03  0.16774361100E+03  0.15287721113E+03  0.25821869785E+03  0.00000000000E+00 0. -1.
         -5    1    3    3    0  503  0.11079853463E+02 -0.66830616611E+02  0.41039463434E+02  0.79343695580E+02  0.47000000000E+01 0.  1.
         13    1    4    4    0    0 -0.10222391320E+03 -0.12606431619E+03  0.18831729229E+02  0.16339086349E+03  0.00000000000E+00 0. -1.
        -14    1    4    4    0    0 -0.65796939666E+02 -0.61921708388E+02 -0.49587997726E+02  0.10306553623E+03  0.00000000000E+00 0.  1.
<mgrwt>
<rscale>  2 0.34554898E+03</rscale>
<asrwt>0</asrwt>
<pdfrwt beam="1">  1       21 0.70277985E-01 0.34564716E+03</pdfrwt>
<pdfrwt beam="2">  1       21 0.42255246E-01 0.34564716E+03</pdfrwt>
<totfact> 0.91311735E+03</totfact>
</mgrwt>
</event>
<event>
12    1  0.1029207E-001  0.3242586E+03  0.7546771E-02  0.1073841E+00
         21   -1    0    0  501  502  0.00000000000E+00  0.00000000000E+00  0.57104719304E+03  0.57104719304E+03  0.00000000000E+00 0.  1.
         21   -1    0    0  502  503 -0.00000000000E+00 -0.00000000000E+00 -0.20717480581E+03  0.20717480581E+03  0.00000000000E+00 0. -1.
         -6    2    1    2    0  503  0.26404507246E+03  0.74145335127E+02  0.31391968945E+03  0.45131943070E+03  0.17299227177E+03 0.  0.
        -24    2    3    3    0    0  0.54736827230E+02  0.45373906047E+01  0.14154055651E+03  0.17133396155E+03  0.79403331635E+02 0.  0.
          6    2    1    2  501    0 -0.26404507246E+03 -0.74145335127E+02  0.49952697768E+02  0.32690256815E+03  0.17074157676E+03 0.  0.
         24    2    5    5    0    0 -0.26234820650E+03 -0.10330219032E+03  0.41197097477E+02  0.29605208848E+03  0.80322563922E+02 0.  0.
          5    1    5    5  501    0 -0.16968659595E+01  0.29156855194E+02  0.87556002912E+01  0.30850479662E+02  0.47000000000E+01 0. -1.
        -11    1    6    6    0    0 -0.17915025872E+02  0.11380723982E+02 -0.57777971376E+01  0.21996635427E+02  0.00000000000E+00 0.  1.
         12    1    6    6    0    0 -0.24443318063E+03 -0.11468291430E+03  0.46974894614E+02  0.27405545306E+03  0.00000000000E+00 0. -1.
         -5    1    3    3    0  503  0.20930824523E+03  0.69607944522E+02  0.17237913295E+03  0.27998546916E+03  0.47000000000E+01 0.  1.
         13    1    4    4    0    0  0.37669514907E+02 -0.35465638193E+02  0.90791490702E+02  0.10449831879E+03  0.00000000000E+00 0. -1.
        -14    1    4    4    0    0  0.17067312323E+02  0.40003028798E+02  0.50749065805E+02  0.66835642759E+02  0.00000000000E+00 0.  1.
<mgrwt>
<rscale>  2 0.32395943E+03</rscale>
<asrwt>0</asrwt>
<pdfrwt beam="1">  1       21 0.87853414E-01 0.32425863E+03</pdfrwt>
<pdfrwt beam="2">  1       21 0.31873047E-01 0.32425863E+03</pdfrwt>
<totfact> 0.97844054E+03</totfact>
</mgrwt>
</event>
<event>
12    1  0.1029207E-001  0.2289832E+03  0.7546771E-02  0.1127750E+00
         21   -1    0    0  501  502  0.00000000000E+00  0.00000000000E+00  0.12550485187E+03  0.12550485187E+03  0.00000000000E+00 0. -1.
         21   -1    0    0  502  503 -0.00000000000E+00 -0.00000000000E+00 -0.45066870188E+03  0.45066870188E+03  0.00000000000E+00 0.  1.
         -6    2    1    2    0  503 -0.38862908571E+02 -0.14066339822E+03 -0.24429728300E+03  0.33333061122E+03  0.17358460942E+03 0.  0.
        -24    2    3    3    0    0 -0.12555077050E+02  0.77566524550E+01 -0.95734564069E+02  0.12163841745E+03  0.73573108037E+02 0.  0.
          6    2    1    2  501    0  0.38862908571E+02  0.14066339822E+03 -0.80866567008E+02  0.24284294253E+03  0.17645615834E+03 0.  0.
         24    2    5    5    0    0  0.70878060603E+02  0.65245366596E+02  0.18144922405E+01  0.12634789108E+03  0.81730287297E+02 0.  0.
          5    1    5    5  501    0 -0.32015152032E+02  0.75418031627E+02 -0.82681059248E+02  0.11649505145E+03  0.47000000000E+01 0. -1.
        -13    1    6    6    0    0  0.39571857896E+02  0.35891709677E+02 -0.39761003809E+02  0.66596427717E+02  0.00000000000E+00 0.  1.
         14    1    6    6    0    0  0.31306202708E+02  0.29353656920E+02  0.41575496049E+02  0.59751463365E+02  0.00000000000E+00 0. -1.
         -5    1    3    3    0  503 -0.26307831521E+02 -0.14842005068E+03 -0.14856271893E+03  0.21169219376E+03  0.47000000000E+01 0.  1.
         11    1    4    4    0    0 -0.35358518661E+01  0.29466243741E+02 -0.78983449758E+01  0.30710676026E+02  0.00000000000E+00 0. -1.
        -12    1    4    4    0    0 -0.90192251837E+01 -0.21709591286E+02 -0.87836219093E+02  0.90927741428E+02  0.00000000000E+00 0.  1.
<mgrwt>
<rscale>  2 0.22842981E+03</rscale>
<asrwt>0</asrwt>
<pdfrwt beam="1">  1       21 0.19308439E-01 0.22898317E+03</pdfrwt>
<pdfrwt beam="2">  1       21 0.69333646E-01 0.22898317E+03</pdfrwt>
<totfact> 0.45835907E+04</totfact>
</mgrwt>
</event>
<event>
12    1  0.1029207E-001  0.2236229E+03  0.7546771E-02  0.1132197E+00
         21   -1    0    0  503  502  0.00000000000E+00  0.00000000000E+00  0.84230065586E+03  0.84230065586E+03  0.00000000000E+00 0. -1.
         21   -1    0    0  501  503 -0.00000000000E+00 -0.00000000000E+00 -0.61102205668E+02  0.61102205668E+02  0.00000000000E+00 0.  1.
          6    2    1    2  501    0  0.10578978931E+03 -0.93827307424E+02  0.49746948280E+03  0.54542012038E+03  0.17324023278E+03 0.  0.
         24    2    3    3    0    0  0.14363455007E+03 -0.76420790787E+02  0.41394054290E+03  0.45196218043E+03  0.80324456088E+02 0.  0.
         -6    2    1    2    0  502 -0.10578978931E+03  0.93827307424E+02  0.28372896739E+03  0.35798274114E+03  0.16629634056E+03 0.  0.
        -24    2    5    5    0    0 -0.27630421193E+02  0.47150532314E+02  0.23554232244E+03  0.25487284389E+03  0.80581437207E+02 0.  0.
          5    1    3    3  501    0 -0.37844760756E+02 -0.17406516637E+02  0.83528939903E+02  0.93457939948E+02  0.47000000000E+01 0. -1.
        -13    1    4    4    0    0  0.47480340394E+02  0.13547237815E+02  0.10007669312E+03  0.11159415255E+03  0.00000000000E+00 0.  1.
         14    1    4    4    0    0  0.96154209676E+02 -0.89968028602E+02  0.31386384978E+03  0.34036802788E+03  0.00000000000E+00 0. -1.
         -5    1    5    5    0  502 -0.78159368121E+02  0.46676775110E+02  0.48186644948E+02  0.10310989725E+03  0.47000000000E+01 0.  1.
         11    1    6    6    0    0  0.18105998460E+01  0.39818316828E+02  0.38189992892E+02  0.55201921923E+02  0.00000000000E+00 0. -1.
        -12    1    6    6    0    0 -0.29441021039E+02  0.73322154857E+01  0.19735232955E+03  0.19967092197E+03  0.00000000000E+00 0.  1.
<mgrwt>
<rscale>  2 0.22227703E+03</rscale>
<asrwt>0</asrwt>
<pdfrwt beam="1">  1       21 0.12958471E+00 0.22362294E+03</pdfrwt>
<pdfrwt beam="2">  1       21 0.94003399E-02 0.22362294E+03</pdfrwt>
<totfact> 0.38765652E+04</totfact>
</mgrwt>
</event>
<event>
12    1  0.1029207E-001  0.2753273E+03  0.7546771E-02  0.1098575E+00
         21   -1    0    0  501  502  0.00000000000E+00  0.00000000000E+00  0.24291977712E+03  0.24291977712E+03  0.00000000000E+00 0. -1.
         21   -1    0    0  502  503 -0.00000000000E+00 -0.00000000000E+00 -0.44553613273E+03  0.44553613273E+03  0.00000000000E+00 0. -1.
         -6    2    1    2    0  503 -0.20102332771E+02  0.21309074040E+03  0.89122391476E+02  0.28731180603E+03  0.16968649267E+03 0.  0.
        -24    2    3    3    0    0  0.25185279470E+02  0.15258411655E+03  0.49227739246E+01  0.17407009574E+03  0.79749317262E+02 0.  0.
          6    2    1    2  501    0  0.20102332771E+02 -0.21309074040E+03 -0.29173874709E+03  0.40114410382E+03  0.17318581943E+03 0.  0.
         24    2    5    5    0    0  0.59175261213E+02 -0.17273974602E+03 -0.15426233872E+03  0.25256163736E+03  0.81546183968E+02 0.  0.
          5    1    5    5  501    0 -0.39072928442E+02 -0.40350994374E+02 -0.13747640836E+03  0.14858246646E+03  0.47000000000E+01 0. -1.
        -13    1    6    6    0    0  0.38851734231E+02 -0.69798145379E+02 -0.20345175898E+02  0.82432787975E+02  0.00000000000E+00 0.  1.
         14    1    6    6    0    0  0.20323526982E+02 -0.10294160064E+03 -0.13391716283E+03  0.17012884938E+03  0.00000000000E+00 0. -1.
         -5    1    3    3    0  503 -0.45287612241E+02  0.60506623844E+02  0.84199617552E+02  0.11324171028E+03  0.47000000000E+01 0.  1.
         11    1    4    4    0    0  0.27836205287E+02  0.68443119644E+02  0.38646303209E+02  0.83383761627E+02  0.00000000000E+00 0. -1.
        -12    1    4    4    0    0 -0.26509258172E+01  0.84140996908E+02 -0.33723529284E+02  0.90686334118E+02  0.00000000000E+00 0.  1.
<mgrwt>
<rscale>  2 0.27477872E+03</rscale>
<asrwt>0</asrwt>
<pdfrwt beam="1">  1       21 0.37372273E-01 0.27532725E+03</pdfrwt>
<pdfrwt beam="2">  1       21 0.68544020E-01 0.27532725E+03</pdfrwt>
<totfact> 0.12787371E+04</totfact>
</mgrwt>
</event>
<event>
12    1  0.1029207E-001  0.1994091E+03  0.7546771E-02  0.1150350E+00
         21   -1    0    0  501  502  0.00000000000E+00  0.00000000000E+00  0.36929276664E+03  0.36929276664E+03  0.00000000000E+00 0. -1.
         21   -1    0    0  502  503 -0.00000000000E+00 -0.00000000000E+00 -0.14373502106E+03  0.14373502106E+03  0.00000000000E+00 0. -1.
         -6    2    1    2    0  503  0.86574401664E+02  0.44187135444E+02 -0.16318894777E+02  0.19955005081E+03  0.17351163214E+03 0.  0.
        -24    2    3    3    0    0  0.11241589053E+03  0.69202212215E+02  0.11172755731E+02  0.15403722338E+03  0.78589802768E+02 0.  0.
          6    2    1    2  501    0 -0.86574401664E+02 -0.44187135444E+02  0.24187664036E+03  0.31347773690E+03  0.17411591661E+03 0.  0.
         24    2    5    5    0    0  0.33073214871E+01  0.18568655414E+02  0.14233163842E+03  0.16532811370E+03  0.81971681353E+02 0.  0.
          5    1    5    5  501    0 -0.89881723151E+02 -0.62755790859E+02  0.99545001938E+02  0.14814962320E+03  0.47000000000E+01 0. -1.
        -13    1    6    6    0    0 -0.88082925717E+01  0.23635559322E+02  0.14863584335E+03  0.15076086897E+03  0.00000000000E+00 0.  1.
         14    1    6    6    0    0  0.12115614059E+02 -0.50669039075E+01 -0.63042049313E+01  0.14567244731E+02  0.00000000000E+00 0. -1.
         -5    1    3    3    0  503 -0.25841488862E+02 -0.25015076771E+02 -0.27491650508E+02  0.45512827424E+02  0.47000000000E+01 0.  1.
         11    1    4    4    0    0  0.32521882842E+02  0.35671561187E+01 -0.28401922401E+02  0.43325127379E+02  0.00000000000E+00 0. -1.
        -12    1    4    4    0    0  0.79894007684E+02  0.65635056097E+02  0.39574678132E+02  0.11071209601E+03  0.00000000000E+00 0.  1.
<mgrwt>
<rscale>  2 0.19927710E+03</rscale>
<asrwt>0</asrwt>
<pdfrwt beam="1">  1       21 0.56814271E-01 0.19940908E+03</pdfrwt>
<pdfrwt beam="2">  1       21 0.22113080E-01 0.19940908E+03</pdfrwt>
<totfact> 0.55484703E+04</totfact>
</mgrwt>
</event>
<event>
12    1  0.1029207E-001  0.2595073E+03  0.7546771E-02  0.1107708E+00
         21   -1    0    0  503  502  0.00000000000E+00  0.00000000000E+00  0.12990190017E+04  0.12990190017E+04  0.00000000000E+00 0.  1.
         21   -1    0    0  501  503 -0.00000000000E+00 -0.00000000000E+00 -0.57230424520E+02  0.57230424520E+02  0.00000000000E+00 0.  1.
          6    2    1    2  501    0  0.25685546749E+01  0.19229862428E+03  0.40801806576E+03  0.48355227610E+03  0.17423749126E+03 0.  0.
         24    2    3    3    0    0  0.51946338166E+02  0.13073962158E+03  0.34940389829E+03  0.38513791259E+03  0.80354569730E+02 0.  0.
         -6    2    1    2    0  502 -0.25685546749E+01 -0.19229862428E+03  0.83377051144E+03  0.87269715014E+03  0.17158581451E+03 0.  0.
        -24    2    5    5    0    0  0.59018534675E+02 -0.72499697823E+02  0.41750274119E+03  0.43515206800E+03  0.79431667263E+02 0.  0.
          5    1    3    3  501    0 -0.49377783491E+02  0.61559002704E+02  0.58614167467E+02  0.98414363506E+02  0.47000000000E+01 0. -1.
        -13    1    4    4    0    0  0.25634089748E+02  0.12534220063E+03  0.23442591791E+03  0.26706419604E+03  0.00000000000E+00 0.  1.
         14    1    4    4    0    0  0.26312248418E+02  0.53974209503E+01  0.11497798038E+03  0.11807371656E+03  0.00000000000E+00 0. -1.
         -5    1    5    5    0  502 -0.61587089350E+02 -0.11979892646E+03  0.41626777026E+03  0.43754508214E+03  0.47000000000E+01 0.  1.
         13    1    6    6    0    0  0.29483128539E+02 -0.98335213796E+01  0.36668661582E+02  0.48068115767E+02  0.00000000000E+00 0. -1.
        -14    1    6    6    0    0  0.29535406136E+02 -0.62666176443E+02  0.38083407961E+03  0.38708395223E+03  0.00000000000E+00 0.  1.
<mgrwt>
<rscale>  2 0.25906298E+03</rscale>
<asrwt>0</asrwt>
<pdfrwt beam="1">  1       21 0.19984906E+00 0.25950734E+03</pdfrwt>
<pdfrwt beam="2">  1       21 0.88046816E-02 0.25950734E+03</pdfrwt>
<totfact> 0.13023376E+04</totfact>
</mgrwt>
</event>
<event>
12    1  0.1029207E-001  0.2193690E+03  0.7546771E-02  0.1134505E+00
         21   -1    0    0  503  502  0.00000000000E+00  0.00000000000E+00  0.24178442790E+03  0.24178442790E+03  0.00000000000E+00 0.  1.
         21   -1    0    0  501  503 -0.00000000000E+00 -0.00000000000E+00 -0.23263024595E+03  0.23263024595E+03  0.00000000000E+00 0. -1.
          6    2    1    2  501    0  0.12453871632E+03 -0.54167625512E+02 -0.86547900818E+02  0.23507883593E+03  0.17125272684E+03 0.  0.
         24    2    3    3    0    0  0.12438700140E+03 -0.26786284561E+00 -0.20685090877E+02  0.14984265132E+03  0.80949053749E+02 0.  0.
         -6    2    1    2    0  502 -0.12453871632E+03  0.54167625512E+02  0.95702082767E+02  0.23933583793E+03  0.17227516117E+03 0.  0.
        -24    2    5    5    0    0 -0.22995346976E+02  0.21636796586E+02 -0.32256501444E+01  0.93808874698E+02  0.88276628868E+02 0.  0.
          5    1    3    3  501    0  0.15171492204E+00 -0.53899762667E+02 -0.65862809942E+02  0.85236184607E+02  0.47000000000E+01 0. -1.
        -11    1    4    4    0    0  0.93258308557E+02 -0.19247868068E+02  0.17752429456E+02  0.96864551265E+02  0.00000000000E+00 0.  1.
         12    1    4    4    0    0  0.31128692841E+02  0.18980005222E+02 -0.38437520332E+02  0.52978100056E+02  0.00000000000E+00 0. -1.
         -5    1    5    5    0  502 -0.10154336934E+03  0.32530828926E+02  0.98927732912E+02  0.14552696323E+03  0.47000000000E+01 0.  1.
         11    1    6    6    0    0  0.23080068537E+02  0.27571414706E+02 -0.23675358860E+02  0.43051075361E+02  0.00000000000E+00 0. -1.
        -12    1    6    6    0    0 -0.46075415513E+02 -0.59346181205E+01  0.20449708716E+02  0.50757799337E+02  0.00000000000E+00 0.  1.
<mgrwt>
<rscale>  2 0.21916821E+03</rscale>
<asrwt>0</asrwt>
<pdfrwt beam="1">  1       21 0.37197604E-01 0.21936899E+03</pdfrwt>
<pdfrwt beam="2">  1       21 0.35789269E-01 0.21936899E+03</pdfrwt>
<totfact> 0.51819575E+04</totfact>
</mgrwt>
</event>
<event>
12    1  0.1029207E-001  0.1798761E+03  0.7546771E-02  0.1167958E+00
         21   -1    0    0  501  502  0.00000000000E+00  0.00000000000E+00  0.21317681826E+03  0.21317681826E+03  0.00000000000E+00 0.  1.
         21   -1    0    0  502  503 -0.00000000000E+00 -0.00000000000E+00 -0.21478851544E+03  0.21478851544E+03  0.00000000000E+00 0.  1.
         -6    2    1    2    0  503  0.29892488153E+02  0.39433345137E+02 -0.11681778786E+03  0.21448029165E+03  0.17293597194E+03 0.  0.
        -24    2    3    3    0    0 -0.24591224926E+02  0.37554964238E+02 -0.12942429858E+03  0.15832855599E+03  0.79386263896E+02 0.  0.
          6    2    1    2  501    0 -0.29892488153E+02 -0.39433345137E+02  0.11520609068E+03  0.21348504204E+03  0.17278561945E+03 0.  0.
         24    2    5    5    0    0  0.37510016535E+02 -0.19707660043E+02  0.11055517557E+03  0.14294483151E+03  0.80096097313E+02 0.  0.
          5    1    5    5  501    0 -0.67402504688E+02 -0.19725685094E+02  0.46509151139E+01  0.70540210533E+02  0.47000000000E+01 0. -1.
        -13    1    6    6    0    0 -0.75066588939E+01  0.25629989665E+02  0.33827124787E+02  0.43098963669E+02  0.00000000000E+00 0.  1.
         14    1    6    6    0    0  0.45016675429E+02 -0.45337649708E+02  0.76728050779E+02  0.99845867837E+02  0.00000000000E+00 0. -1.
         -5    1    3    3    0  503  0.54483713079E+02  0.18783808987E+01  0.12606510724E+02  0.56151735666E+02  0.47000000000E+01 0.  1.
         13    1    4    4    0    0 -0.68590499484E+01  0.55047726826E+02 -0.48593763350E+02  0.73747221178E+02  0.00000000000E+00 0. -1.
        -14    1    4    4    0    0 -0.17732174977E+02 -0.17492762587E+02 -0.80830535232E+02  0.84581334810E+02  0.00000000000E+00 0.  1.
<mgrwt>
<rscale>  2 0.17983992E+03</rscale>
<asrwt>0</asrwt>
<pdfrwt beam="1">  1       21 0.32796433E-01 0.17987607E+03</pdfrwt>
<pdfrwt beam="2">  1       21 0.33044387E-01 0.17987607E+03</pdfrwt>
<totfact> 0.79316601E+04</totfact>
</mgrwt>
</event>
<event>
12    1  0.1029207E-001  0.1761581E+03  0.7546771E-02  0.1172184E+00
         21   -1    0    0  503  502  0.00000000000E+00  0.00000000000E+00  0.16104344777E+03  0.16104344777E+03  0.00000000000E+00 0.  1.
         21   -1    0    0  501  503 -0.00000000000E+00 -0.00000000000E+00 -0.25499455000E+03  0.25499455000E+03  0.00000000000E+00 0.  1.
          6    2    1    2  501    0 -0.14617874413E+02  0.28162964931E+02 -0.15220818386E+03  0.23280682631E+03  0.17327680830E+03 0.  0.
         24    2    3    3    0    0  0.32113986816E+01 -0.39602113818E+02 -0.13281556702E+03  0.15994975757E+03  0.79782890424E+02 0.  0.
         -6    2    1    2    0  502  0.14617874413E+02 -0.28162964931E+02  0.58257081632E+02  0.18323117147E+03  0.17080087760E+03 0.  0.
        -24    2    5    5    0    0  0.44999480335E+01  0.29183688877E+02 -0.18722270777E+02  0.86593074245E+02  0.79220577222E+02 0.  0.
          5    1    3    3  501    0 -0.17829273094E+02  0.67765078749E+02 -0.19392616841E+02  0.72857068736E+02  0.47000000000E+01 0. -1.
        -11    1    4    4    0    0  0.34932971149E+02 -0.30375402547E+01 -0.84820526010E+02  0.91782682227E+02  0.00000000000E+00 0.  1.
         12    1    4    4    0    0 -0.31721572467E+02 -0.36564573563E+02 -0.47995041008E+02  0.68167075344E+02  0.00000000000E+00 0. -1.
         -5    1    5    5    0  502  0.10117926379E+02 -0.57346653808E+02  0.76979352409E+02  0.96638097221E+02  0.47000000000E+01 0.  1.
         13    1    6    6    0    0 -0.23776616141E+02  0.22701107707E+02 -0.39143324915E+02  0.51116217110E+02  0.00000000000E+00 0. -1.
        -14    1    6    6    0    0  0.28276564174E+02  0.64825811694E+01  0.20421054138E+02  0.35476857136E+02  0.00000000000E+00 0.  1.
<mgrwt>
<rscale>  2 0.17554624E+03</rscale>
<asrwt>0</asrwt>
<pdfrwt beam="1">  1       21 0.24775915E-01 0.17615813E+03</pdfrwt>
<pdfrwt beam="2">  1       21 0.39229930E-01 0.17615813E+03</pdfrwt>
<totfact> 0.97142006E+04</totfact>
</mgrwt>
</event>
<event>
12    1  0.1029207E-001  0.1745046E+03  0.7546771E-02  0.1173564E+00
         21   -1    0    0  501  502  0.00000000000E+00  0.00000000000E+00  0.20149293499E+02  0.20149293499E+02  0.00000000000E+00 0. -1.
         21   -1    0    0  502  503 -0.00000000000E+00 -0.00000000000E+00 -0.17537019216E+04  0.17537019216E+04  0.00000000000E+00 0. -1.
         -6    2    1    2    0  503 -0.15982368138E+02 -0.40090365074E+01 -0.12069952070E+04  0.12195447065E+04  0.17372493492E+03 0.  0.
        -24    2    3    3    0    0 -0.43519169887E+02 -0.55750253060E+02 -0.56897502416E+03  0.57882068430E+03  0.79364964490E+02 0.  0.
          6    2    1    2  501    0  0.15982368138E+02  0.40090365074E+01 -0.52655742118E+03  0.55430650866E+03  0.17239918583E+03 0.  0.
         24    2    5    5    0    0  0.26169771710E+02  0.32793370219E+01 -0.11606570595E+03  0.14366085371E+03  0.80446142165E+02 0.  0.
          5    1    5    5  501    0 -0.10187403572E+02  0.72969948551E+00 -0.41049171523E+03  0.41064565495E+03  0.47000000000E+01 0. -1.
        -11    1    6    6    0    0  0.48271332304E+02  0.65268355545E+01 -0.11031941236E+03  0.12059475050E+03  0.00000000000E+00 0.  1.
         12    1    6    6    0    0 -0.22101560595E+02 -0.32474985326E+01 -0.57462935910E+01  0.23066103214E+02  0.00000000000E+00 0. -1.
         -5    1    3    3    0  503  0.27536801749E+02  0.51741216553E+02 -0.63802018280E+03  0.64072402219E+03  0.47000000000E+01 0.  1.
         13    1    4    4    0    0 -0.48942121632E+01  0.38266080493E+01 -0.31625505742E+03  0.31631607229E+03  0.00000000000E+00 0. -1.
        -14    1    4    4    0    0 -0.38624957724E+02 -0.59576861109E+02 -0.25271996674E+03  0.26250461201E+03  0.00000000000E+00 0.  1.
<mgrwt>
<rscale>  2 0.17417373E+03</rscale>
<asrwt>0</asrwt>
<pdfrwt beam="1">  1       21 0.30998915E-02 0.17450462E+03</pdfrwt>
<pdfrwt beam="2">  1       21 0.26980028E+00 0.17450462E+03</pdfrwt>
<totfact> 0.31053837E+04</totfact>
</mgrwt>
</event>
<event>
12    1  0.1029207E-001  0.1883857E+03  0.7546771E-02  0.1161501E+00
         21   -1    0    0  503  502  0.00000000000E+00  0.00000000000E+00  0.94183710598E+02  0.94183710598E+02  0.00000000000E+00 0. -1.
         21   -1    0    0  501  503 -0.00000000000E+00 -0.00000000000E+00 -0.49543455341E+03  0.49543455341E+03  0.00000000000E+00 0. -1.
          6    2    1    2  501    0  0.74489059504E+02 -0.11988678129E+02 -0.35550832428E+03  0.40233733933E+03  0.17261754718E+03 0.  0.
         24    2    3    3    0    0 -0.69327904819E+01  0.42035338039E+02 -0.17609214591E+03  0.19798380488E+03  0.79838023002E+02 0.  0.
         -6    2    1    2    0  502 -0.74489059504E+02  0.11988678129E+02 -0.45742518531E+02  0.18728092468E+03  0.16519509181E+03 0.  0.
        -24    2    5    5    0    0 -0.24983014918E+01 -0.41680723977E+02 -0.30692748368E+02  0.96112621289E+02  0.80944838669E+02 0.  0.
          5    1    3    3  501    0  0.81421849986E+02 -0.54024016169E+02 -0.17941617837E+03  0.20435353444E+03  0.47000000000E+01 0. -1.
        -13    1    4    4    0    0  0.34982860760E+02  0.18778041281E+02 -0.55726386385E+02  0.68424012750E+02  0.00000000000E+00 0.  1.
         14    1    4    4    0    0 -0.41915651242E+02  0.23257296759E+02 -0.12036575952E+03  0.12955979213E+03  0.00000000000E+00 0. -1.
         -5    1    5    5    0  502 -0.71990758012E+02  0.53669402106E+02 -0.15049770163E+02  0.91168303393E+02  0.47000000000E+01 0.  1.
         11    1    6    6    0    0  0.22518054074E+02 -0.16650348408E+02  0.19911383155E+02  0.34362189112E+02  0.00000000000E+00 0. -1.
        -12    1    6    6    0    0 -0.25016355566E+02 -0.25030375569E+02 -0.50604131523E+02  0.61750432177E+02  0.00000000000E+00 0.  1.
<mgrwt>
<rscale>  2 0.18666812E+03</rscale>
<asrwt>0</asrwt>
<pdfrwt beam="1">  1       21 0.14489802E-01 0.18838568E+03</pdfrwt>
<pdfrwt beam="2">  1       21 0.76220699E-01 0.18838568E+03</pdfrwt>
<totfact> 0.64188456E+04</totfact>
</mgrwt>
</event>
<event>
12    1  0.1029207E-001  0.1901005E+03  0.7546771E-02  0.1159349E+00
         21   -1    0    0  503  502  0.00000000000E+00  0.00000000000E+00  0.15219990652E+03  0.15219990652E+03  0.00000000000E+00 0. -1.
         21   -1    0    0  501  503 -0.00000000000E+00 -0.00000000000E+00 -0.40446613402E+03  0.40446613402E+03  0.00000000000E+00 0. -1.
          6    2    1    2  501    0 -0.63285572080E+02 -0.34002581341E+02 -0.30864445208E+03  0.36249081323E+03  0.17600270651E+03 0.  0.
         24    2    3    3    0    0 -0.47591930734E+02 -0.80085527710E+02 -0.13735294661E+03  0.18435379245E+03  0.80260857380E+02 0.  0.
         -6    2    1    2    0  502  0.63285572080E+02  0.34002581341E+02  0.56378224584E+02  0.19417522732E+03  0.17136007564E+03 0.  0.
        -24    2    5    5    0    0  0.10997044139E+03  0.27309341263E+02  0.48473635735E+02  0.14612474334E+03  0.78507637566E+02 0.  0.
          5    1    3    3  501    0 -0.15693641347E+02  0.46082946369E+02 -0.17129150547E+03  0.17813702078E+03  0.47000000000E+01 0. -1.
        -13    1    4    4    0    0  0.18129847990E+02 -0.19959207952E+02 -0.96196402434E+01  0.28628636863E+02  0.00000000000E+00 0.  1.
         14    1    4    4    0    0 -0.65721778724E+02 -0.60126319759E+02 -0.12773330637E+03  0.15572515559E+03  0.00000000000E+00 0. -1.
         -5    1    5    5    0  502 -0.46684869308E+02  0.66932400789E+01  0.79045888489E+01  0.48050483972E+02  0.47000000000E+01 0.  1.
         11    1    6    6    0    0  0.66810451879E+02  0.27089642245E+02  0.67679610623E+02  0.98883845452E+02  0.00000000000E+00 0. -1.
        -12    1    6    6    0    0  0.43159989509E+02  0.21969901727E+00 -0.19205974888E+02  0.47240897891E+02  0.00000000000E+00 0.  1.
<mgrwt>
<rscale>  2 0.18901877E+03</rscale>
<asrwt>0</asrwt>
<pdfrwt beam="1">  1       21 0.23415370E-01 0.19010048E+03</pdfrwt>
<pdfrwt beam="2">  1       21 0.62225559E-01 0.19010048E+03</pdfrwt>
<totfact> 0.41155597E+04</totfact>
</mgrwt>
</event>
<event>
12    1  0.1029207E-001  0.1777396E+03  0.7546771E-02  0.1170350E+00
         21   -1    0    0  503  502  0.00000000000E+00  0.00000000000E+00  0.65202618641E+02  0.65202618641E+02  0.00000000000E+00 0. -1.
         21   -1    0    0  501  503 -0.00000000000E+00 -0.00000000000E+00 -0.49291436589E+03  0.49291436589E+03  0.00000000000E+00 0. -1.
          6    2    1    2  501    0 -0.17318885618E+02 -0.28307006796E+02 -0.25687606858E+03  0.31158869161E+03  0.17320787422E+03 0.  0.
         24    2    3    3    0    0  0.27681624175E+02  0.27905324805E+02 -0.77548988507E+02  0.11828798350E+03  0.80207368440E+02 0.  0.
         -6    2    1    2    0  502  0.17318885618E+02  0.28307006796E+02 -0.17083567866E+03  0.24652829292E+03  0.17461425966E+03 0.  0.
        -24    2    5    5    0    0  0.50578244805E+02  0.70774361004E+02 -0.86179623536E+02  0.14603750321E+03  0.79579242324E+02 0.  0.
          5    1    3    3  501    0 -0.45000509793E+02 -0.56212331601E+02 -0.17932708008E+03  0.19330070811E+03  0.47000000000E+01 0. -1.
        -11    1    4    4    0    0 -0.27234123873E+01 -0.13386032796E+02  0.99297332380E+01  0.16887938039E+02  0.00000000000E+00 0.  1.
         12    1    4    4    0    0  0.30405036562E+02  0.41291357601E+02 -0.87478721745E+02  0.10140004546E+03  0.00000000000E+00 0. -1.
         -5    1    5    5    0  502 -0.33259359188E+02 -0.42467354208E+02 -0.84656055125E+02  0.10049078971E+03  0.47000000000E+01 0.  1.
         13    1    6    6    0    0  0.68406404788E+02  0.39804625220E+02 -0.73814507188E+02  0.10822396166E+03  0.00000000000E+00 0. -1.
        -14    1    6    6    0    0 -0.17828159982E+02  0.30969735784E+02 -0.12365116348E+02  0.37813541559E+02  0.00000000000E+00 0.  1.
<mgrwt>
<rscale>  2 0.17739324E+03</rscale>
<asrwt>0</asrwt>
<pdfrwt beam="1">  1       21 0.10031172E-01 0.17773961E+03</pdfrwt>
<pdfrwt beam="2">  1       21 0.75832978E-01 0.17773961E+03</pdfrwt>
<totfact> 0.12585848E+05</totfact>
</mgrwt>
</event>
<event>
12    1  0.1029207E-001  0.2296784E+03  0.7546771E-02  0.1126945E+00
         21   -1    0    0  503  502  0.00000000000E+00  0.00000000000E+00  0.27388105251E+03  0.27388105251E+03  0.00000000000E+00 0. -1.
         21   -1    0    0  501  503 -0.00000000000E+00 -0.00000000000E+00 -0.27818020183E+03  0.27818020183E+03  0.00000000000E+00 0. -1.
          6    2    1    2  501    0  0.12949456711E+03 -0.76038071487E+02 -0.15558025223E+03  0.27741194287E+03  0.17378590257E+03 0.  0.
         24    2    3    3    0    0  0.13235320808E+03 -0.10975068351E+03 -0.15296089061E+03  0.24315317620E+03  0.78510182922E+02 0.  0.
         -6    2    1    2    0  502 -0.12949456711E+03  0.76038071487E+02  0.15128110291E+03  0.27464931147E+03  0.17319249685E+03 0.  0.
        -24    2    5    5    0    0 -0.36381450929E+01  0.12096881576E+02  0.82772696804E+02  0.11766585235E+03  0.82670205207E+02 0.  0.
          5    1    3    3  501    0 -0.28586409630E+01  0.33712612026E+02 -0.26193616213E+01  0.34258766660E+02  0.47000000000E+01 0. -1.
        -13    1    4    4    0    0  0.34207031958E+02 -0.75377895604E+02 -0.86569851269E+02  0.11977598812E+03  0.00000000000E+00 0.  1.
         14    1    4    4    0    0  0.98146176118E+02 -0.34372787910E+02 -0.66391039342E+02  0.12337718809E+03  0.00000000000E+00 0. -1.
         -5    1    5    5    0  502 -0.12585642202E+03  0.63941189911E+02  0.68508406108E+02  0.15698345912E+03  0.47000000000E+01 0.  1.
         11    1    6    6    0    0 -0.18798609017E+02 -0.30385645847E+02  0.51882753143E+02  0.62995993907E+02  0.00000000000E+00 0. -1.
        -12    1    6    6    0    0  0.15160463925E+02  0.42482527423E+02  0.30889943661E+02  0.54669858441E+02  0.00000000000E+00 0.  1.
<mgrwt>
<rscale>  2 0.22956616E+03</rscale>
<asrwt>0</asrwt>
<pdfrwt beam="1">  1       21 0.42135547E-01 0.22967841E+03</pdfrwt>
<pdfrwt beam="2">  1       21 0.42796954E-01 0.22967841E+03</pdfrwt>
<totfact> 0.27910650E+04</totfact>
</mgrwt>
</event>
<event>
12    1  0.1029207E-001  0.2845876E+03  0.7546771E-02  0.1093535E+00
         21   -1    0    0  503  502  0.00000000000E+00  0.00000000000E+00  0.79379372116E+03  0.79379372116E+03  0.00000000000E+00 0. -1.
         21   -1    0    0  501  503 -0.00000000000E+00 -0.00000000000E+00 -0.13939070936E+03  0.13939070936E+03  0.00000000000E+00 0.  1.
          6    2    1    2  501    0 -0.59694196990E+02 -0.21596403111E+03  0.83865207317E+02  0.29668751919E+03  0.17546011273E+03 0.  0.
         24    2    3    3    0    0 -0.42630699518E+02 -0.20427917066E+03  0.12086249805E+03  0.25404260823E+03  0.79890845881E+02 0.  0.
         -6    2    1    2    0  502  0.59694196990E+02  0.21596403111E+03  0.57053780448E+03  0.63649691133E+03  0.17149656528E+03 0.  0.
        -24    2    5    5    0    0  0.83901098684E+02  0.11718108737E+03  0.44643288904E+03  0.47597225871E+03  0.80476487527E+02 0.  0.
          5    1    3    3  501    0 -0.17063497472E+02 -0.11684860445E+02 -0.36997290728E+02  0.42644910960E+02  0.47000000000E+01 0. -1.
        -11    1    4    4    0    0 -0.25640891909E+02 -0.18342800797E+03  0.72877610995E+02  0.19903375501E+03  0.00000000000E+00 0.  1.
         12    1    4    4    0    0 -0.16989807608E+02 -0.20851162688E+02  0.47984887050E+02  0.55008853226E+02  0.00000000000E+00 0. -1.
         -5    1    5    5    0  502 -0.24206901695E+02  0.98782943736E+02  0.12410491544E+03  0.16052465262E+03  0.47000000000E+01 0.  1.
         11    1    6    6    0    0  0.49605162300E+01  0.74818812105E+02  0.18517180274E+03  0.19977752100E+03  0.00000000000E+00 0. -1.
        -12    1    6    6    0    0  0.78940582454E+02  0.42362275267E+02  0.26126108630E+03  0.27619473771E+03  0.00000000000E+00 0.  1.
<mgrwt>
<rscale>  2 0.28397906E+03</rscale>
<asrwt>0</asrwt>
<pdfrwt beam="1">  1       21 0.12212211E+00 0.28458762E+03</pdfrwt>
<pdfrwt beam="2">  1       21 0.21444725E-01 0.28458762E+03</pdfrwt>
<totfact> 0.96796737E+03</totfact>
</mgrwt>
</event>
<event>
12    1  0.1029207E-001  0.2419033E+03  0.7546771E-02  0.1118700E+00
         21   -1    0    0  503  502  0.00000000000E+00  0.00000000000E+00  0.32933678417E+03  0.32933678417E+03  0.00000000000E+00 0. -1.
         21   -1    0    0  501  503 -0.00000000000E+00 -0.00000000000E+00 -0.19192765752E+03  0.19192765752E+03  0.00000000000E+00 0. -1.
          6    2    1    2  501    0 -0.13551032666E+03  0.96380362244E+02 -0.40121141606E+01  0.24193659804E+03  0.17568436912E+03 0.  0.
         24    2    3    3    0    0 -0.37230800292E+02  0.94411682836E+02 -0.48388658811E+02  0.13398240073E+03  0.72870591162E+02 0.  0.
         -6    2    1    2    0  502  0.13551032666E+03 -0.96380362244E+02  0.14142124081E+03  0.27932784366E+03  0.17427522495E+03 0.  0.
        -24    2    5    5    0    0  0.74496366677E+02 -0.93175668216E+02  0.16118724553E+03  0.21494028027E+03  0.77373006684E+02 0.  0.
          5    1    3    3  501    0 -0.98279526370E+02  0.19686794080E+01  0.44376544651E+02  0.10795419731E+03  0.47000000000E+01 0. -1.
        -13    1    4    4    0    0 -0.41987362494E+02  0.13814950368E+02 -0.17315981675E+02  0.47472462378E+02  0.00000000000E+00 0.  1.
         14    1    4    4    0    0  0.47565622021E+01  0.80596732468E+02 -0.31072677136E+02  0.86509938348E+02  0.00000000000E+00 0. -1.
         -5    1    5    5    0  502  0.61013959985E+02 -0.32046940286E+01 -0.19766004723E+02  0.64387563392E+02  0.47000000000E+01 0.  1.
         13    1    6    6    0    0  0.24883316066E+02 -0.41456164273E+02  0.12589996649E+02  0.49962996210E+02  0.00000000000E+00 0. -1.
        -14    1    6    6    0    0  0.49613050611E+02 -0.51719503943E+02  0.14859724889E+03  0.16497728406E+03  0.00000000000E+00 0.  1.
<mgrwt>
<rscale>  2 0.24164756E+03</rscale>
<asrwt>0</asrwt>
<pdfrwt beam="1">  1       21 0.50667197E-01 0.24190333E+03</pdfrwt>
<pdfrwt beam="2">  1       21 0.29527332E-01 0.24190333E+03</pdfrwt>
<totfact> 0.39789148E+04</totfact>
</mgrwt>
</event>
<event>
12    1  0.1029207E-001  0.2322906E+03  0.7546771E-02  0.1125101E+00
         21   -1    0    0  501  502  0.00000000000E+00  0.00000000000E+00  0.46442492179E+03  0.46442492179E+03  0.00000000000E+00 0.  1.
         21   -1    0    0  502  503 -0.00000000000E+00 -0.00000000000E+00 -0.39565268914E+03  0.39565268914E+03  0.00000000000E+00 0.  1.
         -6    2    1    2    0  503 -0.81957762685E+02  0.13076848398E+03 -0.32714667262E+03  0.40122792618E+03  0.17361287991E+03 0.  0.
        -24    2    3    3    0    0 -0.51862321490E+02  0.14388577272E+03 -0.32427129501E+03  0.36793893940E+03  0.82670275074E+02 0.  0.
          6    2    1    2  501    0  0.81957762685E+02 -0.13076848398E+03  0.39591890528E+03  0.45884968475E+03  0.17312938045E+03 0.  0.
         24    2    5    5    0    0  0.10794239409E+03 -0.12489017060E+03  0.24964966889E+03  0.31009977668E+03  0.81165258375E+02 0.  0.
          5    1    5    5  501    0 -0.25984631408E+02 -0.58783133846E+01  0.14626923639E+03  0.14874990807E+03  0.47000000000E+01 0. -1.
        -11    1    6    6    0    0  0.90100074424E+02 -0.71923801403E+02  0.21605513444E+03  0.24488952149E+03  0.00000000000E+00 0.  1.
         12    1    6    6    0    0  0.17842319669E+02 -0.52966369196E+02  0.33594534450E+02  0.65210255190E+02  0.00000000000E+00 0. -1.
         -5    1    3    3    0  503 -0.30095441196E+02 -0.13117288734E+02 -0.28753776159E+01  0.33288986781E+02  0.47000000000E+01 0.  1.
         11    1    4    4    0    0 -0.10938402159E+02  0.72753392925E+02 -0.73146789389E+02  0.10374563905E+03  0.00000000000E+00 0. -1.
        -12    1    4    4    0    0 -0.40923919331E+02  0.71132379792E+02 -0.25112450562E+03  0.26419330035E+03  0.00000000000E+00 0.  1.
<mgrwt>
<rscale>  2 0.23220022E+03</rscale>
<asrwt>0</asrwt>
<pdfrwt beam="1">  1       21 0.71449988E-01 0.23229056E+03</pdfrwt>
<pdfrwt beam="2">  1       21 0.60869645E-01 0.23229056E+03</pdfrwt>
<totfact> 0.43184484E+03</totfact>
</mgrwt>
</event>
<event>
12    1  0.1029207E-001  0.1794427E+03  0.7546771E-02  0.1168396E+00
         21   -1    0    0  501  502  0.00000000000E+00  0.00000000000E+00  0.46764192700E+02  0.46764192700E+02  0.00000000000E+00 0.  1.
         21   -1    0    0  502  503 -0.00000000000E+00 -0.00000000000E+00 -0.74622762243E+03  0.74622762243E+03  0.00000000000E+00 0.  1.
         -6    2    1    2    0  503 -0.13803813803E+02 -0.44167448628E+02 -0.23891186261E+03  0.29879519670E+03  0.17337353511E+03 0.  0.
        -24    2    3    3    0    0  0.24973505287E+01 -0.29314991179E+02 -0.33026578348E+02  0.91678891861E+02  0.80303542065E+02 0.  0.
          6    2    1    2  501    0  0.13803813803E+02  0.44167448628E+02 -0.46055156712E+03  0.49419661843E+03  0.17315092522E+03 0.  0.
         24    2    5    5    0    0  0.10542958569E+02  0.26314739774E+01 -0.44057983871E+03  0.44775493131E+03  0.79093650871E+02 0.  0.
          5    1    5    5  501    0  0.32608552337E+01  0.41535974651E+02 -0.19971728408E+02  0.46441687121E+02  0.47000000000E+01 0. -1.
        -13    1    6    6    0    0  0.31881921885E+02  0.24412542341E+02 -0.14037090204E+03  0.14600143598E+03  0.00000000000E+00 0.  1.
         14    1    6    6    0    0 -0.21338963316E+02 -0.21781068363E+02 -0.30020893667E+03  0.30175349534E+03  0.00000000000E+00 0. -1.
         -5    1    3    3    0  503 -0.16301164332E+02 -0.14852457449E+02 -0.20588528427E+03  0.20711630483E+03  0.47000000000E+01 0.  1.
         11    1    4    4    0    0  0.37983650504E+01  0.12393059795E+02 -0.46149840628E+02  0.47935616176E+02  0.00000000000E+00 0. -1.
        -12    1    4    4    0    0 -0.13010145217E+01 -0.41708050974E+02  0.13123262280E+02  0.43743275686E+02  0.00000000000E+00 0.  1.
<mgrwt>
<rscale>  2 0.17938893E+03</rscale>
<asrwt>0</asrwt>
<pdfrwt beam="1">  1       21 0.71944911E-02 0.17944272E+03</pdfrwt>
<pdfrwt beam="2">  1       21 0.11480425E+00 0.17944272E+03</pdfrwt>
<totfact> 0.85433351E+04</totfact>
</mgrwt>
</event>
<event>
12    1  0.1029207E-001  0.1755724E+03  0.7546771E-02  0.1172308E+00
         21   -1    0    0  501  502  0.00000000000E+00  0.00000000000E+00  0.95354641265E+02  0.95354641265E+02  0.00000000000E+00 0. -1.
         21   -1    0    0  502  503 -0.00000000000E+00 -0.00000000000E+00 -0.80635191666E+03  0.80635191666E+03  0.00000000000E+00 0. -1.
         -6    2    1    2    0  503 -0.63044768078E+01  0.27610906345E+02 -0.70510176419E+03  0.72663206658E+03  0.17327306120E+03 0.  0.
        -24    2    3    3    0    0  0.32903079746E+02  0.47548223736E+02 -0.24906076199E+03  0.26845064530E+03  0.81798774820E+02 0.  0.
          6    2    1    2  501    0  0.63044768078E+01 -0.27610906345E+02 -0.58955112046E+01  0.17507449135E+03  0.17266792375E+03 0.  0.
         24    2    5    5    0    0  0.32345589803E+02 -0.75627163919E+02 -0.10275887870E+02  0.12007468901E+03  0.86871352973E+02 0.  0.
          5    1    5    5  501    0 -0.26041112995E+02  0.48016257574E+02  0.43803766652E+01  0.54999802338E+02  0.47000000000E+01 0. -1.
        -11    1    6    6    0    0  0.30172506169E+02  0.71733104148E+01 -0.19653667777E+02  0.36716524453E+02  0.00000000000E+00 0.  1.
         12    1    6    6    0    0  0.21730836338E+01 -0.82800474334E+02  0.93777799071E+01  0.83358164557E+02  0.00000000000E+00 0. -1.
         -5    1    3    3    0  503 -0.39207556554E+02 -0.19937317391E+02 -0.45604100220E+03  0.45818142127E+03  0.47000000000E+01 0.  1.
         13    1    4    4    0    0 -0.35258337155E+01  0.50577674886E+02 -0.20511819935E+03  0.21129128805E+03  0.00000000000E+00 0. -1.
        -14    1    4    4    0    0  0.36428913462E+02 -0.30294511503E+01 -0.43942562644E+02  0.57159357256E+02  0.00000000000E+00 0.  1.
<mgrwt>
<rscale>  2 0.17542290E+03</rscale>
<asrwt>0</asrwt>
<pdfrwt beam="1">  1       21 0.14669945E-01 0.17557238E+03</pdfrwt>
<pdfrwt beam="2">  1       21 0.12405414E+00 0.17557238E+03</pdfrwt>
<totfact> 0.20080694E+04</totfact>
</mgrwt>
</event>
<event>
12    1  0.1029207E-001  0.2120417E+03  0.7546771E-02  0.1140104E+00
         21   -1    0    0  503  502  0.00000000000E+00  0.00000000000E+00  0.55324124034E+03  0.55324124034E+03  0.00000000000E+00 0.  1.
         21   -1    0    0  501  503 -0.00000000000E+00 -0.00000000000E+00 -0.81226162250E+02  0.81226162250E+02  0.00000000000E+00 0.  1.
          6    2    1    2  501    0 -0.11593899635E+03  0.40417289574E+02  0.21916443881E+03  0.30495038711E+03  0.17287648534E+03 0.  0.
         24    2    3    3    0    0 -0.48167006254E+01 -0.21075319743E+02  0.10696641915E+03  0.13542165437E+03  0.80186282731E+02 0.  0.
         -6    2    1    2    0  502  0.11593899635E+03 -0.40417289574E+02  0.25285063927E+03  0.32951701548E+03  0.17196688500E+03 0.  0.
        -24    2    5    5    0    0  0.94909704944E+02  0.20796462166E+02  0.88394271805E+02  0.15271955707E+03  0.77906167230E+02 0.  0.
          5    1    3    3  501    0 -0.11112229573E+03  0.61492609317E+02  0.11219801966E+03  0.16952873274E+03  0.47000000000E+01 0. -1.
        -11    1    4    4    0    0  0.82558080934E+01  0.13474705342E+02 -0.57422996814E+01  0.16813686596E+02  0.00000000000E+00 0.  1.
         12    1    4    4    0    0 -0.13072508719E+02 -0.34550025085E+02  0.11270871884E+03  0.11860796777E+03  0.00000000000E+00 0. -1.
         -5    1    5    5    0  502  0.21029291410E+02 -0.61213751740E+02  0.16445636747E+03  0.17679745841E+03  0.47000000000E+01 0.  1.
         11    1    6    6    0    0 -0.22350032612E+01  0.82219925934E+01 -0.10501573874E+02  0.13523293076E+02  0.00000000000E+00 0. -1.
        -12    1    6    6    0    0  0.97144708205E+02  0.12574469572E+02  0.98895845679E+02  0.13919626399E+03  0.00000000000E+00 0.  1.
<mgrwt>
<rscale>  2 0.21185623E+03</rscale>
<asrwt>0</asrwt>
<pdfrwt beam="1">  1       21 0.85114035E-01 0.21204171E+03</pdfrwt>
<pdfrwt beam="2">  1       21 0.12496333E-01 0.21204171E+03</pdfrwt>
<totfact> 0.64603817E+04</totfact>
</mgrwt>
</event>
<event>
12    1  0.1029207E-001  0.2265253E+03  0.7546771E-02  0.1129211E+00
         21   -1    0    0  501  502  0.00000000000E+00  0.00000000000E+00  0.71155161674E+03  0.71155161674E+03  0.00000000000E+00 0. -1.
         21   -1    0    0  502  503 -0.00000000000E+00 -0.00000000000E+00 -0.77349385914E+02  0.77349385914E+02  0.00000000000E+00 0.  1.
         -6    2    1    2    0  503 -0.68154015940E+02 -0.12856920229E+03  0.21237077379E+03  0.31009466947E+03  0.17286511738E+03 0.  0.
        -24    2    3    3    0    0 -0.26419177721E+02 -0.10693307951E+03  0.22307617576E+03  0.26165280574E+03  0.81034277426E+02 0.  0.
          6    2    1    2  501    0  0.68154015940E+02  0.12856920229E+03  0.42183145703E+03  0.47880633318E+03  0.17360506009E+03 0.  0.
         24    2    5    5    0    0  0.10727364403E+03  0.61886368250E+02  0.29862646029E+03  0.33327796180E+03  0.80986910997E+02 0.  0.
          5    1    5    5  501    0 -0.39119628088E+02  0.66682834042E+02  0.12320499674E+03  0.14552837139E+03  0.47000000000E+01 0. -1.
        -11    1    6    6    0    0  0.19102188804E+02  0.33425602870E+01  0.34451279852E+01  0.19696071517E+02  0.00000000000E+00 0.  1.
         12    1    6    6    0    0  0.88171455224E+02  0.58543807963E+02  0.29518133231E+03  0.31358189028E+03  0.00000000000E+00 0. -1.
         -5    1    3    3    0  503 -0.41734838219E+02 -0.21636122784E+02 -0.10705401963E+02  0.48441863729E+02  0.47000000000E+01 0.  1.
         13    1    4    4    0    0  0.85485440211E+01 -0.10074081818E+03  0.16999982094E+03  0.19779213627E+03  0.00000000000E+00 0. -1.
        -14    1    4    4    0    0 -0.34967721742E+02 -0.61922613274E+01  0.53076354817E+02  0.63860669467E+02  0.00000000000E+00 0.  1.
<mgrwt>
<rscale>  2 0.22638356E+03</rscale>
<asrwt>0</asrwt>
<pdfrwt beam="1">  1       21 0.10946948E+00 0.22652533E+03</pdfrwt>
<pdfrwt beam="2">  1       21 0.11899906E-01 0.22652533E+03</pdfrwt>
<totfact> 0.38663506E+04</totfact>
</mgrwt>
</event>
<event>
12    1  0.1029207E-001  0.2228158E+03  0.7546771E-02  0.1131841E+00
         21   -1    0    0  501  502  0.00000000000E+00  0.00000000000E+00  0.15047767881E+03  0.15047767881E+03  0.00000000000E+00 0.  1.
         21   -1    0    0  502  503 -0.00000000000E+00 -0.00000000000E+00 -0.33119535995E+03  0.33119535995E+03  0.00000000000E+00 0.  1.
         -6    2    1    2    0  503  0.10868715996E+03 -0.91390771068E+02 -0.73710085268E+02  0.23469142153E+03  0.17170240212E+03 0.  0.
        -24    2    3    3    0    0  0.15281270989E+02 -0.75486062658E+01 -0.72357373876E+02  0.10908056005E+03  0.79827816755E+02 0.  0.
          6    2    1    2  501    0 -0.10868715996E+03  0.91390771068E+02 -0.10700759588E+03  0.24698161724E+03  0.17141797427E+03 0.  0.
         24    2    5    5    0    0 -0.14390134185E+03  0.77897946202E+02 -0.10306991693E+03  0.20877572444E+03  0.78665171014E+02 0.  0.
          5    1    5    5  501    0  0.35214181889E+02  0.13492824866E+02 -0.39376789434E+01  0.38205892797E+02  0.47000000000E+01 0. -1.
        -13    1    6    6    0    0 -0.87015998260E+02  0.80217772386E+02 -0.93972495803E+02  0.15112082890E+03  0.00000000000E+00 0.  1.
         14    1    6    6    0    0 -0.56885343586E+02 -0.23198261842E+01 -0.90974211300E+01  0.57654895539E+02  0.00000000000E+00 0. -1.
         -5    1    3    3    0  503  0.93405888968E+02 -0.83842164802E+02 -0.13527113923E+01  0.12561086148E+03  0.47000000000E+01 0.  1.
         13    1    4    4    0    0  0.20438606921E+02 -0.41294582055E+02 -0.51375382153E+02  0.69010209761E+02  0.00000000000E+00 0. -1.
        -14    1    4    4    0    0 -0.51573359314E+01  0.33745975789E+02 -0.20981991723E+02  0.40070350292E+02  0.00000000000E+00 0.  1.
<mgrwt>
<rscale>  2 0.22276102E+03</rscale>
<asrwt>0</asrwt>
<pdfrwt beam="1">  1       21 0.23150412E-01 0.22281581E+03</pdfrwt>
<pdfrwt beam="2">  1       21 0.50953132E-01 0.22281581E+03</pdfrwt>
<totfact> 0.63361309E+04</totfact>
</mgrwt>
</event>
<event>
12    1  0.1029207E-001  0.3139337E+03  0.7546771E-02  0.1078736E+00
         21   -1    0    0  501  502  0.00000000000E+00  0.00000000000E+00  0.15939323099E+04  0.15939323099E+04  0.00000000000E+00 0. -1.
         21   -1    0    0  502  503 -0.00000000000E+00 -0.00000000000E+00 -0.77960610843E+02  0.77960610843E+02  0.00000000000E+00 0.  1.
         -6    2    1    2    0  503  0.17935841272E+02 -0.25941212069E+03  0.37478317358E+03  0.48889342892E+03  0.17589205464E+03 0.  0.
        -24    2    3    3    0    0  0.15528423864E+02 -0.27941466250E+03  0.33005017951E+03  0.43960825776E+03  0.77515248363E+02 0.  0.
          6    2    1    2  501    0 -0.17935841272E+02  0.25941212069E+03  0.11411885254E+04  0.11829994918E+04  0.17193081225E+03 0.  0.
         24    2    5    5    0    0  0.50152121420E+02  0.19855421163E+03  0.83099717180E+03  0.85961052841E+03  0.80218144917E+02 0.  0.
          5    1    5    5  501    0 -0.68087962693E+02  0.60857909053E+02  0.31019135364E+03  0.32338896337E+03  0.47000000000E+01 0. -1.
        -13    1    6    6    0    0 -0.88331037839E+01  0.84351265277E+02  0.23301894078E+03  0.24797376159E+03  0.00000000000E+00 0.  1.
         14    1    6    6    0    0  0.58985225204E+02  0.11420294636E+03  0.59797823103E+03  0.61163676682E+03  0.00000000000E+00 0. -1.
         -5    1    3    3    0  503  0.24074174086E+01  0.20002541819E+02  0.44732994070E+02  0.49285171160E+02  0.47000000000E+01 0.  1.
         13    1    4    4    0    0 -0.26793829193E+02 -0.18419276743E+03  0.21541488582E+03  0.28469010853E+03  0.00000000000E+00 0. -1.
        -14    1    4    4    0    0  0.42322253057E+02 -0.95221895070E+02  0.11463529368E+03  0.15491814924E+03  0.00000000000E+00 0.  1.
<mgrwt>
<rscale>  2 0.31338169E+03</rscale>
<asrwt>0</asrwt>
<pdfrwt beam="1">  1       21 0.24522033E+00 0.31393368E+03</pdfrwt>
<pdfrwt beam="2">  1       21 0.11993941E-01 0.31393368E+03</pdfrwt>
<totfact> 0.37704775E+03</totfact>
</mgrwt>
</event>
<event>
12    1  0.1029207E-001  0.2109009E+03  0.7546771E-02  0.1141023E+00
         21   -1    0    0  503  502  0.00000000000E+00  0.00000000000E+00  0.12271753540E+03  0.12271753540E+03  0.00000000000E+00 0.  1.
         21   -1    0    0  501  503 -0.00000000000E+00 -0.00000000000E+00 -0.44260354950E+03  0.44260354950E+03  0.00000000000E+00 0.  1.
          6    2    1    2  501    0  0.11349469676E+03  0.30819929889E+02 -0.38827050396E+02  0.21444520654E+03  0.17506653733E+03 0.  0.
         24    2    3    3    0    0  0.14171159935E+03 -0.55760609528E+01 -0.44770236426E+02  0.16777323207E+03  0.77654449216E+02 0.  0.
         -6    2    1    2    0  502 -0.11349469676E+03 -0.30819929889E+02 -0.28105896371E+03  0.35087587836E+03  0.17403685432E+03 0.  0.
        -24    2    5    5    0    0 -0.10840952442E+03 -0.76301489040E+02 -0.16438530114E+03  0.22545951285E+03  0.78961525370E+02 0.  0.
          5    1    3    3  501    0 -0.28216902585E+02  0.36395990842E+02  0.59431860306E+01  0.46671974471E+02  0.47000000000E+01 0. -1.
        -11    1    4    4    0    0  0.66239394351E+02 -0.63997839766E-01  0.18894146343E+02  0.68881421485E+02  0.00000000000E+00 0.  1.
         12    1    4    4    0    0  0.75472204997E+02 -0.55120631131E+01 -0.63664382770E+02  0.98891810583E+02  0.00000000000E+00 0. -1.
         -5    1    5    5    0  502 -0.50851723417E+01  0.45481559151E+02 -0.11667366257E+03  0.12541636551E+03  0.47000000000E+01 0.  1.
         13    1    6    6    0    0 -0.71890842193E+01 -0.15025809019E+02  0.62695133752E+01  0.17797883766E+02  0.00000000000E+00 0. -1.
        -14    1    6    6    0    0 -0.10122044020E+03 -0.61275680021E+02 -0.17065481451E+03  0.20766162908E+03  0.00000000000E+00 0.  1.
<mgrwt>
<rscale>  2 0.21068713E+03</rscale>
<asrwt>0</asrwt>
<pdfrwt beam="1">  1       21 0.18879621E-01 0.21090094E+03</pdfrwt>
<pdfrwt beam="2">  1       21 0.68092854E-01 0.21090094E+03</pdfrwt>
<totfact> 0.50154133E+04</totfact>
</mgrwt>
</event>
<event>
12    1  0.1029207E-001  0.1996057E+03  0.7546771E-02  0.1150133E+00
         21   -1    0    0  503  502  0.00000000000E+00  0.00000000000E+00  0.95497227295E+03  0.95497227295E+03  0.00000000000E+00 0.  1.
         21   -1    0    0  501  503 -0.00000000000E+00 -0.00000000000E+00 -0.43873990989E+02  0.43873990989E+02  0.00000000000E+00 0.  1.
          6    2    1    2  501    0  0.78658902213E+01 -0.99507760145E+02  0.56803260963E+03  0.60208261884E+03  0.17285475913E+03 0.  0.
         24    2    3    3    0    0  0.61061605885E+02 -0.18141430467E+02  0.29351162457E+03  0.31081963629E+03  0.80013382195E+02 0.  0.
         -6    2    1    2    0  502 -0.78658902213E+01  0.99507760145E+02  0.34306567233E+03  0.39676364509E+03  0.17252150005E+03 0.  0.
        -24    2    5    5    0    0 -0.20361253234E+02 -0.16029911926E+02  0.10567090664E+03  0.13240885974E+03  0.75460101490E+02 0.  0.
          5    1    3    3  501    0 -0.53195715664E+02 -0.81366329679E+02  0.27452098506E+03  0.29126298255E+03  0.47000000000E+01 0. -1.
        -13    1    4    4    0    0  0.34553616364E+02 -0.11418863569E+02  0.27590551678E+03  0.27829516172E+03  0.00000000000E+00 0.  1.
         14    1    4    4    0    0  0.26507989521E+02 -0.67225668971E+01  0.17606107795E+02  0.32524474567E+02  0.00000000000E+00 0. -1.
         -5    1    5    5    0  502  0.12495363013E+02  0.11553767207E+03  0.23739476569E+03  0.26435478535E+03  0.47000000000E+01 0.  1.
         13    1    6    6    0    0  0.16009620996E+02  0.20943545639E+02  0.23933277525E+02  0.35605362538E+02  0.00000000000E+00 0. -1.
        -14    1    6    6    0    0 -0.36370874230E+02 -0.36973457565E+02  0.81737629116E+02  0.96803497200E+02  0.00000000000E+00 0.  1.
<mgrwt>
<rscale>  2 0.19953353E+03</rscale>
<asrwt>0</asrwt>
<pdfrwt beam="1">  1       21 0.14691880E+00 0.19960570E+03</pdfrwt>
<pdfrwt beam="2">  1       21 0.67498455E-02 0.19960570E+03</pdfrwt>
<totfact> 0.50639991E+04</totfact>
</mgrwt>
</event>
<event>
12    1  0.1029207E-001  0.1953147E+03  0.7546771E-02  0.1154183E+00
         21   -1    0    0  503  502  0.00000000000E+00  0.00000000000E+00  0.18177272474E+03  0.18177272474E+03  0.00000000000E+00 0.  1.
         21   -1    0    0  501  503 -0.00000000000E+00 -0.00000000000E+00 -0.29074521110E+03  0.29074521110E+03  0.00000000000E+00 0. -1.
          6    2    1    2  501    0 -0.82509899206E+02 -0.36918394644E+02 -0.18051076175E+03  0.26451422841E+03  0.17091749645E+03 0.  0.
         24    2    3    3    0    0 -0.49173360365E+02 -0.14816174245E+02 -0.20805091284E+02  0.99808963926E+02  0.83014691879E+02 0.  0.
         -6    2    1    2    0  502  0.82509899206E+02  0.36918394644E+02  0.71538275399E+02  0.20800370743E+03  0.17313857493E+03 0.  0.
        -24    2    5    5    0    0  0.10886648089E+03 -0.12644373981E+00  0.85515994512E+02  0.16020772349E+03  0.80632516396E+02 0.  0.
          5    1    3    3  501    0 -0.33336538841E+02 -0.22102220399E+02 -0.15970567047E+03  0.16470526449E+03  0.47000000000E+01 0. -1.
        -13    1    4    4    0    0 -0.29977493848E+02  0.33443738802E+02 -0.15885213467E+02  0.47638994630E+02  0.00000000000E+00 0.  1.
         14    1    4    4    0    0 -0.19195866517E+02 -0.48259913047E+02 -0.49198778163E+01  0.52169969296E+02  0.00000000000E+00 0. -1.
         -5    1    5    5    0  502 -0.26356581685E+02  0.37044838384E+02 -0.13977719114E+02  0.47795983938E+02  0.47000000000E+01 0.  1.
         11    1    6    6    0    0  0.43300689306E+02 -0.10201658253E+02 -0.83546235719E+01  0.45263928912E+02  0.00000000000E+00 0. -1.
        -12    1    6    6    0    0  0.65565791584E+02  0.10075214513E+02  0.93870618084E+02  0.11494379458E+03  0.00000000000E+00 0.  1.
<mgrwt>
<rscale>  2 0.19482126E+03</rscale>
<asrwt>0</asrwt>
<pdfrwt beam="1">  1       21 0.27965035E-01 0.19531466E+03</pdfrwt>
<pdfrwt beam="2">  1       21 0.44730032E-01 0.19531466E+03</pdfrwt>
<totfact> 0.58521822E+04</totfact>
</mgrwt>
</event>
<event>
12    1  0.1029207E-001  0.1766119E+03  0.7546771E-02  0.1171151E+00
         21   -1    0    0  503  502  0.00000000000E+00  0.00000000000E+00  0.13651927112E+03  0.13651927112E+03  0.00000000000E+00 0. -1.
         21   -1    0    0  501  503 -0.00000000000E+00 -0.00000000000E+00 -0.26255304383E+03  0.26255304383E+03  0.00000000000E+00 0.  1.
          6    2    1    2  501    0 -0.35345572975E+02  0.38822430273E+00 -0.13503515626E+03  0.22223118573E+03  0.17292410542E+03 0.  0.
         24    2    3    3    0    0 -0.74463270173E+02  0.39971742602E+02 -0.10661955231E+03  0.15956871129E+03  0.83378209837E+02 0.  0.
         -6    2    1    2    0  502  0.35345572975E+02 -0.38822430273E+00  0.90013835457E+01  0.17684112923E+03  0.17303843456E+03 0.  0.
        -24    2    5    5    0    0  0.32046021314E+02 -0.41823842713E+02  0.57659119861E+02  0.11267367005E+03  0.81207145732E+02 0.  0.
          5    1    3    3  501    0  0.39117697198E+02 -0.39583518299E+02 -0.28415603952E+02  0.62662474440E+02  0.47000000000E+01 0. -1.
        -13    1    4    4    0    0 -0.81065361216E+02  0.37660486291E+02 -0.11688523630E+03  0.14714640153E+03  0.00000000000E+00 0.  1.
         14    1    4    4    0    0  0.66020910432E+01  0.23112563109E+01  0.10265683995E+02  0.12422309759E+02  0.00000000000E+00 0. -1.
         -5    1    5    5    0  502  0.32995516605E+01  0.41435618410E+02 -0.48657736315E+02  0.64167459179E+02  0.47000000000E+01 0.  1.
         13    1    6    6    0    0  0.12959855197E+02  0.18944413744E+02  0.40754236828E+02  0.46773459122E+02  0.00000000000E+00 0. -1.
        -14    1    6    6    0    0  0.19086166118E+02 -0.60768256457E+02  0.16904883032E+02  0.65900210927E+02  0.00000000000E+00 0.  1.
<mgrwt>
<rscale>  2 0.17658388E+03</rscale>
<asrwt>0</asrwt>
<pdfrwt beam="1">  1       21 0.21002965E-01 0.17661189E+03</pdfrwt>
<pdfrwt beam="2">  1       21 0.40392776E-01 0.17661189E+03</pdfrwt>
<totfact> 0.12508538E+05</totfact>
</mgrwt>
</event>
<event>
12    1  0.1029207E-001  0.1891889E+03  0.7546771E-02  0.1160199E+00
         21   -1    0    0  501  502  0.00000000000E+00  0.00000000000E+00  0.31101088718E+03  0.31101088718E+03  0.00000000000E+00 0.  1.
         21   -1    0    0  502  503 -0.00000000000E+00 -0.00000000000E+00 -0.11357504370E+03  0.11357504370E+03  0.00000000000E+00 0.  1.
         -6    2    1    2    0  503  0.43379302290E+02 -0.53702163665E+02  0.12109375188E+03  0.22462445375E+03  0.17614415185E+03 0.  0.
        -24    2    3    3    0    0  0.29737739462E+02  0.15841083813E+02  0.12625554551E+03  0.15341287029E+03  0.80372712489E+02 0.  0.
          6    2    1    2  501    0 -0.43379302290E+02  0.53702163665E+02  0.76342091593E+02  0.19996147713E+03  0.17143742630E+03 0.  0.
         24    2    5    5    0    0 -0.15020813356E+02  0.35353569119E+02  0.11708118879E+03  0.14683296448E+03  0.79852457730E+02 0.  0.
          5    1    5    5  501    0 -0.28358488934E+02  0.18348594547E+02 -0.40739097195E+02  0.53128512653E+02  0.47000000000E+01 0. -1.
        -13    1    6    6    0    0 -0.45150801960E+02  0.19277443257E+02  0.43013920187E+02  0.65271832103E+02  0.00000000000E+00 0.  1.
         14    1    6    6    0    0  0.30129988605E+02  0.16076125861E+02  0.74067268601E+02  0.81561132374E+02  0.00000000000E+00 0. -1.
         -5    1    3    3    0  503  0.13641562828E+02 -0.69543247478E+02 -0.51617936290E+01  0.71211583466E+02  0.47000000000E+01 0.  1.
         13    1    4    4    0    0 -0.10221945560E+02  0.39003753710E+02  0.49643716326E+02  0.63955293331E+02  0.00000000000E+00 0. -1.
        -14    1    4    4    0    0  0.39959685022E+02 -0.23162669896E+02  0.76611829183E+02  0.89457576954E+02  0.00000000000E+00 0.  1.
<mgrwt>
<rscale>  2 0.18808576E+03</rscale>
<asrwt>0</asrwt>
<pdfrwt beam="1">  1       21 0.47847829E-01 0.18918892E+03</pdfrwt>
<pdfrwt beam="2">  1       21 0.17473084E-01 0.18918892E+03</pdfrwt>
<totfact> 0.12398693E+05</totfact>
</mgrwt>
</event>
<event>
12    1  0.1029207E-001  0.2477174E+03  0.7546771E-02  0.1114765E+00
         21   -1    0    0  501  502  0.00000000000E+00  0.00000000000E+00  0.30290834813E+03  0.30290834813E+03  0.00000000000E+00 0. -1.
         21   -1    0    0  502  503 -0.00000000000E+00 -0.00000000000E+00 -0.20512407662E+03  0.20512407662E+03  0.00000000000E+00 0.  1.
         -6    2    1    2    0  503  0.14087337991E+03  0.10777343328E+03  0.20372097275E+02  0.24855365612E+03  0.17292621414E+03 0.  0.
        -24    2    3    3    0    0  0.51147419287E+02  0.11528958966E+03  0.43738659903E+02  0.15541222138E+03  0.79574746003E+02 0.  0.
          6    2    1    2  501    0 -0.14087337991E+03 -0.10777343328E+03  0.77412174234E+02  0.25947876863E+03  0.17284722897E+03 0.  0.
         24    2    5    5    0    0 -0.11420995177E+03 -0.86908773374E+02 -0.10750764768E+02  0.16492155713E+03  0.80538767628E+02 0.  0.
          5    1    5    5  501    0 -0.26663428142E+02 -0.20864659904E+02  0.88162939002E+02  0.94557211500E+02  0.47000000000E+01 0. -1.
        -11    1    6    6    0    0 -0.14600984566E+02 -0.20091185831E+02 -0.34638176131E+02  0.42622150861E+02  0.00000000000E+00 0.  1.
         12    1    6    6    0    0 -0.99608967202E+02 -0.66817587543E+02  0.23887411362E+02  0.12229940627E+03  0.00000000000E+00 0. -1.
         -5    1    3    3    0  503  0.89725960624E+02 -0.75161563803E+01 -0.23366562628E+02  0.93141434741E+02  0.47000000000E+01 0.  1.
         13    1    4    4    0    0  0.65243064303E+02  0.71659010040E+02  0.50145552638E+02  0.10911575326E+03  0.00000000000E+00 0. -1.
        -14    1    4    4    0    0 -0.14095645017E+02  0.43630579618E+02 -0.64068927347E+01  0.46296468124E+02  0.00000000000E+00 0.  1.
<mgrwt>
<rscale>  2 0.24770359E+03</rscale>
<asrwt>0</asrwt>
<pdfrwt beam="1">  1       21 0.46601284E-01 0.24771737E+03</pdfrwt>
<pdfrwt beam="2">  1       21 0.31557550E-01 0.24771737E+03</pdfrwt>
<totfact> 0.41482115E+04</totfact>
</mgrwt>
</event>
<event>
12    1  0.1029207E-001  0.2469647E+03  0.7546771E-02  0.1115449E+00
         21   -1    0    0  503  502  0.00000000000E+00  0.00000000000E+00  0.93169273368E+02  0.93169273368E+02  0.00000000000E+00 0.  1.
         21   -1    0    0  501  503 -0.00000000000E+00 -0.00000000000E+00 -0.70747707399E+03  0.70747707399E+03  0.00000000000E+00 0. -1.
          6    2    1    2  501    0  0.69734107677E+02 -0.16246343195E+03 -0.41934322930E+03  0.48599932481E+03  0.17055611176E+03 0.  0.
         24    2    3    3    0    0  0.65729617241E+02 -0.58067323943E+02 -0.11827176960E+03  0.16728205644E+03  0.79390668405E+02 0.  0.
         -6    2    1    2    0  502 -0.69734107677E+02  0.16246343195E+03 -0.19496457132E+03  0.31464702254E+03  0.17243651653E+03 0.  0.
        -24    2    5    5    0    0  0.20883980223E+02  0.11798454665E+03 -0.95781367403E+02  0.17305109382E+03  0.80100666993E+02 0.  0.
          5    1    3    3  501    0  0.40044904363E+01 -0.10439610801E+03 -0.30107145970E+03  0.31871726837E+03  0.47000000000E+01 0. -1.
        -13    1    4    4    0    0  0.46788376011E+02 -0.91703234497E+01 -0.10164490314E+03  0.11227169410E+03  0.00000000000E+00 0.  1.
         14    1    4    4    0    0  0.18941241230E+02 -0.48897000493E+02 -0.16626866464E+02  0.55010362342E+02  0.00000000000E+00 0. -1.
         -5    1    5    5    0  502 -0.90618087900E+02  0.44478885295E+02 -0.99183203914E+02  0.14159592872E+03  0.47000000000E+01 0.  1.
         11    1    6    6    0    0  0.20959577678E+02  0.11451375730E+03 -0.10894226215E+03  0.15944002317E+03  0.00000000000E+00 0. -1.
        -12    1    6    6    0    0 -0.75597454614E-01  0.34707893557E+01  0.13160894747E+02  0.13611070651E+02  0.00000000000E+00 0.  1.
<mgrwt>
<rscale>  2 0.24663674E+03</rscale>
<asrwt>0</asrwt>
<pdfrwt beam="1">  1       21 0.14333734E-01 0.24696470E+03</pdfrwt>
<pdfrwt beam="2">  1       21 0.10884263E+00 0.24696470E+03</pdfrwt>
<totfact> 0.27722262E+04</totfact>
</mgrwt>
</event>
<event>
12    1  0.1029207E-001  0.1966434E+03  0.7546771E-02  0.1153174E+00
         21   -1    0    0  503  502  0.00000000000E+00  0.00000000000E+00  0.12310606446E+04  0.12310606446E+04  0.00000000000E+00 0.  1.
         21   -1    0    0  501  503 -0.00000000000E+00 -0.00000000000E+00 -0.45113035446E+02  0.45113035446E+02  0.00000000000E+00 0.  1.
          6    2    1    2  501    0 -0.19207532869E+02 -0.86949720203E+02  0.23872583963E+03  0.30928735790E+03  0.17532672382E+03 0.  0.
         24    2    3    3    0    0  0.34940337893E+02  0.87776014213E+01  0.10672121767E+03  0.13740652059E+03  0.78697268702E+02 0.  0.
         -6    2    1    2    0  502  0.19207532869E+02  0.86949720203E+02  0.94722176956E+03  0.96688632219E+03  0.17236848942E+03 0.  0.
        -24    2    5    5    0    0  0.38603993350E+02  0.76801663721E+01  0.60481190609E+03  0.61485437840E+03  0.10343699355E+03 0.  0.
          5    1    3    3  501    0 -0.54147870762E+02 -0.95727321624E+02  0.13200462196E+03  0.17188083731E+03  0.47000000000E+01 0. -1.
        -11    1    4    4    0    0  0.19514962760E+02 -0.34735700331E+02  0.57146171542E+02  0.69664105326E+02  0.00000000000E+00 0.  1.
         12    1    4    4    0    0  0.15425375133E+02  0.43513301752E+02  0.49575046130E+02  0.67742415266E+02  0.00000000000E+00 0. -1.
         -5    1    5    5    0  502 -0.19396460481E+02  0.79269553831E+02  0.34240986347E+03  0.35203194379E+03  0.47000000000E+01 0.  1.
         13    1    6    6    0    0  0.67673079717E+02  0.14218360832E+02  0.26982578744E+03  0.27854580067E+03  0.00000000000E+00 0. -1.
        -14    1    6    6    0    0 -0.29069086367E+02 -0.65381944601E+01  0.33498611865E+03  0.33630857774E+03  0.00000000000E+00 0.  1.
<mgrwt>
<rscale>  2 0.19598188E+03</rscale>
<asrwt>0</asrwt>
<pdfrwt beam="1">  1       21 0.18939392E+00 0.19664344E+03</pdfrwt>
<pdfrwt beam="2">  1       21 0.69404679E-02 0.19664344E+03</pdfrwt>
<totfact> 0.24095610E+04</totfact>
</mgrwt>
</event>
<event>
12    1  0.1029207E-001  0.1833510E+03  0.7546771E-02  0.1165088E+00
         21   -1    0    0  501  502  0.00000000000E+00  0.00000000000E+00  0.11189708134E+04  0.11189708134E+04  0.00000000000E+00 0.  1.
         21   -1    0    0  502  503 -0.00000000000E+00 -0.00000000000E+00 -0.30152498755E+02  0.30152498755E+02  0.00000000000E+00 0.  1.
         -6    2    1    2    0  503 -0.38143438650E+01  0.63390055092E+02  0.61725545170E+03  0.64391138184E+03  0.17200211252E+03 0.  0.
        -24    2    3    3    0    0  0.25650577441E+02 -0.27605322541E+02  0.31879833718E+03  0.33046748009E+03  0.78462536622E+02 0.  0.
          6    2    1    2  501    0  0.38143438650E+01 -0.63390055092E+02  0.47156286296E+03  0.50521193033E+03  0.16980786942E+03 0.  0.
         24    2    5    5    0    0  0.55363142539E+02 -0.80815583393E+02  0.31609158999E+03  0.34042620764E+03  0.79874110430E+02 0.  0.
          5    1    5    5  501    0 -0.51548798674E+02  0.17425528302E+02  0.15547127298E+03  0.16478572269E+03  0.47000000000E+01 0. -1.
        -11    1    6    6    0    0  0.20993222659E+02 -0.69877576637E+02  0.28019544720E+03  0.28953942692E+03  0.00000000000E+00 0.  1.
         12    1    6    6    0    0  0.34369919880E+02 -0.10938006757E+02  0.35896142790E+02  0.50886780716E+02  0.00000000000E+00 0. -1.
         -5    1    3    3    0  503 -0.29464921306E+02  0.90995377632E+02  0.29845711452E+03  0.31344390175E+03  0.47000000000E+01 0.  1.
         13    1    4    4    0    0  0.16529678695E+02 -0.38708703448E+01  0.82416556621E+01  0.18871640179E+02  0.00000000000E+00 0. -1.
        -14    1    4    4    0    0  0.91208987465E+01 -0.23734452196E+02  0.31055668152E+03  0.31159583992E+03  0.00000000000E+00 0.  1.
<mgrwt>
<rscale>  2 0.18283458E+03</rscale>
<asrwt>0</asrwt>
<pdfrwt beam="1">  1       21 0.17214932E+00 0.18335096E+03</pdfrwt>
<pdfrwt beam="2">  1       21 0.46388468E-02 0.18335096E+03</pdfrwt>
<totfact> 0.63276771E+04</totfact>
</mgrwt>
</event>
<event>
12    1  0.1029207E-001  0.2668195E+03  0.7546771E-02  0.1103164E+00
         21   -1    0    0  503  502  0.00000000000E+00  0.00000000000E+00  0.12571509735E+03  0.12571509735E+03  0.00000000000E+00 0. -1.
         21   -1    0    0  501  503 -0.00000000000E+00 -0.00000000000E+00 -0.60714463505E+03  0.60714463505E+03  0.00000000000E+00 0.  1.
          6    2    1    2  501    0  0.15916630706E+03 -0.12549599690E+03 -0.14468138173E+03  0.30321804276E+03  0.17298936585E+03 0.  0.
         24    2    3    3    0    0  0.10930377916E+03 -0.15645744166E+03 -0.11409149380E+03  0.23686509261E+03  0.81620805874E+02 0.  0.
         -6    2    1    2    0  502 -0.15916630706E+03  0.12549599690E+03 -0.33674815597E+03  0.42964168964E+03  0.17352089897E+03 0.  0.
        -24    2    5    5    0    0 -0.18176173119E+03  0.83444597673E+02 -0.24996331081E+03  0.33048235967E+03  0.82076826795E+02 0.  0.
          5    1    3    3  501    0  0.49862527901E+02  0.30961444760E+02 -0.30589887926E+02  0.66352950150E+02  0.47000000000E+01 0. -1.
        -11    1    4    4    0    0  0.41199896003E+01 -0.68952655130E+02 -0.24373796332E+02  0.73249743422E+02  0.00000000000E+00 0.  1.
         12    1    4    4    0    0  0.10518378956E+03 -0.87504786530E+02 -0.89717697469E+02  0.16361534919E+03  0.00000000000E+00 0. -1.
         -5    1    5    5    0  502  0.22595424133E+02  0.42051399227E+02 -0.86784845165E+02  0.99159329965E+02  0.47000000000E+01 0.  1.
         11    1    6    6    0    0 -0.99217537133E+02  0.10273728708E+01 -0.10597961798E+03  0.14517869884E+03  0.00000000000E+00 0. -1.
        -12    1    6    6    0    0 -0.82544194061E+02  0.82417224802E+02 -0.14398369283E+03  0.18530366083E+03  0.00000000000E+00 0.  1.
<mgrwt>
<rscale>  2 0.26673315E+03</rscale>
<asrwt>0</asrwt>
<pdfrwt beam="1">  1       21 0.19340784E-01 0.26681953E+03</pdfrwt>
<pdfrwt beam="2">  1       21 0.93406867E-01 0.26681953E+03</pdfrwt>
<totfact> 0.22772110E+04</totfact>
</mgrwt>
</event>
<event>
12    1  0.1029207E-001  0.2455836E+03  0.7546771E-02  0.1116392E+00
         21   -1    0    0  501  502  0.00000000000E+00  0.00000000000E+00  0.15608927899E+04  0.15608927899E+04  0.00000000000E+00 0.  1.
         21   -1    0    0  502  503 -0.00000000000E+00 -0.00000000000E+00 -0.45169030568E+02  0.45169030568E+02  0.00000000000E+00 0. -1.
         -6    2    1    2    0  503 -0.30210222372E+02 -0.17165088994E+03  0.44447566727E+03  0.50702415159E+03  0.17069910938E+03 0.  0.
        -24    2    3    3    0    0 -0.83443356658E+01 -0.16410790783E+03  0.24405832822E+03  0.30522173987E+03  0.81208432862E+02 0.  0.
          6    2    1    2  501    0  0.30210222372E+02  0.17165088994E+03  0.10712480920E+04  0.10990376688E+04  0.17301629207E+03 0.  0.
         24    2    5    5    0    0 -0.87256592171E+01  0.14740128617E+03  0.10005814823E+04  0.10146581341E+04  0.81021910726E+02 0.  0.
          5    1    5    5  501    0  0.38935881590E+02  0.24249603777E+02  0.70666609696E+02  0.84379534749E+02  0.47000000000E+01 0. -1.
        -11    1    6    6    0    0  0.11559748622E+02  0.53257211862E+02  0.17023157716E+03  0.17874212784E+03  0.00000000000E+00 0.  1.
         12    1    6    6    0    0 -0.20285407839E+02  0.94144074305E+02  0.83034990516E+03  0.83591600625E+03  0.00000000000E+00 0. -1.
         -5    1    3    3    0  503 -0.21865886707E+02 -0.75429821140E+01  0.20041733906E+03  0.20180241172E+03  0.47000000000E+01 0.  1.
         11    1    4    4    0    0 -0.44331294161E+02 -0.80866805356E+02  0.11317929014E+03  0.14599402579E+03  0.00000000000E+00 0. -1.
        -12    1    4    4    0    0  0.35986958495E+02 -0.83241102473E+02  0.13087903808E+03  0.15922771408E+03  0.00000000000E+00 0.  1.
<mgrwt>
<rscale>  2 0.24517589E+03</rscale>
<asrwt>0</asrwt>
<pdfrwt beam="1">  1       21 0.24013731E+00 0.24558364E+03</pdfrwt>
<pdfrwt beam="2">  1       21 0.69490828E-02 0.24558364E+03</pdfrwt>
<totfact> 0.11148878E+04</totfact>
</mgrwt>
</event>
<event>
12    1  0.1029207E-001  0.2901005E+03  0.7546771E-02  0.1090313E+00
         21   -1    0    0  501  502  0.00000000000E+00  0.00000000000E+00  0.40726659077E+03  0.40726659077E+03  0.00000000000E+00 0.  1.
         21   -1    0    0  502  503 -0.00000000000E+00 -0.00000000000E+00 -0.25532423466E+03  0.25532423466E+03  0.00000000000E+00 0. -1.
         -6    2    1    2    0  503  0.17765869791E+03  0.15026572042E+03 -0.68808475146E+02  0.29814915632E+03  0.17325101295E+03 0.  0.
        -24    2    3    3    0    0  0.18042142107E+03  0.86692841342E+02 -0.17168582605E+02  0.21606437031E+03  0.79507949082E+02 0.  0.
          6    2    1    2  501    0 -0.17765869791E+03 -0.15026572042E+03  0.22075083126E+03  0.36444166911E+03  0.17304450584E+03 0.  0.
         24    2    5    5    0    0 -0.10533974803E+03 -0.16794002209E+03  0.15626795044E+03  0.26583871088E+03  0.83368065434E+02 0.  0.
          5    1    5    5  501    0 -0.72318949882E+02  0.17674301668E+02  0.64482880820E+02  0.98602958223E+02  0.47000000000E+01 0. -1.
        -11    1    6    6    0    0 -0.51514925212E+02 -0.19726961717E+02  0.57987580130E+02  0.80034367540E+02  0.00000000000E+00 0.  1.
         12    1    6    6    0    0 -0.53824822817E+02 -0.14821306037E+03  0.98280370312E+02  0.18580434334E+03  0.00000000000E+00 0. -1.
         -5    1    3    3    0  503 -0.27627231576E+01  0.63572879080E+02 -0.51639892541E+02  0.82084786017E+02  0.47000000000E+01 0.  1.
         11    1    4    4    0    0  0.13739963142E+03  0.31914926308E+02 -0.32479969993E+02  0.14474864312E+03  0.00000000000E+00 0. -1.
        -12    1    4    4    0    0  0.43021789651E+02  0.54777915034E+02  0.15311387388E+02  0.71315727185E+02  0.00000000000E+00 0.  1.
<mgrwt>
<rscale>  2 0.29006970E+03</rscale>
<asrwt>0</asrwt>
<pdfrwt beam="1">  1       21 0.62656398E-01 0.29010052E+03</pdfrwt>
<pdfrwt beam="2">  1       21 0.39280652E-01 0.29010052E+03</pdfrwt>
<totfact> 0.13991818E+04</totfact>
</mgrwt>
</event>
<event>
12    1  0.1029207E-001  0.1927833E+03  0.7546771E-02  0.1155979E+00
         21   -1    0    0  501  502  0.00000000000E+00  0.00000000000E+00  0.49996363913E+03  0.49996363913E+03  0.00000000000E+00 0. -1.
         21   -1    0    0  502  503 -0.00000000000E+00 -0.00000000000E+00 -0.20065396711E+03  0.20065396711E+03  0.00000000000E+00 0. -1.
         -6    2    1    2    0  503  0.62470248709E+02 -0.57718570730E+02 -0.12830180976E+03  0.23155790977E+03  0.17298481382E+03 0.  0.
        -24    2    3    3    0    0  0.78163901792E+02 -0.98403999703E+02 -0.10013774117E+03  0.17943402238E+03  0.79850225290E+02 0.  0.
          6    2    1    2  501    0 -0.62470248709E+02  0.57718570730E+02  0.42761148178E+03  0.46905969647E+03  0.17300709270E+03 0.  0.
         24    2    5    5    0    0 -0.84568848395E+02  0.26318553593E+02  0.16210386112E+03  0.20074887706E+03  0.78599576776E+02 0.  0.
          5    1    5    5  501    0  0.22098599685E+02  0.31400017136E+02  0.26550762066E+03  0.26831081941E+03  0.47000000000E+01 0. -1.
        -13    1    6    6    0    0  0.79733310788E+01  0.13447574722E+02  0.25344255387E+01  0.15837758276E+02  0.00000000000E+00 0.  1.
         14    1    6    6    0    0 -0.92542179473E+02  0.12870978871E+02  0.15956943558E+03  0.18491111878E+03  0.00000000000E+00 0. -1.
         -5    1    3    3    0  503 -0.15693653083E+02  0.40685428974E+02 -0.28164068587E+02  0.52123887396E+02  0.47000000000E+01 0.  1.
         11    1    4    4    0    0  0.92886109814E+02 -0.68833189276E+02 -0.73476362565E+02  0.13698398884E+03  0.00000000000E+00 0. -1.
        -12    1    4    4    0    0 -0.14722208021E+02 -0.29570810427E+02 -0.26661378608E+02  0.42450033541E+02  0.00000000000E+00 0.  1.
<mgrwt>
<rscale>  2 0.19277835E+03</rscale>
<asrwt>0</asrwt>
<pdfrwt beam="1">  1       21 0.76917483E-01 0.19278335E+03</pdfrwt>
<pdfrwt beam="2">  1       21 0.30869841E-01 0.19278335E+03</pdfrwt>
<totfact> 0.15142644E+04</totfact>
</mgrwt>
</event>
<event>
12    1  0.1029207E-001  0.1944917E+03  0.7546771E-02  0.1154531E+00
         21   -1    0    0  503  502  0.00000000000E+00  0.00000000000E+00  0.30953609518E+03  0.30953609518E+03  0.00000000000E+00 0. -1.
         21   -1    0    0  501  503 -0.00000000000E+00 -0.00000000000E+00 -0.13203877020E+03  0.13203877020E+03  0.00000000000E+00 0.  1.
          6    2    1    2  501    0  0.84329036537E+02 -0.27154603507E+02  0.28032061963E+02  0.19650145086E+03  0.17314232526E+03 0.  0.
         24    2    3    3    0    0  0.72789188427E+02  0.48893178434E+02  0.28864372885E+02  0.11943514192E+03  0.75781213066E+02 0.  0.
         -6    2    1    2    0  502 -0.84329036537E+02  0.27154603507E+02  0.14946526302E+03  0.24507341453E+03  0.17283620791E+03 0.  0.
        -24    2    5    5    0    0 -0.62137032339E+02  0.82421160165E+02  0.12006442469E+03  0.17848980821E+03  0.82394703287E+02 0.  0.
          5    1    3    3  501    0  0.11539848110E+02 -0.76047781941E+02 -0.83231092203E+00  0.77066308942E+02  0.47000000000E+01 0. -1.
        -13    1    4    4    0    0  0.22669128601E+02  0.10665955882E+02 -0.25826922927E+02  0.35981689153E+02  0.00000000000E+00 0.  1.
         14    1    4    4    0    0  0.50120059826E+02  0.38227222552E+02  0.54691295811E+02  0.83453452766E+02  0.00000000000E+00 0. -1.
         -5    1    5    5    0  502 -0.22192004198E+02 -0.55266556659E+02  0.29400838330E+02  0.66583606314E+02  0.47000000000E+01 0.  1.
         13    1    6    6    0    0 -0.25603917439E+02 -0.13820794003E+02  0.24797666144E+02  0.38229558999E+02  0.00000000000E+00 0. -1.
        -14    1    6    6    0    0 -0.36533114901E+02  0.96241954168E+02  0.95266758544E+02  0.14026024922E+03  0.00000000000E+00 0.  1.
<mgrwt>
<rscale>  2 0.19442355E+03</rscale>
<asrwt>0</asrwt>
<pdfrwt beam="1">  1       21 0.47620938E-01 0.19449171E+03</pdfrwt>
<pdfrwt beam="2">  1       21 0.20313657E-01 0.19449171E+03</pdfrwt>
<totfact> 0.94475461E+04</totfact>
</mgrwt>
</event>
<event>
12    1  0.1029207E-001  0.1769178E+03  0.7546771E-02  0.1171144E+00
         21   -1    0    0  503  502  0.00000000000E+00  0.00000000000E+00  0.69656802597E+02  0.69656802597E+02  0.00000000000E+00 0. -1.
         21   -1    0    0  501  503 -0.00000000000E+00 -0.00000000000E+00 -0.50058297957E+03  0.50058297957E+03  0.00000000000E+00 0. -1.
          6    2    1    2  501    0  0.12728059804E+02 -0.23377438691E+02 -0.31028824231E+03  0.35718161186E+03  0.17490398049E+03 0.  0.
         24    2    3    3    0    0  0.22369002653E+02  0.15210868717E+01 -0.31692438716E+03  0.32927081157E+03  0.86461055932E+02 0.  0.
         -6    2    1    2    0  502 -0.12728059804E+02  0.23377438691E+02 -0.12063793466E+03  0.21305817030E+03  0.17358503538E+03 0.  0.
        -24    2    5    5    0    0  0.52045352123E+02 -0.24381116190E+02 -0.46854163129E+02  0.10377592381E+03  0.72601461804E+02 0.  0.
          5    1    3    3  501    0 -0.96409428491E+01 -0.24898525563E+02  0.66361448495E+01  0.27910800288E+02  0.47000000000E+01 0. -1.
        -11    1    4    4    0    0  0.16356428313E+02  0.43677115772E+02 -0.15791619149E+03  0.16465948719E+03  0.00000000000E+00 0.  1.
         12    1    4    4    0    0  0.60125743398E+01 -0.42156028900E+02 -0.15900819567E+03  0.16461132438E+03  0.00000000000E+00 0. -1.
         -5    1    5    5    0  502 -0.64773411927E+02  0.47758554881E+02 -0.73783771533E+02  0.10928224649E+03  0.47000000000E+01 0.  1.
         13    1    6    6    0    0 -0.65305831012E+01  0.88650944775E+00 -0.38939711452E+02  0.39493487344E+02  0.00000000000E+00 0. -1.
        -14    1    6    6    0    0  0.58575935224E+02 -0.25267625638E+02 -0.79144516775E+01  0.64282436467E+02  0.00000000000E+00 0.  1.
<mgrwt>
<rscale>  2 0.17659095E+03</rscale>
<asrwt>0</asrwt>
<pdfrwt beam="1">  1       21 0.10716431E-01 0.17691781E+03</pdfrwt>
<pdfrwt beam="2">  1       21 0.77012764E-01 0.17691781E+03</pdfrwt>
<totfact> 0.10822064E+05</totfact>
</mgrwt>
</event>
<event>
12    1  0.1029207E-001  0.2086118E+03  0.7546771E-02  0.1143127E+00
         21   -1    0    0  503  502  0.00000000000E+00  0.00000000000E+00  0.65487325309E+03  0.65487325309E+03  0.00000000000E+00 0.  1.
         21   -1    0    0  501  503 -0.00000000000E+00 -0.00000000000E+00 -0.65805207680E+02  0.65805207680E+02  0.00000000000E+00 0.  1.
          6    2    1    2  501    0 -0.23402422452E+00 -0.11706249794E+03  0.28402929554E+03  0.35240819171E+03  0.17267081302E+03 0.  0.
         24    2    3    3    0    0 -0.51230123146E+01  0.10415067374E+02  0.99378538339E+02  0.12792562224E+03  0.79712935329E+02 0.  0.
         -6    2    1    2    0  502  0.23402422452E+00  0.11706249794E+03  0.30503874987E+03  0.36827026907E+03  0.16991371034E+03 0.  0.
        -24    2    5    5    0    0  0.43081585867E+02  0.10565164535E+03  0.13942530219E+03  0.19675926315E+03  0.79098037522E+02 0.  0.
          5    1    3    3  501    0  0.48889880901E+01 -0.12747756531E+03  0.18465075720E+03  0.22448256947E+03  0.47000000000E+01 0. -1.
        -13    1    4    4    0    0 -0.75517366573E+01 -0.61732980377E+01 -0.11902620652E+02  0.15388655354E+02  0.00000000000E+00 0.  1.
         14    1    4    4    0    0  0.24287243427E+01  0.16588365411E+02  0.11128115899E+03  0.11253696688E+03  0.00000000000E+00 0. -1.
         -5    1    5    5    0  502 -0.42847561643E+02  0.11410852588E+02  0.16561344768E+03  0.17151100591E+03  0.47000000000E+01 0.  1.
         11    1    6    6    0    0 -0.12531253610E+01  0.27702008130E+02 -0.35824387934E+01  0.27960784061E+02  0.00000000000E+00 0. -1.
        -12    1    6    6    0    0  0.44334711228E+02  0.77949637217E+02  0.14300774098E+03  0.16879847909E+03  0.00000000000E+00 0.  1.
<mgrwt>
<rscale>  2 0.20804041E+03</rscale>
<asrwt>0</asrwt>
<pdfrwt beam="1">  1       21 0.10074973E+00 0.20861182E+03</pdfrwt>
<pdfrwt beam="2">  1       21 0.10123879E-01 0.20861182E+03</pdfrwt>
<totfact> 0.63544089E+04</totfact>
</mgrwt>
</event>
<event>
12    1  0.1029207E-001  0.2094738E+03  0.7546771E-02  0.1142519E+00
         21   -1    0    0  501  502  0.00000000000E+00  0.00000000000E+00  0.16759167568E+03  0.16759167568E+03  0.00000000000E+00 0.  1.
         21   -1    0    0  502  503 -0.00000000000E+00 -0.00000000000E+00 -0.27620515715E+03  0.27620515715E+03  0.00000000000E+00 0.  1.
         -6    2    1    2    0  503 -0.96679041541E+02  0.60638882087E+02 -0.11018327749E+03  0.23431713613E+03  0.17245363015E+03 0.  0.
        -24    2    3    3    0    0 -0.24462938236E+02  0.87175618614E+01 -0.11774392402E+03  0.14492898006E+03  0.80413595764E+02 0.  0.
          6    2    1    2  501    0  0.96679041541E+02 -0.60638882087E+02  0.15697960193E+01  0.20947969669E+03  0.17565696107E+03 0.  0.
         24    2    5    5    0    0  0.75760182645E+02 -0.27823009840E+02  0.67746365816E+02  0.13256475329E+03  0.80437047326E+02 0.  0.
          5    1    5    5  501    0  0.20918858896E+02 -0.32815872247E+02 -0.66176569796E+02  0.76914943404E+02  0.47000000000E+01 0. -1.
        -13    1    6    6    0    0  0.13505095932E+02  0.24982470020E+02  0.33645126915E+01  0.28597751137E+02  0.00000000000E+00 0.  1.
         14    1    6    6    0    0  0.62255086713E+02 -0.52805479860E+02  0.64381853124E+02  0.10396700215E+03  0.00000000000E+00 0. -1.
         -5    1    3    3    0  503 -0.72216103305E+02  0.51921320226E+02  0.75606465370E+01  0.89388156076E+02  0.47000000000E+01 0.  1.
         13    1    4    4    0    0  0.22293868090E+02  0.25277951894E+02 -0.36021976081E+02  0.49331269669E+02  0.00000000000E+00 0. -1.
        -14    1    4    4    0    0 -0.46756806326E+02 -0.16560390032E+02 -0.81721947943E+02  0.95597710388E+02  0.00000000000E+00 0.  1.
<mgrwt>
<rscale>  2 0.20880087E+03</rscale>
<asrwt>0</asrwt>
<pdfrwt beam="1">  1       21 0.25783335E-01 0.20947381E+03</pdfrwt>
<pdfrwt beam="2">  1       21 0.42493101E-01 0.20947381E+03</pdfrwt>
<totfact> 0.75526995E+04</totfact>
</mgrwt>
</event>
<event>
12    1  0.1029207E-001  0.3569760E+03  0.7546771E-02  0.1059873E+00
         21   -1    0    0  503  502  0.00000000000E+00  0.00000000000E+00  0.30725068028E+04  0.30725068028E+04  0.00000000000E+00 0.  1.
         21   -1    0    0  501  503 -0.00000000000E+00 -0.00000000000E+00 -0.64776550468E+02  0.64776550468E+02  0.00000000000E+00 0. -1.
          6    2    1    2  501    0  0.54846466221E+02  0.30777062607E+03  0.56219590686E+03  0.66595501850E+03  0.17233965257E+03 0.  0.
         24    2    3    3    0    0  0.94071976047E+02  0.18869987047E+03  0.41129824920E+03  0.46971873606E+03  0.83739258499E+02 0.  0.
         -6    2    1    2    0  502 -0.54846466221E+02 -0.30777062607E+03  0.24455343455E+04  0.24713283348E+04  0.17057142265E+03 0.  0.
        -24    2    5    5    0    0  0.12432379392E+02 -0.69804607971E+02  0.62840752362E+03  0.63744550167E+03  0.80084358699E+02 0.  0.
          5    1    3    3  501    0 -0.39225509826E+02  0.11907075560E+03  0.15089765766E+03  0.19623628244E+03  0.47000000000E+01 0. -1.
        -11    1    4    4    0    0  0.10001915991E+03  0.18898132861E+03  0.36482218446E+03  0.42286286334E+03  0.00000000000E+00 0.  1.
         12    1    4    4    0    0 -0.59471838641E+01 -0.28145814607E+00  0.46476064741E+02  0.46855872720E+02  0.00000000000E+00 0. -1.
         -5    1    5    5    0  502 -0.67278845613E+02 -0.23796601810E+03  0.18171268218E+04  0.18338828331E+04  0.47000000000E+01 0.  1.
         13    1    6    6    0    0  0.30474459732E+02 -0.64925061346E+02  0.29798235802E+03  0.30649215647E+03  0.00000000000E+00 0. -1.
        -14    1    6    6    0    0 -0.18042080341E+02 -0.48795466251E+01  0.33042516560E+03  0.33095334520E+03  0.00000000000E+00 0.  1.
<mgrwt>
<rscale>  2 0.35676321E+03</rscale>
<asrwt>0</asrwt>
<pdfrwt beam="1">  1       21 0.47269324E+00 0.35697598E+03</pdfrwt>
<pdfrwt beam="2">  1       21 0.99656255E-02 0.35697598E+03</pdfrwt>
<totfact> 0.19464119E+02</totfact>
</mgrwt>
</event>
<event>
12    1  0.1029207E-001  0.2014290E+03  0.7546771E-02  0.1148621E+00
         21   -1    0    0  503  502  0.00000000000E+00  0.00000000000E+00  0.24204777038E+04  0.24204777038E+04  0.00000000000E+00 0. -1.
         21   -1    0    0  501  503 -0.00000000000E+00 -0.00000000000E+00 -0.17201446813E+02  0.17201446813E+02  0.00000000000E+00 0. -1.
          6    2    1    2  501    0 -0.10031035763E+02 -0.10186336422E+03  0.14022518692E+04  0.14165898068E+04  0.17303066010E+03 0.  0.
         24    2    3    3    0    0  0.44410791116E+02 -0.87202565934E+02  0.65285605402E+03  0.66506134468E+03  0.80678120027E+02 0.  0.
         -6    2    1    2    0  502  0.10031035763E+02  0.10186336422E+03  0.10010243877E+04  0.10210893438E+04  0.17348445609E+03 0.  0.
        -24    2    5    5    0    0  0.34757134938E+02  0.10205117666E+03  0.41568437262E+03  0.43520843562E+03  0.70642647966E+02 0.  0.
          5    1    3    3  501    0 -0.54441826879E+02 -0.14660798281E+02  0.74939581522E+03  0.75152846213E+03  0.47000000000E+01 0. -1.
        -13    1    4    4    0    0  0.37068263183E+02  0.19446057830E+01  0.21142805370E+03  0.21466173277E+03  0.00000000000E+00 0.  1.
         14    1    4    4    0    0  0.73425279338E+01 -0.89147171717E+02  0.44142800032E+03  0.45039961191E+03  0.00000000000E+00 0. -1.
         -5    1    5    5    0  502 -0.24726099175E+02 -0.18781244213E+00  0.58534001512E+03  0.58588090817E+03  0.47000000000E+01 0.  1.
         11    1    6    6    0    0  0.21738019060E+02  0.11285770406E+02  0.29772934498E+02  0.38553050657E+02  0.00000000000E+00 0. -1.
        -12    1    6    6    0    0  0.13019115877E+02  0.90765406252E+02  0.38591143812E+03  0.39665538497E+03  0.00000000000E+00 0.  1.
<mgrwt>
<rscale>  2 0.20133120E+03</rscale>
<asrwt>0</asrwt>
<pdfrwt beam="1">  1       21 0.37238091E+00 0.20142895E+03</pdfrwt>
<pdfrwt beam="2">  1       21 0.26463784E-02 0.20142895E+03</pdfrwt>
<totfact> 0.99027249E+03</totfact>
</mgrwt>
</event>
<event>
12    1  0.1029207E-001  0.2049616E+03  0.7546771E-02  0.1145756E+00
         21   -1    0    0  501  502  0.00000000000E+00  0.00000000000E+00  0.12240648634E+04  0.12240648634E+04  0.00000000000E+00 0.  1.
         21   -1    0    0  502  503 -0.00000000000E+00 -0.00000000000E+00 -0.47180415618E+02  0.47180415618E+02  0.00000000000E+00 0. -1.
         -6    2    1    2    0  503 -0.10670493435E+03  0.20023176296E+02  0.25584147094E+03  0.32781717625E+03  0.17384582878E+03 0.  0.
        -24    2    3    3    0    0 -0.83050034678E+02 -0.66928603898E+01  0.26650638690E+03  0.29027877821E+03  0.79334810635E+02 0.  0.
          6    2    1    2  501    0  0.10670493435E+03 -0.20023176296E+02  0.92104297681E+03  0.94342810275E+03  0.17305938088E+03 0.  0.
         24    2    5    5    0    0  0.21385227282E+02 -0.66845547416E+02  0.49644522042E+03  0.50779393101E+03  0.80443547510E+02 0.  0.
          5    1    5    5  501    0  0.85319707070E+02  0.46822371120E+02  0.42459775639E+03  0.43563417174E+03  0.47000000000E+01 0. -1.
        -11    1    6    6    0    0  0.40819017184E+01 -0.44814451291E+02  0.45810433170E+03  0.46030921747E+03  0.00000000000E+00 0.  1.
         12    1    6    6    0    0  0.17303325563E+02 -0.22031096125E+02  0.38340888724E+02  0.47484713541E+02  0.00000000000E+00 0. -1.
         -5    1    3    3    0  503 -0.23654899674E+02  0.26716036686E+02 -0.10664915959E+02  0.37538398037E+02  0.47000000000E+01 0.  1.
         13    1    4    4    0    0 -0.20586977371E+02 -0.16262011183E+02  0.13508634721E+02  0.29508640379E+02  0.00000000000E+00 0. -1.
        -14    1    4    4    0    0 -0.62463057307E+02  0.95691507933E+01  0.25299775218E+03  0.26077013783E+03  0.00000000000E+00 0.  1.
<mgrwt>
<rscale>  2 0.20479470E+03</rscale>
<asrwt>0</asrwt>
<pdfrwt beam="1">  1       21 0.18831765E+00 0.20496156E+03</pdfrwt>
<pdfrwt beam="2">  1       21 0.72585264E-02 0.20496156E+03</pdfrwt>
<totfact> 0.22532923E+04</totfact>
</mgrwt>
</event>
<event>
12    1  0.1029207E-001  0.2509368E+03  0.7546771E-02  0.1112838E+00
         21   -1    0    0  503  502  0.00000000000E+00  0.00000000000E+00  0.31894961423E+03  0.31894961423E+03  0.00000000000E+00 0. -1.
         21   -1    0    0  501  503 -0.00000000000E+00 -0.00000000000E+00 -0.20533082028E+03  0.20533082028E+03  0.00000000000E+00 0. -1.
          6    2    1    2  501    0  0.18065081195E+03 -0.48360552429E+01  0.11029190977E+03  0.27410501747E+03  0.17410098206E+03 0.  0.
         24    2    3    3    0    0  0.18914200958E+02 -0.26993369348E+02  0.51260097055E+02  0.10044868210E+03  0.79849553524E+02 0.  0.
         -6    2    1    2    0  502 -0.18065081195E+03  0.48360552429E+01  0.33268841772E+01  0.25017541704E+03  0.17296984663E+03 0.  0.
        -24    2    5    5    0    0 -0.82250339620E+02  0.44869380232E+02 -0.41879299539E+02  0.13462885019E+03  0.87135939334E+02 0.  0.
          5    1    3    3  501    0  0.16173661099E+03  0.22157314105E+02  0.59031812719E+02  0.17365633537E+03  0.47000000000E+01 0. -1.
        -13    1    4    4    0    0  0.31401081499E+02 -0.77183649444E+01  0.65765588876E+02  0.73285153728E+02  0.00000000000E+00 0.  1.
         14    1    4    4    0    0 -0.12486880541E+02 -0.19275004404E+02 -0.14505491821E+02  0.27163528367E+02  0.00000000000E+00 0. -1.
         -5    1    5    5    0  502 -0.98400472327E+02 -0.40033324989E+02  0.45206183716E+02  0.11554656685E+03  0.47000000000E+01 0.  1.
         11    1    6    6    0    0 -0.49058271838E+02 -0.15985242279E+01 -0.57328745831E+02  0.75470884545E+02  0.00000000000E+00 0. -1.
        -12    1    6    6    0    0 -0.33192067782E+02  0.46467904460E+02  0.15449446293E+02  0.59157965645E+02  0.00000000000E+00 0.  1.
<mgrwt>
<rscale>  2 0.25074066E+03</rscale>
<asrwt>0</asrwt>
<pdfrwt beam="1">  1       21 0.49069171E-01 0.25093676E+03</pdfrwt>
<pdfrwt beam="2">  1       21 0.31589357E-01 0.25093676E+03</pdfrwt>
<totfact> 0.37127237E+04</totfact>
</mgrwt>
</event>
<event>
12    1  0.1029207E-001  0.1764383E+03  0.7546771E-02  0.1171347E+00
         21   -1    0    0  501  502  0.00000000000E+00  0.00000000000E+00  0.29703781168E+03  0.29703781168E+03  0.00000000000E+00 0. -1.
         21   -1    0    0  502  503 -0.00000000000E+00 -0.00000000000E+00 -0.12655979949E+03  0.12655979949E+03  0.00000000000E+00 0. -1.
         -6    2    1    2    0  503  0.14082045537E+02  0.38462705776E+02 -0.28650605612E+01  0.17625517433E+03  0.17140593387E+03 0.  0.
        -24    2    3    3    0    0  0.56717507578E+02  0.63056878505E+02  0.23160382628E+02  0.12037969090E+03  0.82230292868E+02 0.  0.
          6    2    1    2  501    0 -0.14082045537E+02 -0.38462705776E+02  0.17334307275E+03  0.24734243683E+03  0.17161811223E+03 0.  0.
         24    2    5    5    0    0 -0.51668857069E+02 -0.47090540250E+02  0.17900798157E+03  0.20808190804E+03  0.79793691599E+02 0.  0.
          5    1    5    5  501    0  0.37586811531E+02  0.86278344738E+01 -0.56649088126E+01  0.39260528787E+02  0.47000000000E+01 0. -1.
        -11    1    6    6    0    0 -0.26110227869E+02 -0.13097540246E+02  0.58675844109E+01  0.29794598616E+02  0.00000000000E+00 0.  1.
         12    1    6    6    0    0 -0.25558629199E+02 -0.33993000003E+02  0.17314039716E+03  0.17828730943E+03  0.00000000000E+00 0. -1.
         -5    1    3    3    0  503 -0.42635462041E+02 -0.24594172730E+02 -0.26025443189E+02  0.55875483433E+02  0.47000000000E+01 0.  1.
         13    1    4    4    0    0  0.10049051015E+01  0.57103045797E+01 -0.25922204629E+02  0.26562720220E+02  0.00000000000E+00 0. -1.
        -14    1    4    4    0    0  0.55712602477E+02  0.57346573926E+02  0.49082587258E+02  0.93816970681E+02  0.00000000000E+00 0.  1.
<mgrwt>
<rscale>  2 0.17638665E+03</rscale>
<asrwt>0</asrwt>
<pdfrwt beam="1">  1       21 0.45698125E-01 0.17643826E+03</pdfrwt>
<pdfrwt beam="2">  1       21 0.19470738E-01 0.17643826E+03</pdfrwt>
<totfact> 0.11207325E+05</totfact>
</mgrwt>
</event>
<event>
12    1  0.1029207E-001  0.2342047E+03  0.7546771E-02  0.1124067E+00
         21   -1    0    0  503  502  0.00000000000E+00  0.00000000000E+00  0.12727251880E+04  0.12727251880E+04  0.00000000000E+00 0.  1.
         21   -1    0    0  501  503 -0.00000000000E+00 -0.00000000000E+00 -0.44889173925E+02  0.44889173925E+02  0.00000000000E+00 0. -1.
          6    2    1    2  501    0 -0.25040790239E+02 -0.15229038817E+03  0.46665851057E+03  0.52122059485E+03  0.17343972872E+03 0.  0.
         24    2    3    3    0    0 -0.71484943321E+02 -0.15133056071E+03  0.36534764975E+03  0.40966809087E+03  0.79611580611E+02 0.  0.
         -6    2    1    2    0  502  0.25040790239E+02  0.15229038817E+03  0.76117750346E+03  0.79639376703E+03  0.17616025912E+03 0.  0.
        -24    2    5    5    0    0  0.40099546126E+02  0.36793587720E+02  0.19273025584E+03  0.21611741876E+03  0.81240663941E+02 0.  0.
          5    1    3    3  501    0  0.46444153082E+02 -0.95982745705E+00  0.10131086082E+03  0.11155250398E+03  0.47000000000E+01 0. -1.
        -13    1    4    4    0    0 -0.12874423769E+00 -0.87318906430E+02  0.14323611478E+03  0.16775336829E+03  0.00000000000E+00 0.  1.
         14    1    4    4    0    0 -0.71356199083E+02 -0.64011654284E+02  0.22211153498E+03  0.24191472258E+03  0.00000000000E+00 0. -1.
         -5    1    5    5    0  502 -0.15058755887E+02  0.11549680045E+03  0.56844724762E+03  0.58027634827E+03  0.47000000000E+01 0.  1.
         11    1    6    6    0    0  0.93983785613E+01  0.25123525144E+02  0.72981079426E+01  0.27798982262E+02  0.00000000000E+00 0. -1.
        -12    1    6    6    0    0  0.30701167564E+02  0.11670062575E+02  0.18543214790E+03  0.18831843650E+03  0.00000000000E+00 0.  1.
<mgrwt>
<rscale>  2 0.23369318E+03</rscale>
<asrwt>0</asrwt>
<pdfrwt beam="1">  1       21 0.19580385E+00 0.23420470E+03</pdfrwt>
<pdfrwt beam="2">  1       21 0.69060277E-02 0.23420470E+03</pdfrwt>
<totfact> 0.21495354E+04</totfact>
</mgrwt>
</event>
<event>
12    1  0.1029207E-001  0.1828501E+03  0.7546771E-02  0.1165081E+00
         21   -1    0    0  503  502  0.00000000000E+00  0.00000000000E+00  0.47569241025E+02  0.47569241025E+02  0.00000000000E+00 0. -1.
         21   -1    0    0  501  503 -0.00000000000E+00 -0.00000000000E+00 -0.72143664100E+03  0.72143664100E+03  0.00000000000E+00 0.  1.
          6    2    1    2  501    0  0.55669000763E+02  0.15563641295E+02 -0.27496097621E+03  0.33018873772E+03  0.17343528910E+03 0.  0.
         24    2    3    3    0    0  0.36713765844E+02  0.77686676580E+02 -0.16810928897E+03  0.20505702508E+03  0.80028308584E+02 0.  0.
         -6    2    1    2    0  502 -0.55669000763E+02 -0.15563641295E+02 -0.39890642376E+03  0.43881714430E+03  0.17347301414E+03 0.  0.
        -24    2    5    5    0    0 -0.85869761993E+02 -0.34328167477E+02 -0.18370833972E+03  0.22065092602E+03  0.79912689633E+02 0.  0.
          5    1    3    3  501    0  0.18955234919E+02 -0.62123035285E+02 -0.10685168724E+03  0.12513171265E+03  0.47000000000E+01 0. -1.
        -13    1    4    4    0    0  0.60259045777E+02  0.56831389504E+02 -0.14101625542E+03  0.16354370585E+03  0.00000000000E+00 0.  1.
         14    1    4    4    0    0 -0.23545279933E+02  0.20855287076E+02 -0.27093033550E+02  0.41513319225E+02  0.00000000000E+00 0. -1.
         -5    1    5    5    0  502  0.30200761230E+02  0.18764526182E+02 -0.21519808404E+03  0.21816621828E+03  0.47000000000E+01 0.  1.
         11    1    6    6    0    0 -0.66498870451E+02  0.15789145930E+02 -0.10812755813E+03  0.12791780849E+03  0.00000000000E+00 0. -1.
        -12    1    6    6    0    0 -0.19370891542E+02 -0.50117313407E+02 -0.75580781586E+02  0.92733117533E+02  0.00000000000E+00 0.  1.
<mgrwt>
<rscale>  2 0.18284113E+03</rscale>
<asrwt>0</asrwt>
<pdfrwt beam="1">  1       21 0.73183451E-02 0.18285008E+03</pdfrwt>
<pdfrwt beam="2">  1       21 0.11099025E+00 0.18285008E+03</pdfrwt>
<totfact> 0.89896845E+04</totfact>
</mgrwt>
</event>
<event>
12    1  0.1029207E-001  0.1785594E+03  0.7546771E-02  0.1169368E+00
         21   -1    0    0  501  502  0.00000000000E+00  0.00000000000E+00  0.19172565371E+03  0.19172565371E+03  0.00000000000E+00 0. -1.
         21   -1    0    0  502  503 -0.00000000000E+00 -0.00000000000E+00 -0.25019379973E+03  0.25019379973E+03  0.00000000000E+00 0. -1.
         -6    2    1    2    0  503  0.37732669195E+02  0.24189808059E+02 -0.15769361532E+03  0.23822410565E+03  0.17284254992E+03 0.  0.
        -24    2    3    3    0    0 -0.31960902921E+02  0.24703353318E+02 -0.31486414902E+02  0.93974997647E+02  0.78791819872E+02 0.  0.
          6    2    1    2  501    0 -0.37732669195E+02 -0.24189808059E+02  0.99225469296E+02  0.20369534778E+03  0.17215458115E+03 0.  0.
         24    2    5    5    0    0 -0.36744882477E+02 -0.80057139438E+02  0.80063401704E+02  0.14443820245E+03  0.81810232077E+02 0.  0.
          5    1    5    5  501    0 -0.98778671792E+00  0.55867331379E+02  0.19162067593E+02  0.59257145328E+02  0.47000000000E+01 0. -1.
        -11    1    6    6    0    0 -0.55103609257E+00 -0.20436797618E+01 -0.15633354252E+02  0.15775995465E+02  0.00000000000E+00 0.  1.
         12    1    6    6    0    0 -0.36193846385E+02 -0.78013459676E+02  0.95696755956E+02  0.12866220699E+03  0.00000000000E+00 0. -1.
         -5    1    3    3    0  503  0.69693572117E+02 -0.51354525897E+00 -0.12620720042E+03  0.14424910801E+03  0.47000000000E+01 0.  1.
         11    1    4    4    0    0  0.16627628146E+02  0.18332888188E+02 -0.37155088692E+02  0.44643850895E+02  0.00000000000E+00 0. -1.
        -12    1    4    4    0    0 -0.48588531068E+02  0.63704651305E+01  0.56686737900E+01  0.49331146752E+02  0.00000000000E+00 0.  1.
<mgrwt>
<rscale>  2 0.17839267E+03</rscale>
<asrwt>0</asrwt>
<pdfrwt beam="1">  1       21 0.29496254E-01 0.17855937E+03</pdfrwt>
<pdfrwt beam="2">  1       21 0.38491354E-01 0.17855937E+03</pdfrwt>
<totfact> 0.72108268E+04</totfact>
</mgrwt>
</event>
<event>
12    1  0.1029207E-001  0.1826565E+03  0.7546771E-02  0.1165417E+00
         21   -1    0    0  503  502  0.00000000000E+00  0.00000000000E+00  0.63638898680E+03  0.63638898680E+03  0.00000000000E+00 0. -1.
         21   -1    0    0  501  503 -0.00000000000E+00 -0.00000000000E+00 -0.61666964582E+02  0.61666964582E+02  0.00000000000E+00 0. -1.
          6    2    1    2  501    0 -0.53746193996E+02 -0.11724838158E+02  0.15129473615E+03  0.23717816344E+03  0.17417594216E+03 0.  0.
         24    2    3    3    0    0 -0.40442973026E+02 -0.24099611219E+02  0.18009601800E+03  0.20280208844E+03  0.80484073255E+02 0.  0.
         -6    2    1    2    0  502  0.53746193996E+02  0.11724838158E+02  0.42342728607E+03  0.46087778795E+03  0.17346914318E+03 0.  0.
        -24    2    5    5    0    0  0.81666019087E+02  0.65526857621E+01  0.13838158715E+03  0.17438274738E+03  0.67435914457E+02 0.  0.
          5    1    3    3  501    0 -0.13303220969E+02  0.12374773061E+02 -0.28801281848E+02  0.34376075002E+02  0.47000000000E+01 0. -1.
        -11    1    4    4    0    0 -0.17350269659E+02  0.29477026364E+02  0.78861201214E+02  0.85959385744E+02  0.00000000000E+00 0.  1.
         12    1    4    4    0    0 -0.23092703368E+02 -0.53576637583E+02  0.10123481678E+03  0.11684270269E+03  0.00000000000E+00 0. -1.
         -5    1    5    5    0  502 -0.27919825091E+02  0.51721523960E+01  0.28504569893E+03  0.28649504057E+03  0.47000000000E+01 0.  1.
         11    1    6    6    0    0  0.38971707637E+02  0.15709074643E+02  0.11975143809E+03  0.12690932175E+03  0.00000000000E+00 0. -1.
        -12    1    6    6    0    0  0.42694311450E+02 -0.91563888806E+01  0.18630149062E+02  0.47473425636E+02  0.00000000000E+00 0.  1.
<mgrwt>
<rscale>  2 0.18248777E+03</rscale>
<asrwt>0</asrwt>
<pdfrwt beam="1">  1       21 0.97905993E-01 0.18265646E+03</pdfrwt>
<pdfrwt beam="2">  1       21 0.94872258E-02 0.18265646E+03</pdfrwt>
<totfact> 0.77183905E+04</totfact>
</mgrwt>
</event>
<event>
12    1  0.1029207E-001  0.2403597E+03  0.7546771E-02  0.1119594E+00
         21   -1    0    0  503  502  0.00000000000E+00  0.00000000000E+00  0.12276159749E+03  0.12276159749E+03  0.00000000000E+00 0. -1.
         21   -1    0    0  501  503 -0.00000000000E+00 -0.00000000000E+00 -0.54280481880E+03  0.54280481880E+03  0.00000000000E+00 0.  1.
          6    2    1    2  501    0 -0.23789885681E+02  0.16340401348E+03 -0.33169516391E+03  0.40948403788E+03  0.17432345004E+03 0.  0.
         24    2    3    3    0    0 -0.26004736533E+02  0.83334800403E+02 -0.30059435448E+03  0.32342978293E+03  0.81418199833E+02 0.  0.
         -6    2    1    2    0  502  0.23789885681E+02 -0.16340401348E+03 -0.88348057390E+02  0.25608237841E+03  0.17465959751E+03 0.  0.
        -24    2    5    5    0    0  0.44178354118E+02 -0.78689282643E+02 -0.11231935883E+03  0.16558934796E+03  0.81611663481E+02 0.  0.
          5    1    3    3  501    0  0.22148508512E+01  0.80069213079E+02 -0.31100809434E+02  0.86054254949E+02  0.47000000000E+01 0. -1.
        -13    1    4    4    0    0 -0.45832771057E+01  0.75906752627E+02 -0.28719780745E+03  0.29709497156E+03  0.00000000000E+00 0.  1.
         14    1    4    4    0    0 -0.21421459427E+02  0.74280477754E+01 -0.13396547030E+02  0.26334811373E+02  0.00000000000E+00 0. -1.
         -5    1    5    5    0  502 -0.20388468436E+02 -0.84714730838E+02  0.23971301436E+02  0.90493030443E+02  0.47000000000E+01 0.  1.
         11    1    6    6    0    0 -0.30103225964E+01 -0.40872485356E+02 -0.35458314841E+01  0.41136298111E+02  0.00000000000E+00 0. -1.
        -12    1    6    6    0    0  0.47188676714E+02 -0.37816797287E+02 -0.10877352734E+03  0.12445304985E+03  0.00000000000E+00 0.  1.
<mgrwt>
<rscale>  2 0.24029868E+03</rscale>
<asrwt>0</asrwt>
<pdfrwt beam="1">  1       21 0.18886399E-01 0.24035974E+03</pdfrwt>
<pdfrwt beam="2">  1       21 0.83508436E-01 0.24035974E+03</pdfrwt>
<totfact> 0.31263157E+04</totfact>
</mgrwt>
</event>
<event>
12    1  0.1029207E-001  0.1802290E+03  0.7546771E-02  0.1167583E+00
         21   -1    0    0  501  502  0.00000000000E+00  0.00000000000E+00  0.49187067998E+02  0.49187067998E+02  0.00000000000E+00 0. -1.
         21   -1    0    0  502  503 -0.00000000000E+00 -0.00000000000E+00 -0.14151021457E+04  0.14151021457E+04  0.00000000000E+00 0. -1.
         -6    2    1    2    0  503  0.14134181603E+02  0.46697880653E+02 -0.12176515608E+04  0.12309174694E+04  0.17349935417E+03 0.  0.
        -24    2    3    3    0    0  0.75471243193E+02  0.41505742840E+02 -0.85268741249E+03  0.86076869803E+03  0.80176635354E+02 0.  0.
          6    2    1    2  501    0 -0.14134181603E+02 -0.46697880653E+02 -0.14826351693E+03  0.23337174429E+03  0.17349303569E+03 0.  0.
         24    2    5    5    0    0  0.16168796505E+02 -0.89489541616E+02 -0.13224952056E+03  0.17834507067E+03  0.77763876606E+02 0.  0.
          5    1    5    5  501    0 -0.30302978108E+02  0.42791660963E+02 -0.16013996370E+02  0.55026673622E+02  0.47000000000E+01 0. -1.
        -11    1    6    6    0    0  0.18220454361E+02 -0.16899947754E+02 -0.92043007555E+02  0.95338913519E+02  0.00000000000E+00 0.  1.
         12    1    6    6    0    0 -0.20516578562E+01 -0.72589593863E+02 -0.40206513009E+02  0.83006157154E+02  0.00000000000E+00 0. -1.
         -5    1    3    3    0  503 -0.61337061590E+02  0.51921378135E+01 -0.36496414831E+03  0.37014877141E+03  0.47000000000E+01 0.  1.
         13    1    4    4    0    0  0.80116804188E+02  0.74944887136E+01 -0.67647026915E+03  0.68123923457E+03  0.00000000000E+00 0. -1.
        -14    1    4    4    0    0 -0.46455609951E+01  0.34011254126E+02 -0.17621714334E+03  0.17952946346E+03  0.00000000000E+00 0.  1.
<mgrwt>
<rscale>  2 0.18022748E+03</rscale>
<asrwt>0</asrwt>
<pdfrwt beam="1">  1       21 0.75672420E-02 0.18022900E+03</pdfrwt>
<pdfrwt beam="2">  1       21 0.21770800E+00 0.18022900E+03</pdfrwt>
<totfact> 0.13882888E+04</totfact>
</mgrwt>
</event>
<event>
12    1  0.1029207E-001  0.2211434E+03  0.7546771E-02  0.1134413E+00
         21   -1    0    0  501  502  0.00000000000E+00  0.00000000000E+00  0.40551278758E+03  0.40551278758E+03  0.00000000000E+00 0.  1.
         21   -1    0    0  502  503 -0.00000000000E+00 -0.00000000000E+00 -0.13029288922E+03  0.13029288922E+03  0.00000000000E+00 0. -1.
         -6    2    1    2    0  503  0.11841359877E+03 -0.44328993871E+02  0.48831322388E+02  0.21933104943E+03  0.17243773115E+03 0.  0.
        -24    2    3    3    0    0  0.15657145632E+02  0.28921063866E+02  0.88413981186E+01  0.86870701912E+02  0.79917297161E+02 0.  0.
          6    2    1    2  501    0 -0.11841359877E+03  0.44328993871E+02  0.22638857598E+03  0.31647462738E+03  0.18143197725E+03 0.  0.
         24    2    5    5    0    0 -0.15495871563E+03  0.29524246337E+02  0.20816185494E+03  0.27278218552E+03  0.78707548619E+02 0.  0.
          5    1    5    5  501    0  0.36545116861E+02  0.14804747534E+02  0.18226721035E+02  0.43692441859E+02  0.47000000000E+01 0. -1.
        -13    1    6    6    0    0 -0.47384382778E+02  0.21824007688E+02  0.12854748580E+03  0.13873003694E+03  0.00000000000E+00 0.  1.
         14    1    6    6    0    0 -0.10757433286E+03  0.77002386481E+01  0.79614369137E+02  0.13405214858E+03  0.00000000000E+00 0. -1.
         -5    1    3    3    0  503  0.10275645314E+03 -0.73250057736E+02  0.39989924269E+02  0.13246034751E+03  0.47000000000E+01 0.  1.
         11    1    4    4    0    0 -0.43671472066E+01 -0.23945794116E+02  0.17088289015E+02  0.29740253060E+02  0.00000000000E+00 0. -1.
        -12    1    4    4    0    0  0.20024292839E+02  0.52866857982E+02 -0.82468908969E+01  0.57130448852E+02  0.00000000000E+00 0.  1.
<mgrwt>
<rscale>  2 0.21929093E+03</rscale>
<asrwt>0</asrwt>
<pdfrwt beam="1">  1       21 0.62386582E-01 0.22114340E+03</pdfrwt>
<pdfrwt beam="2">  1       21 0.20045060E-01 0.22114340E+03</pdfrwt>
<totfact> 0.54036729E+04</totfact>
</mgrwt>
</event>
<event>
12    1  0.1029207E-001  0.2090278E+03  0.7546771E-02  0.1142474E+00
         21   -1    0    0  501  502  0.00000000000E+00  0.00000000000E+00  0.74745871832E+03  0.74745871832E+03  0.00000000000E+00 0.  1.
         21   -1    0    0  502  503 -0.00000000000E+00 -0.00000000000E+00 -0.82332732384E+02  0.82332732384E+02  0.00000000000E+00 0.  1.
         -6    2    1    2    0  503  0.54208116656E+01  0.11580554433E+03  0.10785768964E+03  0.23461033137E+03  0.17311388469E+03 0.  0.
        -24    2    3    3    0    0 -0.91274987367E+00  0.86153776407E+01  0.91928408948E+02  0.12595639532E+03  0.85668683338E+02 0.  0.
          6    2    1    2  501    0 -0.54208116656E+01 -0.11580554433E+03  0.55726829630E+03  0.59518111934E+03  0.17393188743E+03 0.  0.
         24    2    5    5    0    0  0.58445224559E+02 -0.99251946658E+02  0.41667261306E+03  0.43980374543E+03  0.80897928464E+02 0.  0.
          5    1    5    5  501    0 -0.63866036224E+02 -0.16553597672E+02  0.14059568324E+03  0.15537737391E+03  0.47000000000E+01 0. -1.
        -11    1    6    6    0    0  0.51408552609E+02 -0.83497788759E+02  0.20305763714E+03  0.22549306865E+03  0.00000000000E+00 0.  1.
         12    1    6    6    0    0  0.70366719498E+01 -0.15754157899E+02  0.21361497592E+03  0.21431067678E+03  0.00000000000E+00 0. -1.
         -5    1    3    3    0  503  0.63335615392E+01  0.10719016669E+03  0.15929280696E+02  0.10865393605E+03  0.47000000000E+01 0.  1.
         11    1    4    4    0    0 -0.13116505153E+02 -0.39950091029E+01 -0.13402487471E+02  0.19173666200E+02  0.00000000000E+00 0. -1.
        -12    1    4    4    0    0  0.12203755279E+02  0.12610386744E+02  0.10533089642E+03  0.10678272911E+03  0.00000000000E+00 0.  1.
<mgrwt>
<rscale>  2 0.20885753E+03</rscale>
<asrwt>0</asrwt>
<pdfrwt beam="1">  1       21 0.11499364E+00 0.20902778E+03</pdfrwt>
<pdfrwt beam="2">  1       21 0.12666575E-01 0.20902778E+03</pdfrwt>
<totfact> 0.30936014E+04</totfact>
</mgrwt>
</event>
<event>
12    1  0.1029207E-001  0.1779946E+03  0.7546771E-02  0.1169835E+00
         21   -1    0    0  501  502  0.00000000000E+00  0.00000000000E+00  0.41301556539E+03  0.41301556539E+03  0.00000000000E+00 0.  1.
         21   -1    0    0  502  503 -0.00000000000E+00 -0.00000000000E+00 -0.11068607150E+03  0.11068607150E+03  0.00000000000E+00 0.  1.
         -6    2    1    2    0  503  0.18931106256E+02 -0.35093670566E+02  0.57074728917E+01  0.17777290816E+03  0.17314929723E+03 0.  0.
        -24    2    3    3    0    0 -0.79258510184E+01  0.15179580086E+02  0.55313318118E+02  0.10206606722E+03  0.84051651678E+02 0.  0.
          6    2    1    2  501    0 -0.18931106256E+02  0.35093670566E+02  0.29662202100E+03  0.34592872873E+03  0.17347077425E+03 0.  0.
         24    2    5    5    0    0  0.28167031248E+02  0.73770128796E+02  0.15646695699E+03  0.19302472307E+03  0.80877818560E+02 0.  0.
          5    1    5    5  501    0 -0.47098137504E+02 -0.38676458230E+02  0.14015506401E+03  0.15290400565E+03  0.47000000000E+01 0. -1.
        -11    1    6    6    0    0 -0.14821936809E+02  0.17032792024E+02  0.98991102329E+02  0.10153346323E+03  0.00000000000E+00 0.  1.
         12    1    6    6    0    0  0.42988968057E+02  0.56737336771E+02  0.57475854662E+02  0.91491259843E+02  0.00000000000E+00 0. -1.
         -5    1    3    3    0  503  0.26856957274E+02 -0.50273250652E+02 -0.49605845226E+02  0.75706840944E+02  0.47000000000E+01 0.  1.
         13    1    4    4    0    0  0.34098158422E+02  0.22407525735E+02  0.15255011891E+02  0.43560268653E+02  0.00000000000E+00 0. -1.
        -14    1    4    4    0    0 -0.42024009441E+02 -0.72279456482E+01  0.40058306227E+02  0.58505798563E+02  0.00000000000E+00 0.  1.
<mgrwt>
<rscale>  2 0.17791618E+03</rscale>
<asrwt>0</asrwt>
<pdfrwt beam="1">  1       21 0.63540856E-01 0.17799456E+03</pdfrwt>
<pdfrwt beam="2">  1       21 0.17028627E-01 0.17799456E+03</pdfrwt>
<totfact> 0.71660234E+04</totfact>
</mgrwt>
</event>
<event>
12    1  0.1029207E-001  0.2071744E+03  0.7546771E-02  0.1144944E+00
         21   -1    0    0  503  502  0.00000000000E+00  0.00000000000E+00  0.17890662805E+03  0.17890662805E+03  0.00000000000E+00 0.  1.
         21   -1    0    0  501  503 -0.00000000000E+00 -0.00000000000E+00 -0.25383329359E+03  0.25383329359E+03  0.00000000000E+00 0. -1.
          6    2    1    2  501    0  0.10713579129E+03  0.24134851491E+02  0.24077022873E+02  0.20312512350E+03  0.16917311824E+03 0.  0.
         24    2    3    3    0    0  0.10278884883E+03  0.29890208470E+02 -0.39204967764E+02  0.13926026320E+03  0.79983869642E+02 0.  0.
         -6    2    1    2    0  502 -0.10713579129E+03 -0.24134851491E+02 -0.99003688412E+02  0.22961479815E+03  0.17567201364E+03 0.  0.
        -24    2    5    5    0    0 -0.11721868533E+03 -0.13646065158E+02 -0.13115763268E+03  0.19401078821E+03  0.80693407715E+02 0.  0.
          5    1    3    3  501    0  0.43469424596E+01 -0.57553569789E+01  0.63281990637E+02  0.63864860304E+02  0.47000000000E+01 0. -1.
        -11    1    4    4    0    0  0.92644869561E+02  0.92216535662E+01  0.79650277611E+00  0.93106096294E+02  0.00000000000E+00 0.  1.
         12    1    4    4    0    0  0.10143979265E+02  0.20668554903E+02 -0.40001470540E+02  0.46154166902E+02  0.00000000000E+00 0. -1.
         -5    1    5    5    0  502  0.10082894042E+02 -0.10488786333E+02  0.32153944271E+02  0.35604009931E+02  0.47000000000E+01 0.  1.
         11    1    6    6    0    0 -0.79682283003E+02  0.24593262930E+01 -0.13078119575E+03  0.15316342798E+03  0.00000000000E+00 0. -1.
        -12    1    6    6    0    0 -0.37536402324E+02 -0.16105391451E+02 -0.37643693681E+00  0.40847360233E+02  0.00000000000E+00 0.  1.
<mgrwt>
<rscale>  2 0.20579026E+03</rscale>
<asrwt>0</asrwt>
<pdfrwt beam="1">  1       21 0.27524097E-01 0.20717438E+03</pdfrwt>
<pdfrwt beam="2">  1       21 0.39051276E-01 0.20717438E+03</pdfrwt>
<totfact> 0.79126861E+04</totfact>
</mgrwt>
</event>
<event>
12    1  0.1029207E-001  0.2873415E+03  0.7546771E-02  0.1091816E+00
         21   -1    0    0  503  502  0.00000000000E+00  0.00000000000E+00  0.24872475172E+03  0.24872475172E+03  0.00000000000E+00 0.  1.
         21   -1    0    0  501  503 -0.00000000000E+00 -0.00000000000E+00 -0.77173590835E+03  0.77173590835E+03  0.00000000000E+00 0. -1.
          6    2    1    2  501    0 -0.22945856353E+03  0.12679466229E+02 -0.64684059500E+03  0.70757275405E+03  0.17159383935E+03 0.  0.
         24    2    3    3    0    0 -0.99220033587E+02 -0.55346004372E+02 -0.31865121828E+03  0.34796199737E+03  0.81431919038E+02 0.  0.
         -6    2    1    2    0  502  0.22945856353E+03 -0.12679466229E+02  0.12382943836E+03  0.31288790601E+03  0.17249090029E+03 0.  0.
        -24    2    5    5    0    0  0.99335894515E+02 -0.62182518394E+02  0.22194135854E+02  0.14045158188E+03  0.74160512765E+02 0.  0.
          5    1    3    3  501    0 -0.13023852994E+03  0.68025470601E+02 -0.32818937672E+03  0.35961075668E+03  0.47000000000E+01 0. -1.
        -11    1    4    4    0    0 -0.46073112665E+02 -0.33314109569E+01 -0.45386101927E+02  0.64759001364E+02  0.00000000000E+00 0.  1.
         12    1    4    4    0    0 -0.53146920922E+02 -0.52014593415E+02 -0.27326511635E+03  0.28320299601E+03  0.00000000000E+00 0. -1.
         -5    1    5    5    0  502  0.13012266901E+03  0.49503052165E+02  0.10163530251E+03  0.17243632413E+03  0.47000000000E+01 0.  1.
         11    1    6    6    0    0  0.36538234027E+02 -0.30401405726E+02 -0.26921569177E+02  0.54626540279E+02  0.00000000000E+00 0. -1.
        -12    1    6    6    0    0  0.62797660488E+02 -0.31781112667E+02  0.49115705031E+02  0.85825041601E+02  0.00000000000E+00 0.  1.
<mgrwt>
<rscale>  2 0.28720696E+03</rscale>
<asrwt>0</asrwt>
<pdfrwt beam="1">  1       21 0.38265346E-01 0.28734146E+03</pdfrwt>
<pdfrwt beam="2">  1       21 0.11872860E+00 0.28734146E+03</pdfrwt>
<totfact> 0.33382165E+03</totfact>
</mgrwt>
</event>
<event>
12    1  0.1029207E-001  0.2241468E+03  0.7546771E-02  0.1132216E+00
         21   -1    0    0  501  502  0.00000000000E+00  0.00000000000E+00  0.28575005517E+03  0.28575005517E+03  0.00000000000E+00 0.  1.
         21   -1    0    0  502  503 -0.00000000000E+00 -0.00000000000E+00 -0.20750917766E+03  0.20750917766E+03  0.00000000000E+00 0. -1.
         -6    2    1    2    0  503  0.12551901955E+03 -0.22980981081E+02  0.14450859097E+03  0.26669182824E+03  0.18427872537E+03 0.  0.
        -24    2    3    3    0    0  0.12983004125E+03  0.10745647244E+02  0.41459713387E+02  0.15807676695E+03  0.79360241126E+02 0.  0.
          6    2    1    2  501    0 -0.12551901955E+03  0.22980981081E+02 -0.66267713463E+02  0.22656740459E+03  0.17509491488E+03 0.  0.
         24    2    5    5    0    0 -0.17987089206E+02  0.10870917639E+02 -0.83808671516E+02  0.11684254465E+03  0.78654781103E+02 0.  0.
          5    1    5    5  501    0 -0.10753193034E+03  0.12110063443E+02  0.17540958053E+02  0.10972485994E+03  0.47000000000E+01 0. -1.
        -13    1    6    6    0    0  0.12534288035E+02 -0.96545707037E+01  0.81526424847E+01  0.17798446323E+02  0.00000000000E+00 0.  1.
         14    1    6    6    0    0 -0.30521377241E+02  0.20525488342E+02 -0.91961314001E+02  0.99044098326E+02  0.00000000000E+00 0. -1.
         -5    1    3    3    0  503 -0.43110216966E+01 -0.33726628326E+02  0.10304887758E+03  0.10861506128E+03  0.47000000000E+01 0.  1.
         11    1    4    4    0    0  0.38517916970E+02 -0.18790600093E+02 -0.16544425744E+02  0.45939466723E+02  0.00000000000E+00 0. -1.
        -12    1    4    4    0    0  0.91312124276E+02  0.29536247338E+02  0.58004139131E+02  0.11213730023E+03  0.00000000000E+00 0.  1.
<mgrwt>
<rscale>  2 0.22225110E+03</rscale>
<asrwt>0</asrwt>
<pdfrwt beam="1">  1       21 0.43961547E-01 0.22414682E+03</pdfrwt>
<pdfrwt beam="2">  1       21 0.31924489E-01 0.22414682E+03</pdfrwt>
<totfact> 0.46204394E+04</totfact>
</mgrwt>
</event>
<event>
12    1  0.1029207E-001  0.2320683E+03  0.7546771E-02  0.1125414E+00
         21   -1    0    0  501  502  0.00000000000E+00  0.00000000000E+00  0.51973628589E+03  0.51973628589E+03  0.00000000000E+00 0.  1.
         21   -1    0    0  502  503 -0.00000000000E+00 -0.00000000000E+00 -0.10935202989E+03  0.10935202989E+03  0.00000000000E+00 0.  1.
         -6    2    1    2    0  503 -0.13234811776E+03 -0.85114543361E+02  0.13024216626E+03  0.26611788585E+03  0.17057314424E+03 0.  0.
        -24    2    3    3    0    0 -0.32660711466E+02 -0.43100029573E+02  0.18011051728E+01  0.98123854667E+02  0.81857878376E+02 0.  0.
          6    2    1    2  501    0  0.13234811776E+03  0.85114543361E+02  0.28014208974E+03  0.36297042993E+03  0.16884144277E+03 0.  0.
         24    2    5    5    0    0  0.10083439871E+03  0.14989660738E+02  0.24987290780E+03  0.28021218547E+03  0.75432969859E+02 0.  0.
          5    1    5    5  501    0  0.31513719044E+02  0.70124882623E+02  0.30269181943E+02  0.82758244462E+02  0.47000000000E+01 0. -1.
        -13    1    6    6    0    0  0.65482522934E+02  0.38879373189E+02  0.10862770670E+03  0.13266327726E+03  0.00000000000E+00 0.  1.
         14    1    6    6    0    0  0.35351875778E+02 -0.23889712451E+02  0.14124520110E+03  0.14754890821E+03  0.00000000000E+00 0. -1.
         -5    1    3    3    0  503 -0.99687406290E+02 -0.42014513788E+02  0.12844106109E+03  0.16799403119E+03  0.47000000000E+01 0.  1.
         13    1    4    4    0    0  0.25717636884E+01  0.58973602538E+01  0.30590015468E+02  0.31259268589E+02  0.00000000000E+00 0. -1.
        -14    1    4    4    0    0 -0.35232475154E+02 -0.48997389827E+02 -0.28788910295E+02  0.66864586077E+02  0.00000000000E+00 0.  1.
<mgrwt>
<rscale>  2 0.23175021E+03</rscale>
<asrwt>0</asrwt>
<pdfrwt beam="1">  1       21 0.79959427E-01 0.23206832E+03</pdfrwt>
<pdfrwt beam="2">  1       21 0.16823390E-01 0.23206832E+03</pdfrwt>
<totfact> 0.42951015E+04</totfact>
</mgrwt>
</event>
<event>
12    1  0.1029207E-001  0.1899787E+03  0.7546771E-02  0.1158909E+00
         21   -1    0    0  501  502  0.00000000000E+00  0.00000000000E+00  0.60485115396E+03  0.60485115396E+03  0.00000000000E+00 0. -1.
         21   -1    0    0  502  503 -0.00000000000E+00 -0.00000000000E+00 -0.67173004564E+02  0.67173004564E+02  0.00000000000E+00 0.  1.
         -6    2    1    2    0  503 -0.58886225391E+02  0.40359365165E+02  0.15338262935E+03  0.24416824886E+03  0.17605520972E+03 0.  0.
        -24    2    3    3    0    0 -0.36650617446E+02 -0.11063593259E+02  0.10572422457E+02  0.90689950378E+02  0.81530485880E+02 0.  0.
          6    2    1    2  501    0  0.58886225391E+02 -0.40359365165E+02  0.38429552005E+03  0.42785590966E+03  0.17401484651E+03 0.  0.
         24    2    5    5    0    0  0.65709794767E+02 -0.66426260267E+02  0.21303157370E+03  0.25442156059E+03  0.10304200075E+03 0.  0.
          5    1    5    5  501    0 -0.68235693758E+01  0.26066895102E+02  0.17126394635E+03  0.17343434907E+03  0.47000000000E+01 0. -1.
        -13    1    6    6    0    0  0.91330331421E+02 -0.53067484624E+02  0.13635877593E+03  0.17248508091E+03  0.00000000000E+00 0.  1.
         14    1    6    6    0    0 -0.25620536655E+02 -0.13358775643E+02  0.76672797763E+02  0.81936479678E+02  0.00000000000E+00 0. -1.
         -5    1    3    3    0  503 -0.22235607945E+02  0.51422958424E+02  0.14281020689E+03  0.15347829849E+03  0.47000000000E+01 0.  1.
         11    1    4    4    0    0  0.23353576102E+02 -0.16435474415E+02  0.10556083761E+02  0.30445775411E+02  0.00000000000E+00 0. -1.
        -12    1    4    4    0    0 -0.60004193548E+02  0.53718811559E+01  0.16338695995E-01  0.60244174967E+02  0.00000000000E+00 0.  1.
<mgrwt>
<rscale>  2 0.18950460E+03</rscale>
<asrwt>0</asrwt>
<pdfrwt beam="1">  1       21 0.93054020E-01 0.18997869E+03</pdfrwt>
<pdfrwt beam="2">  1       21 0.10334309E-01 0.18997869E+03</pdfrwt>
<totfact> 0.74523821E+04</totfact>
</mgrwt>
</event>
<event>
12    1  0.1029207E-001  0.2345053E+03  0.7546771E-02  0.1123699E+00
         21   -1    0    0  501  502  0.00000000000E+00  0.00000000000E+00  0.35401209398E+03  0.35401209398E+03  0.00000000000E+00 0.  1.
         21   -1    0    0  502  503 -0.00000000000E+00 -0.00000000000E+00 -0.15985625928E+03  0.15985625928E+03  0.00000000000E+00 0.  1.
         -6    2    1    2    0  503  0.11909461872E+03  0.10329046682E+03  0.14341140927E+03  0.27393556586E+03  0.17210872491E+03 0.  0.
        -24    2    3    3    0    0  0.11429441498E+03  0.18267096187E+02  0.54829093847E+02  0.15096836651E+03  0.79926954504E+02 0.  0.
          6    2    1    2  501    0 -0.11909461872E+03 -0.10329046682E+03  0.50744425420E+02  0.23993278740E+03  0.17360961096E+03 0.  0.
         24    2    5    5    0    0 -0.13656364684E+03 -0.12396000009E+03  0.23979989080E+02  0.20158149535E+03  0.77745405861E+02 0.  0.
          5    1    5    5  501    0  0.17469028122E+02  0.20669533271E+02  0.26764436340E+02  0.38351292048E+02  0.47000000000E+01 0. -1.
        -11    1    6    6    0    0 -0.53336454142E+02 -0.35810495048E+02  0.45141240917E+02  0.78516880526E+02  0.00000000000E+00 0.  1.
         12    1    6    6    0    0 -0.83227192701E+02 -0.88149505040E+02 -0.21161251837E+02  0.12306461483E+03  0.00000000000E+00 0. -1.
         -5    1    3    3    0  503  0.48002037405E+01  0.85023370630E+02  0.88582315423E+02  0.12296719935E+03  0.47000000000E+01 0.  1.
         11    1    4    4    0    0  0.56695096851E+01 -0.93408221906E+01 -0.15267655578E+02  0.18774866341E+02  0.00000000000E+00 0. -1.
        -12    1    4    4    0    0  0.10862490529E+03  0.27607918377E+02  0.70096749425E+02  0.13219350017E+03  0.00000000000E+00 0.  1.
<mgrwt>
<rscale>  2 0.23422759E+03</rscale>
<asrwt>0</asrwt>
<pdfrwt beam="1">  1       21 0.54463399E-01 0.23450532E+03</pdfrwt>
<pdfrwt beam="2">  1       21 0.24593271E-01 0.23450532E+03</pdfrwt>
<totfact> 0.48811123E+04</totfact>
</mgrwt>
</event>
<event>
12    1  0.1029207E-001  0.5619997E+03  0.7546771E-02  0.9987687E-01
         21   -1    0    0  503  502  0.00000000000E+00  0.00000000000E+00  0.10106100863E+04  0.10106100863E+04  0.00000000000E+00 0.  1.
         21   -1    0    0  501  503 -0.00000000000E+00 -0.00000000000E+00 -0.49003990464E+03  0.49003990464E+03  0.00000000000E+00 0. -1.
          6    2    1    2  501    0  0.30136415975E+03 -0.44182098774E+03 -0.19153200037E+03  0.59349332951E+03  0.17182457045E+03 0.  0.
         24    2    3    3    0    0  0.12574302799E+03 -0.15200518186E+03 -0.21404793189E+02  0.21428185832E+03  0.80880561514E+02 0.  0.
         -6    2    1    2    0  502 -0.30136415975E+03  0.44182098774E+03  0.71210218200E+03  0.90715666140E+03  0.17267758608E+03 0.  0.
        -24    2    5    5    0    0 -0.29741649167E+03  0.44142918572E+03  0.64652111900E+03  0.84128782646E+03  0.80370107161E+02 0.  0.
          5    1    3    3  501    0  0.17562113175E+03 -0.28981580589E+03 -0.17012720718E+03  0.37921147119E+03  0.47000000000E+01 0. -1.
        -11    1    4    4    0    0 -0.60567304094E+01 -0.36989789854E+02 -0.10917688438E+02  0.39040036597E+02  0.00000000000E+00 0.  1.
         12    1    4    4    0    0  0.13179975840E+03 -0.11501539200E+03 -0.10487104751E+02  0.17524182172E+03  0.00000000000E+00 0. -1.
         -5    1    5    5    0  502 -0.39476680764E+01  0.39180202387E+00  0.65581063000E+02  0.65868834939E+02  0.47000000000E+01 0.  1.
         11    1    6    6    0    0 -0.53169704497E+02  0.46696384316E+02  0.12048660241E+03  0.13973042312E+03  0.00000000000E+00 0. -1.
        -12    1    6    6    0    0 -0.24424678717E+03  0.39473280140E+03  0.52603451659E+03  0.70155740334E+03  0.00000000000E+00 0.  1.
<mgrwt>
<rscale>  2 0.56193434E+03</rscale>
<asrwt>0</asrwt>
<pdfrwt beam="1">  1       21 0.15547848E+00 0.56199972E+03</pdfrwt>
<pdfrwt beam="2">  1       21 0.75390754E-01 0.56199972E+03</pdfrwt>
<totfact> 0.33632611E+02</totfact>
</mgrwt>
</event>
<event>
12    1  0.1029207E-001  0.2802357E+03  0.7546771E-02  0.1095740E+00
         21   -1    0    0  501  502  0.00000000000E+00  0.00000000000E+00  0.10932364835E+04  0.10932364835E+04  0.00000000000E+00 0. -1.
         21   -1    0    0  502  503 -0.00000000000E+00 -0.00000000000E+00 -0.81160023278E+02  0.81160023278E+02  0.00000000000E+00 0.  1.
         -6    2    1    2    0  503  0.21930866402E+03 -0.10027091295E+02  0.30239268403E+03  0.41138725533E+03  0.17205030027E+03 0.  0.
        -24    2    3    3    0    0  0.21032506187E+03  0.19806439656E+02  0.19184802048E+03  0.29643962675E+03  0.80261215072E+02 0.  0.
          6    2    1    2  501    0 -0.21930866402E+03  0.10027091295E+02  0.70968377615E+03  0.76300925140E+03  0.17417009766E+03 0.  0.
         24    2    5    5    0    0 -0.16578409998E+03  0.72266318497E+02  0.51614589863E+03  0.55272943688E+03  0.79977828997E+02 0.  0.
          5    1    5    5  501    0 -0.53524564038E+02 -0.62239227202E+02  0.19353787752E+03  0.21027981452E+03  0.47000000000E+01 0. -1.
        -13    1    6    6    0    0 -0.36371482304E+02  0.36297938084E+02  0.70216560211E+02  0.87010288828E+02  0.00000000000E+00 0.  1.
         14    1    6    6    0    0 -0.12941261767E+03  0.35968380412E+02  0.44592933842E+03  0.46571914806E+03  0.00000000000E+00 0. -1.
         -5    1    3    3    0  503  0.89836021428E+01 -0.29833530950E+02  0.11054466355E+03  0.11494762858E+03  0.47000000000E+01 0.  1.
         13    1    4    4    0    0  0.46136898507E+02  0.10017221671E+02  0.93647478051E+02  0.10487520336E+03  0.00000000000E+00 0. -1.
        -14    1    4    4    0    0  0.16418816337E+03  0.97892179845E+01  0.98200542426E+02  0.19156442340E+03  0.00000000000E+00 0.  1.
<mgrwt>
<rscale>  2 0.27990700E+03</rscale>
<asrwt>0</asrwt>
<pdfrwt beam="1">  1       21 0.16819022E+00 0.28023571E+03</pdfrwt>
<pdfrwt beam="2">  1       21 0.12486158E-01 0.28023571E+03</pdfrwt>
<totfact> 0.11342145E+04</totfact>
</mgrwt>
</event>
<event>
12    1  0.1029207E-001  0.1783451E+03  0.7546771E-02  0.1169756E+00
         21   -1    0    0  503  502  0.00000000000E+00  0.00000000000E+00  0.13880085922E+03  0.13880085922E+03  0.00000000000E+00 0. -1.
         21   -1    0    0  501  503 -0.00000000000E+00 -0.00000000000E+00 -0.29547674516E+03  0.29547674516E+03  0.00000000000E+00 0. -1.
          6    2    1    2  501    0  0.40849523162E+01  0.37445359705E+02 -0.18234726496E+03  0.25409438435E+03  0.17290051857E+03 0.  0.
         24    2    3    3    0    0  0.27156383438E+02  0.80097393867E+02 -0.88937125682E+02  0.14874244525E+03  0.84032380840E+02 0.  0.
         -6    2    1    2    0  502 -0.40849523162E+01 -0.37445359705E+02  0.25671379017E+02  0.18018322003E+03  0.17432191854E+03 0.  0.
        -24    2    5    5    0    0  0.60200222586E+02 -0.65282396384E+01  0.36950724560E+02  0.10781081050E+03  0.81185775254E+02 0.  0.
          5    1    3    3  501    0 -0.23071431122E+02 -0.42652034162E+02 -0.93410139274E+02  0.10535193910E+03  0.47000000000E+01 0. -1.
        -13    1    4    4    0    0  0.35812989482E+00  0.54113235150E+02 -0.20234650719E+01  0.54152238055E+02  0.00000000000E+00 0.  1.
         14    1    4    4    0    0  0.26798253544E+02  0.25984158717E+02 -0.86913660610E+02  0.94590207199E+02  0.00000000000E+00 0. -1.
         -5    1    5    5    0  502 -0.64285174902E+02 -0.30917120067E+02 -0.11279345543E+02  0.72372409531E+02  0.47000000000E+01 0.  1.
         11    1    6    6    0    0  0.33776037523E+02 -0.38971513989E+02  0.40845695486E+02  0.65787312250E+02  0.00000000000E+00 0. -1.
        -12    1    6    6    0    0  0.26424185063E+02  0.32443274351E+02 -0.38949709268E+01  0.42023498252E+02  0.00000000000E+00 0.  1.
<mgrwt>
<rscale>  2 0.17799681E+03</rscale>
<asrwt>0</asrwt>
<pdfrwt beam="1">  1       21 0.21353978E-01 0.17834510E+03</pdfrwt>
<pdfrwt beam="2">  1       21 0.45457961E-01 0.17834510E+03</pdfrwt>
<totfact> 0.95279799E+04</totfact>
</mgrwt>
</event>
<event>
12    1  0.1029207E-001  0.1915074E+03  0.7546771E-02  0.1157822E+00
         21   -1    0    0  503  502  0.00000000000E+00  0.00000000000E+00  0.45125600076E+02  0.45125600076E+02  0.00000000000E+00 0.  1.
         21   -1    0    0  501  503 -0.00000000000E+00 -0.00000000000E+00 -0.97501262002E+03  0.97501262002E+03  0.00000000000E+00 0.  1.
          6    2    1    2  501    0 -0.40668988261E+02  0.69002674266E+02 -0.68462773053E+03  0.71090801314E+03  0.17395326407E+03 0.  0.
         24    2    3    3    0    0 -0.90804171137E+02  0.23061342767E+02 -0.44643817179E+03  0.46315713344E+03  0.80188939379E+02 0.  0.
         -6    2    1    2    0  502  0.40668988261E+02 -0.69002674266E+02 -0.24525928941E+03  0.30923020695E+03  0.17045781350E+03 0.  0.
        -24    2    5    5    0    0 -0.10275997715E+01  0.11278157886E+02 -0.56056971023E+02  0.99460750762E+02  0.81374468572E+02 0.  0.
          5    1    3    3  501    0  0.50135182877E+02  0.45941331499E+02 -0.23818955874E+03  0.24775087970E+03  0.47000000000E+01 0. -1.
        -13    1    4    4    0    0 -0.64597888110E+01  0.12275998468E+01 -0.22643815373E+03  0.22653360311E+03  0.00000000000E+00 0.  1.
         14    1    4    4    0    0 -0.84344382326E+02  0.21833742920E+02 -0.22000001807E+03  0.23662353034E+03  0.00000000000E+00 0. -1.
         -5    1    5    5    0  502  0.41696588032E+02 -0.80280832152E+02 -0.18920231839E+03  0.20976945619E+03  0.47000000000E+01 0.  1.
         11    1    6    6    0    0 -0.29225790737E+02 -0.21318893148E+02 -0.38759270576E+02  0.53018139395E+02  0.00000000000E+00 0. -1.
        -12    1    6    6    0    0  0.28198190966E+02  0.32597051035E+02 -0.17297700446E+02  0.46442611367E+02  0.00000000000E+00 0.  1.
<mgrwt>
<rscale>  2 0.19071006E+03</rscale>
<asrwt>0</asrwt>
<pdfrwt beam="1">  1       21 0.69424001E-02 0.19150737E+03</pdfrwt>
<pdfrwt beam="2">  1       21 0.15000194E+00 0.19150737E+03</pdfrwt>
<totfact> 0.45892939E+04</totfact>
</mgrwt>
</event>
<event>
12    1  0.1029207E-001  0.1760304E+03  0.7546771E-02  0.1171909E+00
         21   -1    0    0  501  502  0.00000000000E+00  0.00000000000E+00  0.17933107394E+03  0.17933107394E+03  0.00000000000E+00 0. -1.
         21   -1    0    0  502  503 -0.00000000000E+00 -0.00000000000E+00 -0.17514876950E+03  0.17514876950E+03  0.00000000000E+00 0. -1.
         -6    2    1    2    0  503  0.19128673565E+02 -0.24625177402E+02 -0.21771591879E+02  0.17737166751E+03  0.17324664703E+03 0.  0.
        -24    2    3    3    0    0 -0.19092075258E+02 -0.42013433506E+02  0.40652110462E+02  0.10199272015E+03  0.81365133481E+02 0.  0.
          6    2    1    2  501    0 -0.19128673565E+02  0.24625177402E+02  0.25953896321E+02  0.17710817593E+03  0.17239894354E+03 0.  0.
         24    2    5    5    0    0  0.95777609580E+01 -0.40563638312E+02  0.43417496682E+02  0.10361866366E+03  0.84348124946E+02 0.  0.
          5    1    5    5  501    0 -0.28706434523E+02  0.65188815714E+02 -0.17463600362E+02  0.73489512277E+02  0.47000000000E+01 0. -1.
        -11    1    6    6    0    0  0.44632641674E+02 -0.16913244537E+02  0.37953210698E+02  0.60980134027E+02  0.00000000000E+00 0.  1.
         12    1    6    6    0    0 -0.35054880716E+02 -0.23650393775E+02  0.54642859839E+01  0.42638529630E+02  0.00000000000E+00 0. -1.
         -5    1    3    3    0  503  0.38220748823E+02  0.17388256104E+02 -0.62423702341E+02  0.75378947358E+02  0.47000000000E+01 0.  1.
         11    1    4    4    0    0  0.36598865891E+01  0.23702694619E+02  0.96518714613E+01  0.25852874593E+02  0.00000000000E+00 0. -1.
        -12    1    4    4    0    0 -0.22751961847E+02 -0.65716128125E+02  0.31000239000E+02  0.76139845559E+02  0.00000000000E+00 0.  1.
<mgrwt>
<rscale>  2 0.17582148E+03</rscale>
<asrwt>0</asrwt>
<pdfrwt beam="1">  1       21 0.27589396E-01 0.17603041E+03</pdfrwt>
<pdfrwt beam="2">  1       21 0.26945964E-01 0.17603041E+03</pdfrwt>
<totfact> 0.16532165E+05</totfact>
</mgrwt>
</event>
<event>
12    1  0.1029207E-001  0.2338533E+03  0.7546771E-02  0.1124108E+00
         21   -1    0    0  501  502  0.00000000000E+00  0.00000000000E+00  0.33148100789E+03  0.33148100789E+03  0.00000000000E+00 0. -1.
         21   -1    0    0  502  503 -0.00000000000E+00 -0.00000000000E+00 -0.24660422337E+03  0.24660422337E+03  0.00000000000E+00 0. -1.
         -6    2    1    2    0  503 -0.78764093215E+02 -0.13619602012E+03 -0.12442917252E+03  0.26489616277E+03  0.17301508547E+03 0.  0.
        -24    2    3    3    0    0 -0.27427009574E+02 -0.15289359356E+03 -0.73841739779E+02  0.19076463461E+03  0.82521824266E+02 0.  0.
          6    2    1    2  501    0  0.78764093215E+02  0.13619602012E+03  0.20930595704E+03  0.31318906850E+03  0.17182919047E+03 0.  0.
         24    2    5    5    0    0  0.65717142329E+02  0.16565279135E+03  0.14735012143E+03  0.24319949881E+03  0.75328267308E+02 0.  0.
          5    1    5    5  501    0  0.13046950886E+02 -0.29456771234E+02  0.61955835611E+02  0.69989569689E+02  0.47000000000E+01 0. -1.
        -11    1    6    6    0    0 -0.11582396197E+02  0.13013811756E+02  0.33280030505E+02  0.37564233368E+02  0.00000000000E+00 0.  1.
         12    1    6    6    0    0  0.77299538526E+02  0.15263897960E+03  0.11407009093E+03  0.20563526544E+03  0.00000000000E+00 0. -1.
         -5    1    3    3    0  503 -0.51337083641E+02  0.16697573438E+02 -0.50587432741E+02  0.74131528157E+02  0.47000000000E+01 0.  1.
         11    1    4    4    0    0 -0.33564569629E+02 -0.25067777373E+02 -0.41060873320E+02  0.58659774246E+02  0.00000000000E+00 0. -1.
        -12    1    4    4    0    0  0.61375600555E+01 -0.12782581618E+03 -0.32780866459E+02  0.13210486037E+03  0.00000000000E+00 0.  1.
<mgrwt>
<rscale>  2 0.23363397E+03</rscale>
<asrwt>0</asrwt>
<pdfrwt beam="1">  1       21 0.50997078E-01 0.23385328E+03</pdfrwt>
<pdfrwt beam="2">  1       21 0.37939111E-01 0.23385328E+03</pdfrwt>
<totfact> 0.23955373E+04</totfact>
</mgrwt>
</event>
<event>
12    1  0.1029207E-001  0.2790100E+03  0.7546771E-02  0.1096273E+00
         21   -1    0    0  503  502  0.00000000000E+00  0.00000000000E+00  0.81879826600E+03  0.81879826600E+03  0.00000000000E+00 0.  1.
         21   -1    0    0  501  503 -0.00000000000E+00 -0.00000000000E+00 -0.95105600501E+02  0.95105600501E+02  0.00000000000E+00 0. -1.
          6    2    1    2  501    0  0.30203723114E+02 -0.21646149851E+03  0.34437451109E+03  0.44302292992E+03  0.17293833388E+03 0.  0.
         24    2    3    3    0    0  0.82090406987E+02 -0.11045373773E+03  0.18862447024E+03  0.24754904795E+03  0.82234282822E+02 0.  0.
         -6    2    1    2    0  502 -0.30203723114E+02  0.21646149851E+03  0.37931815441E+03  0.47088093658E+03  0.17343226037E+03 0.  0.
        -24    2    5    5    0    0 -0.63235842689E+02  0.21517515248E+03  0.36174429964E+03  0.43314890799E+03  0.80373628298E+02 0.  0.
          5    1    3    3  501    0 -0.51886683873E+02 -0.10600776079E+03  0.15575004084E+03  0.19547388197E+03  0.47000000000E+01 0. -1.
        -11    1    4    4    0    0  0.43395516446E+02 -0.37226315256E+02  0.14067014250E+03  0.15184550829E+03  0.00000000000E+00 0.  1.
         12    1    4    4    0    0  0.38694890541E+02 -0.73227422469E+02  0.47954327738E+02  0.95703539664E+02  0.00000000000E+00 0. -1.
         -5    1    5    5    0  502  0.33032119575E+02  0.12863460329E+01  0.17573854775E+02  0.37732028588E+02  0.47000000000E+01 0.  1.
         13    1    6    6    0    0  0.19195597515E+02  0.39790481301E+02  0.75476078403E+02  0.87455084342E+02  0.00000000000E+00 0. -1.
        -14    1    6    6    0    0 -0.82431440204E+02  0.17538467118E+03  0.28626822123E+03  0.34569382365E+03  0.00000000000E+00 0.  1.
<mgrwt>
<rscale>  2 0.27893330E+03</rscale>
<asrwt>0</asrwt>
<pdfrwt beam="1">  1       21 0.12596896E+00 0.27901003E+03</pdfrwt>
<pdfrwt beam="2">  1       21 0.14631631E-01 0.27901003E+03</pdfrwt>
<totfact> 0.18296908E+04</totfact>
</mgrwt>
</event>
<event>
12    1  0.1029207E-001  0.2541691E+03  0.7546771E-02  0.1110878E+00
         21   -1    0    0  501  502  0.00000000000E+00  0.00000000000E+00  0.24372397558E+03  0.24372397558E+03  0.00000000000E+00 0.  1.
         21   -1    0    0  502  503 -0.00000000000E+00 -0.00000000000E+00 -0.43217788104E+03  0.43217788104E+03  0.00000000000E+00 0.  1.
         -6    2    1    2    0  503 -0.80830347234E+02 -0.16564724141E+03 -0.30526858715E+03  0.39722897278E+03  0.17501255069E+03 0.  0.
        -24    2    3    3    0    0 -0.61517860079E+02 -0.11652472249E+03 -0.30764180787E+03  0.34418449897E+03  0.80355642762E+02 0.  0.
          6    2    1    2  501    0  0.80830347234E+02  0.16564724141E+03  0.11681468168E+03  0.27867288384E+03  0.17332152985E+03 0.  0.
         24    2    5    5    0    0  0.10473358231E+03  0.17835782629E+03  0.11479948680E+03  0.25112157488E+03  0.84276246586E+02 0.  0.
          5    1    5    5  501    0 -0.23903235076E+02 -0.12710584877E+02  0.20151948824E+01  0.27551308960E+02  0.47000000000E+01 0.  1.
        -13    1    6    6    0    0  0.11064822828E+03  0.14171268324E+03  0.11602890360E+03  0.21398182512E+03  0.00000000000E+00 0.  1.
         14    1    6    6    0    0 -0.59146459741E+01  0.36645143051E+02 -0.12294168002E+01  0.37139749755E+02  0.00000000000E+00 0. -1.
         -5    1    3    3    0  503 -0.19312487155E+02 -0.49122518926E+02  0.23732207215E+01  0.53044473816E+02  0.47000000000E+01 0.  1.
         13    1    4    4    0    0 -0.54940569147E+01  0.67897515916E+01 -0.70899406237E+02  0.71435363741E+02  0.00000000000E+00 0. -1.
        -14    1    4    4    0    0 -0.56023803164E+02 -0.12331447408E+03 -0.23674240163E+03  0.27274913523E+03  0.00000000000E+00 0.  1.
<mgrwt>
<rscale>  2 0.25387828E+03</rscale>
<asrwt>0</asrwt>
<pdfrwt beam="1">  1       21 0.37495996E-01 0.25416913E+03</pdfrwt>
<pdfrwt beam="2">  1       21 0.66488905E-01 0.25416913E+03</pdfrwt>
<totfact> 0.13728482E+04</totfact>
</mgrwt>
</event>
<event>
12    1  0.1029207E-001  0.2088803E+03  0.7546771E-02  0.1142871E+00
         21   -1    0    0  503  502  0.00000000000E+00  0.00000000000E+00  0.19495102832E+04  0.19495102832E+04  0.00000000000E+00 0. -1.
         21   -1    0    0  501  503 -0.00000000000E+00 -0.00000000000E+00 -0.30570766866E+02  0.30570766866E+02  0.00000000000E+00 0. -1.
          6    2    1    2  501    0  0.48028890182E+02  0.10545498138E+03  0.43667379393E+03  0.48317001129E+03  0.17129427929E+03 0.  0.
         24    2    3    3    0    0  0.66861433929E+02  0.56813280138E+02  0.40431892429E+03  0.42161022415E+03  0.81136849967E+02 0.  0.
         -6    2    1    2    0  502 -0.48028890182E+02 -0.10545498138E+03  0.14822657225E+04  0.14969110388E+04  0.17379142329E+03 0.  0.
        -24    2    5    5    0    0 -0.19778022945E+02 -0.64670578259E+02  0.13709953889E+04  0.13749903426E+04  0.79978947190E+02 0.  0.
          5    1    3    3  501    0 -0.18832543747E+02  0.48641701237E+02  0.32354869639E+02  0.61559787139E+02  0.47000000000E+01 0. -1.
        -11    1    4    4    0    0  0.52712679810E+01 -0.12672694739E+02  0.15424568343E+03  0.15485513978E+03  0.00000000000E+00 0.  1.
         12    1    4    4    0    0  0.61590165948E+02  0.69485974877E+02  0.25007324086E+03  0.26675508438E+03  0.00000000000E+00 0. -1.
         -5    1    5    5    0  502 -0.28250867237E+02 -0.40784403116E+02  0.11127033355E+03  0.12192069622E+03  0.47000000000E+01 0.  1.
         13    1    6    6    0    0 -0.44083525077E+02 -0.22209739801E+02  0.92572309057E+03  0.92703822475E+03  0.00000000000E+00 0. -1.
        -14    1    6    6    0    0  0.24305502131E+02 -0.42460838458E+02  0.44527229833E+03  0.44795211786E+03  0.00000000000E+00 0.  1.
<mgrwt>
<rscale>  2 0.20836012E+03</rscale>
<asrwt>0</asrwt>
<pdfrwt beam="1">  1       21 0.29992456E+00 0.20888032E+03</pdfrwt>
<pdfrwt beam="2">  1       21 0.47031964E-02 0.20888032E+03</pdfrwt>
<totfact> 0.10023666E+04</totfact>
</mgrwt>
</event>
<event>
12    1  0.1029207E-001  0.1752266E+03  0.7546771E-02  0.1174175E+00
         21   -1    0    0  503  502  0.00000000000E+00  0.00000000000E+00  0.46872628052E+02  0.46872628052E+02  0.00000000000E+00 0. -1.
         21   -1    0    0  501  503 -0.00000000000E+00 -0.00000000000E+00 -0.68102814573E+03  0.68102814573E+03  0.00000000000E+00 0. -1.
          6    2    1    2  501    0 -0.34230294114E+02 -0.10339029111E+02 -0.42141009391E+03  0.45638888165E+03  0.17153931177E+03 0.  0.
         24    2    3    3    0    0 -0.36128457040E+02  0.11130658681E+02 -0.99354884680E+02  0.13357903312E+03  0.80887625801E+02 0.  0.
         -6    2    1    2    0  502  0.34230294114E+02  0.10339029111E+02 -0.21274542377E+03  0.27151189213E+03  0.16486201406E+03 0.  0.
        -24    2    5    5    0    0  0.18388577899E+02  0.24713558173E+02 -0.36012113318E+02  0.93426687582E+02  0.80515674822E+02 0.  0.
          5    1    3    3  501    0  0.18981629258E+01 -0.21469687792E+02 -0.32205520923E+03  0.32280984853E+03  0.47000000000E+01 0. -1.
        -13    1    4    4    0    0  0.25297401948E+02  0.11145381192E+02 -0.26626977526E+02  0.38381948874E+02  0.00000000000E+00 0.  1.
         14    1    4    4    0    0 -0.61425858988E+02 -0.14722510642E-01 -0.72727907154E+02  0.95197084242E+02  0.00000000000E+00 0. -1.
         -5    1    5    5    0  502  0.15841716215E+02 -0.14374529062E+02 -0.17673331045E+03  0.17808520455E+03  0.47000000000E+01 0.  1.
         13    1    6    6    0    0  0.29058094018E+02 -0.23146026185E+02 -0.14459314184E+02  0.39864559734E+02  0.00000000000E+00 0. -1.
        -14    1    6    6    0    0 -0.10669516118E+02  0.47859584357E+02 -0.21552799135E+02  0.53562127848E+02  0.00000000000E+00 0.  1.
<mgrwt>
<rscale>  2 0.17357040E+03</rscale>
<asrwt>0</asrwt>
<pdfrwt beam="1">  1       21 0.72111736E-02 0.17522655E+03</pdfrwt>
<pdfrwt beam="2">  1       21 0.10477356E+00 0.17522655E+03</pdfrwt>
<totfact> 0.10628830E+05</totfact>
</mgrwt>
</event>
<event>
12    1  0.1029207E-001  0.2191420E+03  0.7546771E-02  0.1134611E+00
         21   -1    0    0  501  502  0.00000000000E+00  0.00000000000E+00  0.20322822423E+03  0.20322822423E+03  0.00000000000E+00 0. -1.
         21   -1    0    0  502  503 -0.00000000000E+00 -0.00000000000E+00 -0.32928913006E+03  0.32928913006E+03  0.00000000000E+00 0.  1.
         -6    2    1    2    0  503  0.11050531686E+03 -0.75326053727E+02 -0.20494621765E+03  0.30004363044E+03  0.17360238655E+03 0.  0.
        -24    2    3    3    0    0  0.55217556226E+01 -0.21198221930E+02 -0.26942246685E+02  0.86364258520E+02  0.79076204354E+02 0.  0.
          6    2    1    2  501    0 -0.11050531686E+03  0.75326053727E+02  0.78885311820E+02  0.23247372384E+03  0.17301936432E+03 0.  0.
         24    2    5    5    0    0 -0.11818034874E+03  0.10420024095E+03  0.91774839854E+02  0.19959736858E+03  0.81192384336E+02 0.  0.
          5    1    5    5  501    0  0.76750318725E+01 -0.28874187222E+02 -0.12889528034E+02  0.32876355256E+02  0.47000000000E+01 0. -1.
        -11    1    6    6    0    0 -0.18018671711E+02  0.53109056008E+01 -0.14084755622E+02  0.23478896684E+02  0.00000000000E+00 0.  1.
         12    1    6    6    0    0 -0.10016167703E+03  0.98889335347E+02  0.10585959548E+03  0.17611847190E+03  0.00000000000E+00 0. -1.
         -5    1    3    3    0  503  0.10498356124E+03 -0.54127831796E+02 -0.17800397097E+03  0.21367937192E+03  0.47000000000E+01 0.  1.
         11    1    4    4    0    0 -0.23816495216E+02  0.18538651575E+02 -0.20653936825E+02  0.36571739813E+02  0.00000000000E+00 0. -1.
        -12    1    4    4    0    0  0.29338250839E+02 -0.39736873505E+02 -0.62883098604E+01  0.49792518707E+02  0.00000000000E+00 0.  1.
<mgrwt>
<rscale>  2 0.21902654E+03</rscale>
<asrwt>0</asrwt>
<pdfrwt beam="1">  1       21 0.31265881E-01 0.21914203E+03</pdfrwt>
<pdfrwt beam="2">  1       21 0.50659866E-01 0.21914203E+03</pdfrwt>
<totfact> 0.35951020E+04</totfact>
</mgrwt>
</event>
<event>
12    1  0.1029207E-001  0.2529072E+03  0.7546771E-02  0.1111531E+00
         21   -1    0    0  501  502  0.00000000000E+00  0.00000000000E+00  0.51466778634E+03  0.51466778634E+03  0.00000000000E+00 0.  1.
         21   -1    0    0  502  503 -0.00000000000E+00 -0.00000000000E+00 -0.14496203791E+03  0.14496203791E+03  0.00000000000E+00 0.  1.
         -6    2    1    2    0  503 -0.11510633849E+03 -0.14516620798E+03  0.31001058581E+03  0.40008573387E+03  0.17216077961E+03 0.  0.
        -24    2    3    3    0    0 -0.97507442225E+02 -0.17579496852E+03  0.28240985222E+03  0.35501098910E+03  0.76589199646E+02 0.  0.
          6    2    1    2  501    0  0.11510633849E+03  0.14516620798E+03  0.59695162623E+02  0.25954409038E+03  0.17168845422E+03 0.  0.
         24    2    5    5    0    0  0.79477236366E+02  0.15382922358E+03  0.89976374717E+02  0.21175787308E+03  0.82253192499E+02 0.  0.
          5    1    5    5  501    0  0.35629102128E+02 -0.86630156067E+01 -0.30281212094E+02  0.47786217299E+02  0.47000000000E+01 0. -1.
        -13    1    6    6    0    0  0.17591564326E+01  0.36147780426E+02 -0.11546816218E+02  0.37987966856E+02  0.00000000000E+00 0.  1.
         14    1    6    6    0    0  0.77718079934E+02  0.11768144316E+03  0.10152319094E+03  0.17376990623E+03  0.00000000000E+00 0. -1.
         -5    1    3    3    0  503 -0.17598896269E+02  0.30628760538E+02  0.27600733583E+02  0.45074744772E+02  0.47000000000E+01 0.  1.
         11    1    4    4    0    0 -0.35779990673E+02 -0.13658381756E+02  0.78057727286E+02  0.86946925845E+02  0.00000000000E+00 0. -1.
        -12    1    4    4    0    0 -0.61727451553E+02 -0.16213658676E+03  0.20435212494E+03  0.26806406325E+03  0.00000000000E+00 0.  1.
<mgrwt>
<rscale>  2 0.25282680E+03</rscale>
<asrwt>0</asrwt>
<pdfrwt beam="1">  1       21 0.79179658E-01 0.25290716E+03</pdfrwt>
<pdfrwt beam="2">  1       21 0.22301852E-01 0.25290716E+03</pdfrwt>
<totfact> 0.25663766E+04</totfact>
</mgrwt>
</event>
<event>
12    1  0.1029207E-001  0.1951269E+03  0.7546771E-02  0.1154265E+00
         21   -1    0    0  501  502  0.00000000000E+00  0.00000000000E+00  0.13038902746E+03  0.13038902746E+03  0.00000000000E+00 0. -1.
         21   -1    0    0  502  503 -0.00000000000E+00 -0.00000000000E+00 -0.31339667437E+03  0.31339667437E+03  0.00000000000E+00 0.  1.
         -6    2    1    2    0  503  0.18841059025E+02 -0.85681265696E+02 -0.15226626579E+03  0.24625201446E+03  0.17250731616E+03 0.  0.
        -24    2    3    3    0    0  0.74841355405E+02 -0.34982653321E+02 -0.10808139036E+03  0.15861197961E+03  0.81554635805E+02 0.  0.
          6    2    1    2  501    0 -0.18841059025E+02  0.85681265696E+02 -0.30741381113E+02  0.19753368737E+03  0.17429360384E+03 0.  0.
         24    2    5    5    0    0 -0.55702936195E+02  0.44366178639E+02  0.32733616616E+02  0.11317196772E+03  0.81640858104E+02 0.  0.
          5    1    5    5  501    0  0.36861877170E+02  0.41315087056E+02 -0.63474997729E+02  0.84361719658E+02  0.47000000000E+01 0. -1.
        -11    1    6    6    0    0 -0.31891810618E+02 -0.15289812572E+01 -0.21303632072E+02  0.38383200852E+02  0.00000000000E+00 0.  1.
         12    1    6    6    0    0 -0.23811125577E+02  0.45895159897E+02  0.54037248688E+02  0.74788766863E+02  0.00000000000E+00 0. -1.
         -5    1    3    3    0  503 -0.56000296380E+02 -0.50698612375E+02 -0.44184875434E+02  0.87640034850E+02  0.47000000000E+01 0.  1.
         13    1    4    4    0    0  0.35089921756E+02  0.56199903014E+01  0.10730123181E+01  0.35553315672E+02  0.00000000000E+00 0. -1.
        -14    1    4    4    0    0  0.39751433649E+02 -0.40602643622E+02 -0.10915440268E+03  0.12305866394E+03  0.00000000000E+00 0.  1.
<mgrwt>
<rscale>  2 0.19472724E+03</rscale>
<asrwt>0</asrwt>
<pdfrwt beam="1">  1       21 0.20059851E-01 0.19512695E+03</pdfrwt>
<pdfrwt beam="2">  1       21 0.48214872E-01 0.19512695E+03</pdfrwt>
<totfact> 0.94244177E+04</totfact>
</mgrwt>
</event>
<event>
12    1  0.1029207E-001  0.2065390E+03  0.7546771E-02  0.1145831E+00
         21   -1    0    0  503  502  0.00000000000E+00  0.00000000000E+00  0.23643666596E+04  0.23643666596E+04  0.00000000000E+00 0. -1.
         21   -1    0    0  501  503 -0.00000000000E+00 -0.00000000000E+00 -0.17900566841E+02  0.17900566841E+02  0.00000000000E+00 0.  1.
          6    2    1    2  501    0  0.11169065066E+03 -0.14806409261E+02  0.99738975999E+03  0.10185502820E+04  0.17310202891E+03 0.  0.
         24    2    3    3    0    0  0.25625407836E+02  0.35597258533E+02  0.66875085649E+03  0.67507775813E+03  0.81107614516E+02 0.  0.
         -6    2    1    2    0  502 -0.11169065066E+03  0.14806409261E+02  0.13490763327E+04  0.13637169444E+04  0.16438650109E+03 0.  0.
        -24    2    5    5    0    0 -0.13636376167E+03  0.90073078280E+01  0.89488028325E+03  0.90878999055E+03  0.80076953510E+02 0.  0.
          5    1    3    3  501    0  0.86065242825E+02 -0.50403667794E+02  0.32863890350E+03  0.34347252385E+03  0.47000000000E+01 0. -1.
        -13    1    4    4    0    0  0.20042781202E+02  0.41767674669E+02  0.66375994724E+03  0.66537472095E+03  0.00000000000E+00 0.  1.
         14    1    4    4    0    0  0.55826266332E+01 -0.61704161364E+01  0.49909092518E+01  0.97030371833E+01  0.00000000000E+00 0. -1.
         -5    1    5    5    0  502  0.24673111014E+02  0.57991014332E+01  0.45419604949E+03  0.45492695387E+03  0.47000000000E+01 0.  1.
         13    1    6    6    0    0 -0.65120072647E+02  0.44425872176E+02  0.44402598310E+03  0.45096935111E+03  0.00000000000E+00 0. -1.
        -14    1    6    6    0    0 -0.71243689028E+02 -0.35418564348E+02  0.45085430016E+03  0.45782063944E+03  0.00000000000E+00 0.  1.
<mgrwt>
<rscale>  2 0.20470266E+03</rscale>
<asrwt>0</asrwt>
<pdfrwt beam="1">  1       21 0.36374847E+00 0.20653896E+03</pdfrwt>
<pdfrwt beam="2">  1       21 0.27539352E-02 0.20653896E+03</pdfrwt>
<totfact> 0.10389632E+04</totfact>
</mgrwt>
</event>
<event>
12    1  0.1029207E-001  0.2020790E+03  0.7546771E-02  0.1148202E+00
         21   -1    0    0  501  502  0.00000000000E+00  0.00000000000E+00  0.12740027168E+04  0.12740027168E+04  0.00000000000E+00 0. -1.
         21   -1    0    0  502  503 -0.00000000000E+00 -0.00000000000E+00 -0.40264693050E+02  0.40264693050E+02  0.00000000000E+00 0.  1.
         -6    2    1    2    0  503  0.58710117272E+02 -0.87360409713E+02  0.31850187064E+03  0.37719939042E+03  0.17250281007E+03 0.  0.
        -24    2    3    3    0    0  0.79477637308E+02 -0.18129355844E+02  0.12149178445E+03  0.16729633478E+03  0.81132247395E+02 0.  0.
          6    2    1    2  501    0 -0.58710117272E+02  0.87360409713E+02  0.91523615313E+03  0.93706801945E+03  0.17134916986E+03 0.  0.
         24    2    5    5    0    0 -0.20804584064E+02  0.67415539855E+01  0.21010266859E+03  0.22631380710E+03  0.81219016654E+02 0.  0.
          5    1    5    5  501    0 -0.37905533208E+02  0.80618855728E+02  0.70513348454E+03  0.71075421234E+03  0.47000000000E+01 0. -1.
        -11    1    6    6    0    0  0.24528036262E+02  0.11446487079E+02  0.29444226198E+02  0.39995113273E+02  0.00000000000E+00 0.  1.
         12    1    6    6    0    0 -0.45332620326E+02 -0.47049330939E+01  0.18065844240E+03  0.18631869383E+03  0.00000000000E+00 0. -1.
         -5    1    3    3    0  503 -0.20767520037E+02 -0.69231053869E+02  0.19701008619E+03  0.20990305564E+03  0.47000000000E+01 0.  1.
         11    1    4    4    0    0  0.79645235522E+02 -0.30701158479E+02  0.12744208224E+03  0.15338646942E+03  0.00000000000E+00 0. -1.
        -12    1    4    4    0    0 -0.16759821365E+00  0.12571802635E+02 -0.59502977947E+01  0.13909865366E+02  0.00000000000E+00 0.  1.
<mgrwt>
<rscale>  2 0.20183262E+03</rscale>
<asrwt>0</asrwt>
<pdfrwt beam="1">  1       21 0.19600039E+00 0.20207904E+03</pdfrwt>
<pdfrwt beam="2">  1       21 0.61945691E-02 0.20207904E+03</pdfrwt>
<totfact> 0.26421920E+04</totfact>
</mgrwt>
</event>
<event>
12    1  0.1029207E-001  0.1955698E+03  0.7546771E-02  0.1153881E+00
         21   -1    0    0  503  502  0.00000000000E+00  0.00000000000E+00  0.18973869038E+03  0.18973869038E+03  0.00000000000E+00 0. -1.
         21   -1    0    0  501  503 -0.00000000000E+00 -0.00000000000E+00 -0.21902620849E+03  0.21902620849E+03  0.00000000000E+00 0. -1.
          6    2    1    2  501    0  0.80477828624E+02 -0.40051049994E+02  0.45645477853E+02  0.20082588917E+03  0.17368581003E+03 0.  0.
         24    2    3    3    0    0  0.55386207423E+01 -0.22363595588E+02 -0.32854613948E+02  0.90766426448E+02  0.81414444573E+02 0.  0.
         -6    2    1    2    0  502 -0.80477828624E+02  0.40051049994E+02 -0.74932995964E+02  0.20793900971E+03  0.17188051189E+03 0.  0.
        -24    2    5    5    0    0 -0.45776102510E+00  0.64956421303E+02 -0.66850568489E+02  0.12361283125E+03  0.81188591131E+02 0.  0.
          5    1    3    3  501    0  0.74939207882E+02 -0.17687454405E+02  0.78500091802E+02  0.11005946272E+03  0.47000000000E+01 0. -1.
        -11    1    4    4    0    0  0.40277080476E+02  0.30994663309E+01 -0.84803555418E+01  0.41276704487E+02  0.00000000000E+00 0.  1.
         12    1    4    4    0    0 -0.34738459734E+02 -0.25463061919E+02 -0.24374258406E+02  0.49489721961E+02  0.00000000000E+00 0. -1.
         -5    1    5    5    0  502 -0.80020067599E+02 -0.24905371309E+02 -0.80824274752E+01  0.84326178453E+02  0.47000000000E+01 0.  1.
         13    1    6    6    0    0 -0.20989377651E+02  0.55945429724E+02 -0.78253079833E+02  0.98458060028E+02  0.00000000000E+00 0. -1.
        -14    1    6    6    0    0  0.20531616626E+02  0.90109915794E+01  0.11402511344E+02  0.25154771227E+02  0.00000000000E+00 0.  1.
<mgrwt>
<rscale>  2 0.19516814E+03</rscale>
<asrwt>0</asrwt>
<pdfrwt beam="1">  1       21 0.29190568E-01 0.19556975E+03</pdfrwt>
<pdfrwt beam="2">  1       21 0.33696340E-01 0.19556975E+03</pdfrwt>
<totfact> 0.95236941E+04</totfact>
</mgrwt>
</event>
<event>
12    1  0.1029207E-001  0.2076537E+03  0.7546771E-02  0.1143522E+00
         21   -1    0    0  503  502  0.00000000000E+00  0.00000000000E+00  0.13826152080E+03  0.13826152080E+03  0.00000000000E+00 0.  1.
         21   -1    0    0  501  503 -0.00000000000E+00 -0.00000000000E+00 -0.87833303222E+03  0.87833303222E+03  0.00000000000E+00 0.  1.
          6    2    1    2  501    0  0.11457336704E+03  0.22078055560E+01 -0.77832948346E+03  0.80544594687E+03  0.17266863544E+03 0.  0.
         24    2    3    3    0    0  0.13937867081E+03 -0.29881471960E+02 -0.67051245166E+03  0.69015662744E+03  0.80061890629E+02 0.  0.
         -6    2    1    2    0  502 -0.11457336704E+03 -0.22078055560E+01  0.38257972037E+02  0.21114860615E+03  0.17317081341E+03 0.  0.
        -24    2    5    5    0    0 -0.65248663930E+02 -0.87914686886E+01  0.91643732349E+02  0.13801584769E+03  0.79467744823E+02 0.  0.
          5    1    3    3  501    0 -0.24805303778E+02  0.32089277516E+02 -0.10781703180E+03  0.11528931943E+03  0.47000000000E+01 0. -1.
        -13    1    4    4    0    0  0.73511577669E+02  0.16383531985E+02 -0.22064544498E+03  0.23314541506E+03  0.00000000000E+00 0.  1.
         14    1    4    4    0    0  0.65867093144E+02 -0.46265003945E+02 -0.44986700668E+03  0.45701121239E+03  0.00000000000E+00 0. -1.
         -5    1    5    5    0  502 -0.49324703105E+02  0.65836631325E+01 -0.53385760312E+02  0.73132758465E+02  0.47000000000E+01 0.  1.
         11    1    6    6    0    0 -0.19817645533E+02  0.34782660921E+02  0.40017188905E+02  0.56603427309E+02  0.00000000000E+00 0. -1.
        -12    1    6    6    0    0 -0.45431018397E+02 -0.43574129609E+02  0.51626543443E+02  0.81412420377E+02  0.00000000000E+00 0.  1.
<mgrwt>
<rscale>  2 0.20754898E+03</rscale>
<asrwt>0</asrwt>
<pdfrwt beam="1">  1       21 0.21271003E-01 0.20765371E+03</pdfrwt>
<pdfrwt beam="2">  1       21 0.13512816E+00 0.20765371E+03</pdfrwt>
<totfact> 0.79688370E+03</totfact>
</mgrwt>
</event>
<event>
12    1  0.1029207E-001  0.1786163E+03  0.7546771E-02  0.1169598E+00
         21   -1    0    0  503  502  0.00000000000E+00  0.00000000000E+00  0.32449753834E+03  0.32449753834E+03  0.00000000000E+00 0.  1.
         21   -1    0    0  501  503 -0.00000000000E+00 -0.00000000000E+00 -0.13216322715E+03  0.13216322715E+03  0.00000000000E+00 0.  1.
          6    2    1    2  501    0  0.30682209735E+02  0.59720107439E+01 -0.20715853840E+02  0.17981361340E+03  0.17585996150E+03 0.  0.
         24    2    3    3    0    0 -0.38553833955E+02  0.27666523363E+02 -0.44167425899E+02  0.10341761969E+03  0.80576720727E+02 0.  0.
         -6    2    1    2    0  502 -0.30682209735E+02 -0.59720107439E+01  0.21305016503E+03  0.27684715208E+03  0.17400261461E+03 0.  0.
        -24    2    5    5    0    0  0.20258457282E+02  0.44273575963E+02  0.16438366433E+03  0.19018638339E+03  0.82330533266E+02 0.  0.
          5    1    3    3  501    0  0.69236043690E+02 -0.21694512619E+02  0.23451572059E+02  0.76395993715E+02  0.47000000000E+01 0. -1.
        -13    1    4    4    0    0  0.30415734100E+01  0.31064514508E+02 -0.52292962155E+02  0.60899992786E+02  0.00000000000E+00 0.  1.
         14    1    4    4    0    0 -0.41595407365E+02 -0.33979911443E+01  0.81255362561E+01  0.42517626899E+02  0.00000000000E+00 0. -1.
         -5    1    5    5    0  502 -0.50940667017E+02 -0.50245586707E+02  0.48666500696E+02  0.86660768689E+02  0.47000000000E+01 0.  1.
         13    1    6    6    0    0  0.33606970010E+02 -0.16443330803E+01  0.22540038136E+02  0.40499204730E+02  0.00000000000E+00 0. -1.
        -14    1    6    6    0    0 -0.13348512728E+02  0.45917909043E+02  0.14184362620E+03  0.14968717866E+03  0.00000000000E+00 0.  1.
<mgrwt>
<rscale>  2 0.17815746E+03</rscale>
<asrwt>0</asrwt>
<pdfrwt beam="1">  1       21 0.49922698E-01 0.17861632E+03</pdfrwt>
<pdfrwt beam="2">  1       21 0.20332804E-01 0.17861632E+03</pdfrwt>
<totfact> 0.86041284E+04</totfact>
</mgrwt>
</event>
<event>
12    1  0.1029207E-001  0.2133185E+03  0.7546771E-02  0.1139394E+00
         21   -1    0    0  503  502  0.00000000000E+00  0.00000000000E+00  0.11059167101E+03  0.11059167101E+03  0.00000000000E+00 0.  1.
         21   -1    0    0  501  503 -0.00000000000E+00 -0.00000000000E+00 -0.43893152835E+03  0.43893152835E+03  0.00000000000E+00 0.  1.
          6    2    1    2  501    0 -0.12438311098E+03 -0.21349843075E+02 -0.23721925907E+03  0.31755826618E+03  0.16924332026E+03 0.  0.
         24    2    3    3    0    0  0.13173724323E+00 -0.22563108115E+02 -0.11741713216E+03  0.14469977188E+03  0.81499262911E+02 0.  0.
         -6    2    1    2    0  502  0.12438311098E+03  0.21349843075E+02 -0.91120598275E+02  0.23196493318E+03  0.17198195457E+03 0.  0.
        -24    2    5    5    0    0  0.91972915338E+02  0.89291052848E+01  0.11469692728E+02  0.12356035156E+03  0.81221059762E+02 0.  0.
          5    1    3    3  501    0 -0.12451484823E+03  0.12132650402E+01 -0.11980212691E+03  0.17285849430E+03  0.47000000000E+01 0. -1.
        -13    1    4    4    0    0  0.73353263715E+01 -0.10375102999E+02 -0.12698058382E+03  0.12761472659E+03  0.00000000000E+00 0.  1.
         14    1    4    4    0    0 -0.72035891283E+01 -0.12188005116E+02  0.95634516582E+01  0.17085045293E+02  0.00000000000E+00 0. -1.
         -5    1    5    5    0  502  0.32410195644E+02  0.12420737790E+02 -0.10259029100E+03  0.10840458162E+03  0.47000000000E+01 0.  1.
         13    1    6    6    0    0  0.44306798586E+02  0.15201329262E+02 -0.33611637064E+02  0.57653403702E+02  0.00000000000E+00 0. -1.
        -14    1    6    6    0    0  0.47666116752E+02 -0.62722239773E+01  0.45081329793E+02  0.65906947856E+02  0.00000000000E+00 0.  1.
<mgrwt>
<rscale>  2 0.21276589E+03</rscale>
<asrwt>0</asrwt>
<pdfrwt beam="1">  1       21 0.17014103E-01 0.21331846E+03</pdfrwt>
<pdfrwt beam="2">  1       21 0.67527927E-01 0.21331846E+03</pdfrwt>
<totfact> 0.61870289E+04</totfact>
</mgrwt>
</event>
<event>
12    1  0.1029207E-001  0.1871697E+03  0.7546771E-02  0.1161157E+00
         21   -1    0    0  503  502  0.00000000000E+00  0.00000000000E+00  0.25077124538E+03  0.25077124538E+03  0.00000000000E+00 0. -1.
         21   -1    0    0  501  503 -0.00000000000E+00 -0.00000000000E+00 -0.20022758482E+03  0.20022758482E+03  0.00000000000E+00 0. -1.
          6    2    1    2  501    0 -0.36173909309E+02 -0.62179732945E+02 -0.99127636714E+02  0.21134493893E+03  0.17223682518E+03 0.  0.
         24    2    3    3    0    0  0.39824311599E+02 -0.59175117816E+02 -0.34948093517E+02  0.11171632328E+03  0.78558877811E+02 0.  0.
         -6    2    1    2    0  502  0.36173909309E+02  0.62179732945E+02  0.14967129727E+03  0.23965389126E+03  0.17279357472E+03 0.  0.
        -24    2    5    5    0    0  0.46993597228E+02 -0.26657357189E+02  0.57188999978E+02  0.11087439156E+03  0.78125131119E+02 0.  0.
          5    1    3    3  501    0 -0.75998220907E+02 -0.30046151293E+01 -0.64179543198E+02  0.99628615659E+02  0.47000000000E+01 0. -1.
        -13    1    4    4    0    0  0.18360300784E+02 -0.72103161686E+01  0.23456253463E+02  0.30647758982E+02  0.00000000000E+00 0.  1.
         14    1    4    4    0    0  0.21464010815E+02 -0.51964801647E+02 -0.58404346979E+02  0.81068564293E+02  0.00000000000E+00 0. -1.
         -5    1    5    5    0  502 -0.10819687920E+02  0.88837090134E+02  0.92482297294E+02  0.12877949970E+03  0.47000000000E+01 0.  1.
         11    1    6    6    0    0  0.50644282943E+02  0.64076686010E+00  0.64852696807E+02  0.82286853507E+02  0.00000000000E+00 0. -1.
        -12    1    6    6    0    0 -0.36506857148E+01 -0.27298124049E+02 -0.76636968287E+01  0.28587538052E+02  0.00000000000E+00 0.  1.
<mgrwt>
<rscale>  2 0.18704108E+03</rscale>
<asrwt>0</asrwt>
<pdfrwt beam="1">  1       21 0.38580192E-01 0.18716968E+03</pdfrwt>
<pdfrwt beam="2">  1       21 0.30804244E-01 0.18716968E+03</pdfrwt>
<totfact> 0.65716845E+04</totfact>
</mgrwt>
</event>
<event>
12    1  0.1029207E-001  0.2375896E+03  0.7546771E-02  0.1121412E+00
         21   -1    0    0  503  502  0.00000000000E+00  0.00000000000E+00  0.38339918106E+03  0.38339918106E+03  0.00000000000E+00 0.  1.
         21   -1    0    0  501  503 -0.00000000000E+00 -0.00000000000E+00 -0.53148330292E+03  0.53148330292E+03  0.00000000000E+00 0.  1.
          6    2    1    2  501    0  0.13871970353E+03  0.87234004714E+02 -0.46300104701E+03  0.52039356665E+03  0.17200746191E+03 0.  0.
         24    2    3    3    0    0  0.82699397465E+02  0.11338862955E+03 -0.31541991967E+03  0.36031665314E+03  0.10316100598E+03 0.  0.
         -6    2    1    2    0  502 -0.13871970353E+03 -0.87234004714E+02  0.31491692514E+03  0.39448891733E+03  0.17203461404E+03 0.  0.
        -24    2    5    5    0    0 -0.11512178905E+03 -0.20901211181E+02  0.13504153159E+03  0.20126845187E+03  0.92643874716E+02 0.  0.
          5    1    3    3  501    0  0.56020306061E+02 -0.26154624836E+02 -0.14758112734E+03  0.16007691351E+03  0.47000000000E+01 0. -1.
        -11    1    4    4    0    0  0.78070281018E+02  0.47445855939E+02 -0.25458083235E+03  0.27047639125E+03  0.00000000000E+00 0.  1.
         12    1    4    4    0    0  0.46291164473E+01  0.65942773611E+02 -0.60839087319E+02  0.89840261890E+02  0.00000000000E+00 0. -1.
         -5    1    5    5    0  502 -0.23597914480E+02 -0.66332793533E+02  0.17987539355E+03  0.19322046546E+03  0.47000000000E+01 0.  1.
         13    1    6    6    0    0 -0.14345184063E+01  0.12910312439E+02  0.58918075394E+02  0.60333022620E+02  0.00000000000E+00 0. -1.
        -14    1    6    6    0    0 -0.11368727064E+03 -0.33811523620E+02  0.76123456196E+02  0.14093542925E+03  0.00000000000E+00 0.  1.
<mgrwt>
<rscale>  2 0.23758472E+03</rscale>
<asrwt>0</asrwt>
<pdfrwt beam="1">  1       21 0.58984489E-01 0.23758964E+03</pdfrwt>
<pdfrwt beam="2">  1       21 0.81766662E-01 0.23758964E+03</pdfrwt>
<totfact> 0.33984142E+03</totfact>
</mgrwt>
</event>
<event>
12    1  0.1029207E-001  0.1737505E+03  0.7546771E-02  0.1174124E+00
         21   -1    0    0  503  502  0.00000000000E+00  0.00000000000E+00  0.10063010856E+04  0.10063010856E+04  0.00000000000E+00 0. -1.
         21   -1    0    0  501  503 -0.00000000000E+00 -0.00000000000E+00 -0.99053614926E+02  0.99053614926E+02  0.00000000000E+00 0. -1.
          6    2    1    2  501    0  0.15173970712E+01  0.97150490078E+01 -0.79252389974E+01  0.17393110661E+03  0.17347200282E+03 0.  0.
         24    2    3    3    0    0  0.22830154188E+02  0.14224218151E+01 -0.70592826785E+02  0.10705571622E+03  0.77164369737E+02 0.  0.
         -6    2    1    2    0  502 -0.15173970712E+01 -0.97150490078E+01  0.91517270963E+03  0.93142359387E+03  0.17295125931E+03 0.  0.
        -24    2    5    5    0    0 -0.37342849695E+02 -0.15762658938E+02  0.86303376661E+03  0.86770078775E+03  0.80214867091E+02 0.  0.
          5    1    3    3  501    0 -0.21312757117E+02  0.82926271927E+01  0.62667587788E+02  0.66875390397E+02  0.47000000000E+01 0. -1.
        -11    1    4    4    0    0  0.47345044805E+02  0.14668767749E+02 -0.30389354576E+02  0.58139821864E+02  0.00000000000E+00 0.  1.
         12    1    4    4    0    0 -0.24514890617E+02 -0.13246345934E+02 -0.40203472209E+02  0.48915894352E+02  0.00000000000E+00 0. -1.
         -5    1    5    5    0  502  0.35825452623E+02  0.60476099300E+01  0.52138943019E+02  0.63722806127E+02  0.47000000000E+01 0.  1.
         13    1    6    6    0    0  0.98259526982E+01 -0.34348616399E+02  0.47976789883E+03  0.48109626224E+03  0.00000000000E+00 0. -1.
        -14    1    6    6    0    0 -0.47168802393E+02  0.18585957461E+02  0.38326586778E+03  0.38660452551E+03  0.00000000000E+00 0.  1.
<mgrwt>
<rscale>  2 0.17362033E+03</rscale>
<asrwt>0</asrwt>
<pdfrwt beam="1">  1       21 0.15481554E+00 0.17375045E+03</pdfrwt>
<pdfrwt beam="2">  1       21 0.15239018E-01 0.17375045E+03</pdfrwt>
<totfact> 0.10634698E+04</totfact>
</mgrwt>
</event>
<event>
12    1  0.1029207E-001  0.2635445E+03  0.7546771E-02  0.1105124E+00
         21   -1    0    0  503  502  0.00000000000E+00  0.00000000000E+00  0.37054274015E+03  0.37054274015E+03  0.00000000000E+00 0.  1.
         21   -1    0    0  501  503 -0.00000000000E+00 -0.00000000000E+00 -0.19281247400E+03  0.19281247400E+03  0.00000000000E+00 0. -1.
          6    2    1    2  501    0 -0.19258929958E+03  0.46651576463E+02  0.13787795526E+03  0.29743244078E+03  0.17374900973E+03 0.  0.
         24    2    3    3    0    0 -0.11622812900E+03  0.25275644938E+02  0.21409528810E+02  0.15645392050E+03  0.99356052245E+02 0.  0.
         -6    2    1    2    0  502  0.19258929958E+03 -0.46651576463E+02  0.39852310880E+02  0.26592277337E+03  0.17279961462E+03 0.  0.
        -24    2    5    5    0    0  0.13193070486E+03 -0.87968668239E+02 -0.94986019952E+01  0.17735545553E+03  0.78870379051E+02 0.  0.
          5    1    3    3  501    0 -0.76361170581E+02  0.21375931524E+02  0.11646842645E+03  0.14097852028E+03  0.47000000000E+01 0. -1.
        -13    1    4    4    0    0 -0.67796018366E+02 -0.33333072271E+02  0.26977867024E+02  0.80219692859E+02  0.00000000000E+00 0.  1.
         14    1    4    4    0    0 -0.48432110634E+02  0.58608717209E+02 -0.55683382130E+01  0.76234227640E+02  0.00000000000E+00 0. -1.
         -5    1    5    5    0  502  0.60658594723E+02  0.41317091776E+02  0.49350912876E+02  0.88567317834E+02  0.47000000000E+01 0.  1.
         11    1    6    6    0    0  0.14636403021E+02 -0.11402389448E+02 -0.30517129283E+02  0.35714618270E+02  0.00000000000E+00 0. -1.
        -12    1    6    6    0    0  0.11729430184E+03 -0.76566278792E+02  0.21018527288E+02  0.14164083726E+03  0.00000000000E+00 0.  1.
<mgrwt>
<rscale>  2 0.26338817E+03</rscale>
<asrwt>0</asrwt>
<pdfrwt beam="1">  1       21 0.57006575E-01 0.26354454E+03</pdfrwt>
<pdfrwt beam="2">  1       21 0.29663458E-01 0.26354454E+03</pdfrwt>
<totfact> 0.30423214E+04</totfact>
</mgrwt>
</event>
<event>
12    1  0.1029207E-001  0.2539529E+03  0.7546771E-02  0.1110852E+00
         21   -1    0    0  503  502  0.00000000000E+00  0.00000000000E+00  0.53502511715E+03  0.53502511715E+03  0.00000000000E+00 0. -1.
         21   -1    0    0  501  503 -0.00000000000E+00 -0.00000000000E+00 -0.40372494382E+03  0.40372494382E+03  0.00000000000E+00 0.  1.
          6    2    1    2  501    0 -0.15946409773E+03  0.95537925821E+02 -0.32749586555E+03  0.41442201525E+03  0.17301956838E+03 0.  0.
         24    2    3    3    0    0 -0.92286867704E+02  0.27079037565E+02 -0.28232165060E+03  0.30829850555E+03  0.78053276075E+02 0.  0.
         -6    2    1    2    0  502  0.15946409773E+03 -0.95537925821E+02  0.45879603888E+03  0.52432804572E+03  0.17282881851E+03 0.  0.
        -24    2    5    5    0    0  0.12569396844E+03 -0.13385772070E+03  0.40853925358E+03  0.45251813847E+03  0.64431986100E+02 0.  0.
          5    1    3    3  501    0 -0.67177230021E+02  0.68458888256E+02 -0.45174214953E+02  0.10612350970E+03  0.47000000000E+01 0. -1.
        -13    1    4    4    0    0 -0.63686041455E+02  0.36143903764E+02 -0.10238052649E+03  0.12587321343E+03  0.00000000000E+00 0.  1.
         14    1    4    4    0    0 -0.28600826248E+02 -0.90648661994E+01 -0.17994112410E+03  0.18242529212E+03  0.00000000000E+00 0. -1.
         -5    1    5    5    0  502  0.33770129283E+02  0.38319794882E+02  0.50256785300E+02  0.71809907257E+02  0.47000000000E+01 0.  1.
         13    1    6    6    0    0  0.85669620181E+02 -0.72047335076E+02  0.30937384911E+03  0.32900194654E+03  0.00000000000E+00 0. -1.
        -14    1    6    6    0    0  0.40024348261E+02 -0.61810385626E+02  0.99165404471E+02  0.12351619193E+03  0.00000000000E+00 0.  1.
<mgrwt>
<rscale>  2 0.25392039E+03</rscale>
<asrwt>0</asrwt>
<pdfrwt beam="1">  1       21 0.82311557E-01 0.25395288E+03</pdfrwt>
<pdfrwt beam="2">  1       21 0.62111530E-01 0.25395288E+03</pdfrwt>
<totfact> 0.29604526E+03</totfact>
</mgrwt>
</event>
<event>
12    1  0.1029207E-001  0.2119627E+03  0.7546771E-02  0.1140218E+00
         21   -1    0    0  501  502  0.00000000000E+00  0.00000000000E+00  0.16014891043E+03  0.16014891043E+03  0.00000000000E+00 0. -1.
         21   -1    0    0  502  503 -0.00000000000E+00 -0.00000000000E+00 -0.35422805539E+03  0.35422805539E+03  0.00000000000E+00 0. -1.
         -6    2    1    2    0  503 -0.12088178996E+03  0.14657478739E+02 -0.21557621990E+03  0.30232646769E+03  0.17349621798E+03 0.  0.
        -24    2    3    3    0    0 -0.14133690710E+03  0.46678083367E+02 -0.14860964165E+03  0.22518799778E+03  0.80435340363E+02 0.  0.
          6    2    1    2  501    0  0.12088178996E+03 -0.14657478739E+02  0.21497074944E+02  0.21205049813E+03  0.17226735239E+03 0.  0.
         24    2    5    5    0    0  0.11101531046E+03 -0.36651540740E+02  0.69421197222E+02  0.15819980011E+03  0.80871129193E+02 0.  0.
          5    1    5    5  501    0  0.98664795067E+01  0.21994062001E+02 -0.47924122279E+02  0.53850698021E+02  0.47000000000E+01 0. -1.
        -13    1    6    6    0    0 -0.92879808707E+01 -0.17016522566E+02  0.37700175520E+01  0.19749472430E+02  0.00000000000E+00 0.  1.
         14    1    6    6    0    0  0.12030329133E+03 -0.19635018174E+02  0.65651179670E+02  0.13845032768E+03  0.00000000000E+00 0. -1.
         -5    1    3    3    0  503  0.20455117131E+02 -0.32020604628E+02 -0.66966578250E+02  0.77138469910E+02  0.47000000000E+01 0.  1.
         11    1    4    4    0    0 -0.71750316224E+02 -0.17985822074E+02 -0.59321788440E+02  0.94819155541E+02  0.00000000000E+00 0. -1.
        -12    1    4    4    0    0 -0.69586590872E+02  0.64663905441E+02 -0.89287853210E+02  0.13036884224E+03  0.00000000000E+00 0.  1.
<mgrwt>
<rscale>  2 0.21171108E+03</rscale>
<asrwt>0</asrwt>
<pdfrwt beam="1">  1       21 0.24638294E-01 0.21196270E+03</pdfrwt>
<pdfrwt beam="2">  1       21 0.54496624E-01 0.21196270E+03</pdfrwt>
<totfact> 0.49068831E+04</totfact>
</mgrwt>
</event>
<event>
11    1  0.1029207E-001  0.1761976E+03  0.7546771E-02  0.1172130E+00
         21   -1    0    0  503  502  0.00000000000E+00  0.00000000000E+00  0.13104829882E+03  0.13104829882E+03  0.00000000000E+00 0. -1.
         21   -1    0    0  501  503 -0.00000000000E+00 -0.00000000000E+00 -0.40353146226E+03  0.40353146226E+03  0.00000000000E+00 0. -1.
          6    2    1    2  501    0  0.68853423839E+01  0.32967551015E+02 -0.30909630880E+03  0.35461829687E+03  0.17052665775E+03 0.  0.
         24    2    3    3    0    0  0.57320869267E+02  0.23609904817E+02 -0.25598911133E+03  0.28063335018E+03  0.96858362847E+02 0.  0.
         -6    2    1    2    0  502 -0.68853423839E+01 -0.32967551015E+02  0.36613145357E+02  0.17996146421E+03  0.17294894862E+03 0.  0.
          5    1    3    3  501    0 -0.50435526883E+02  0.93576461988E+01 -0.53107197471E+02  0.73984946696E+02  0.47000000000E+01 0. -1.
        -11    1    4    4    0    0  0.44112907146E+02  0.49837508039E+02 -0.89282934349E+02  0.11136053228E+03  0.00000000000E+00 0.  1.
         12    1    4    4    0    0  0.13207962121E+02 -0.26227603223E+02 -0.16670617698E+03  0.16927281789E+03  0.00000000000E+00 0. -1.
         -5    1    5    5    0  502 -0.10251000491E+02 -0.92593388142E+02  0.54694281842E+02  0.10813035191E+03  0.47000000000E+01 0.  1.
         11    1    5    5    0    0  0.90488309307E+01  0.26832371034E+02  0.81364272571E+01  0.29462839731E+02  0.00000000000E+00 0. -1.
        -12    1    5    5    0    0 -0.56831728240E+01  0.32793466093E+02 -0.26217563742E+02  0.42368272567E+02  0.00000000000E+00 0.  1.
<mgrwt>
<rscale>  2 0.17560035E+03</rscale>
<asrwt>0</asrwt>
<pdfrwt beam="1">  1       21 0.20161277E-01 0.17619763E+03</pdfrwt>
<pdfrwt beam="2">  1       21 0.62081763E-01 0.17619763E+03</pdfrwt>
<totfact> 0.55170570E+04</totfact>
</mgrwt>
</event>
<event>
12    1  0.1029207E-001  0.1873502E+03  0.7546771E-02  0.1160983E+00
         21   -1    0    0  503  502  0.00000000000E+00  0.00000000000E+00  0.52913611289E+03  0.52913611289E+03  0.00000000000E+00 0.  1.
         21   -1    0    0  501  503 -0.00000000000E+00 -0.00000000000E+00 -0.24236518957E+03  0.24236518957E+03  0.00000000000E+00 0.  1.
          6    2    1    2  501    0  0.22095116260E+02 -0.67274474461E+02 -0.18547240620E+03  0.26362873180E+03  0.17345329543E+03 0.  0.
         24    2    3    3    0    0 -0.26686205622E+02 -0.98122297423E+02 -0.11655197541E+03  0.17361028188E+03  0.78841792104E+02 0.  0.
         -6    2    1    2    0  502 -0.22095116260E+02  0.67274474461E+02  0.47224332951E+03  0.50787257066E+03  0.17293564319E+03 0.  0.
        -24    2    5    5    0    0 -0.77789828737E+02  0.45451699162E+02  0.37977274066E+03  0.39764084056E+03  0.75985453318E+02 0.  0.
          5    1    3    3  501    0  0.48781321882E+02  0.30847822962E+02 -0.68920430787E+02  0.90018449920E+02  0.47000000000E+01 0. -1.
        -13    1    4    4    0    0 -0.17403636847E+02 -0.28506880061E+02  0.44586948419E+01  0.33695826834E+02  0.00000000000E+00 0.  1.
         14    1    4    4    0    0 -0.92825687746E+01 -0.69615417362E+02 -0.12101067025E+03  0.13991445505E+03  0.00000000000E+00 0. -1.
         -5    1    5    5    0  502  0.55694712477E+02  0.21822775299E+02  0.92470588845E+02  0.11023173010E+03  0.47000000000E+01 0.  1.
         11    1    6    6    0    0 -0.49737950292E+02 -0.14369975648E+02  0.17002452107E+03  0.17773209520E+03  0.00000000000E+00 0. -1.
        -12    1    6    6    0    0 -0.28051878445E+02  0.59821674810E+02  0.20974821959E+03  0.21990874535E+03  0.00000000000E+00 0.  1.
<mgrwt>
<rscale>  2 0.18723029E+03</rscale>
<asrwt>0</asrwt>
<pdfrwt beam="1">  1       21 0.81405556E-01 0.18735019E+03</pdfrwt>
<pdfrwt beam="2">  1       21 0.37286952E-01 0.18735019E+03</pdfrwt>
<totfact> 0.92061234E+03</totfact>
</mgrwt>
</event>
<event>
12    1  0.1029207E-001  0.1848098E+03  0.7546771E-02  0.1163231E+00
         21   -1    0    0  503  502  0.00000000000E+00  0.00000000000E+00  0.11818992497E+04  0.11818992497E+04  0.00000000000E+00 0. -1.
         21   -1    0    0  501  503 -0.00000000000E+00 -0.00000000000E+00 -0.63146221234E+02  0.63146221234E+02  0.00000000000E+00 0. -1.
          6    2    1    2  501    0 -0.17939459712E+02 -0.59534887261E+02  0.10089233189E+03  0.21054314419E+03  0.17401990091E+03 0.  0.
         24    2    3    3    0    0  0.56126377567E+02 -0.23287177362E+02  0.67654262042E+02  0.12151222814E+03  0.80595654516E+02 0.  0.
         -6    2    1    2    0  502  0.17939459712E+02  0.59534887261E+02  0.10178606966E+04  0.10345023268E+04  0.17403574172E+03 0.  0.
        -24    2    5    5    0    0  0.47260172912E+02 -0.16586926951E+02  0.73993463139E+03  0.74481417972E+03  0.68820443810E+02 0.  0.
          5    1    3    3  501    0 -0.74065837279E+02 -0.36247709899E+02  0.33238069847E+02  0.89030916046E+02  0.47000000000E+01 0. -1.
        -11    1    4    4    0    0 -0.10676784661E+02  0.16728104439E+02  0.27458226720E+02  0.33878863964E+02  0.00000000000E+00 0.  1.
         12    1    4    4    0    0  0.66803162228E+02 -0.40015281801E+02  0.40196035322E+02  0.87633364177E+02  0.00000000000E+00 0. -1.
         -5    1    5    5    0  502 -0.29320713199E+02  0.76121814212E+02  0.27792606523E+03  0.28968814708E+03  0.47000000000E+01 0.  1.
         11    1    6    6    0    0  0.35360283100E+01  0.58514634268E+01  0.49242955017E+03  0.49247700962E+03  0.00000000000E+00 0. -1.
        -12    1    6    6    0    0  0.43724144602E+02 -0.22438390378E+02  0.24750508122E+03  0.25233717010E+03  0.00000000000E+00 0.  1.
<mgrwt>
<rscale>  2 0.18480608E+03</rscale>
<asrwt>0</asrwt>
<pdfrwt beam="1">  1       21 0.18183064E+00 0.18480981E+03</pdfrwt>
<pdfrwt beam="2">  1       21 0.97148041E-02 0.18480981E+03</pdfrwt>
<totfact> 0.15191267E+04</totfact>
</mgrwt>
</event>
<event>
12    1  0.1029207E-001  0.2705589E+03  0.7546771E-02  0.1101025E+00
         21   -1    0    0  501  502  0.00000000000E+00  0.00000000000E+00  0.53560382255E+03  0.53560382255E+03  0.00000000000E+00 0. -1.
         21   -1    0    0  502  503 -0.00000000000E+00 -0.00000000000E+00 -0.14530644505E+03  0.14530644505E+03  0.00000000000E+00 0. -1.
         -6    2    1    2    0  503  0.20768307967E+03 -0.24874819542E+02  0.11091045151E+03  0.29198974198E+03  0.17089722917E+03 0.  0.
        -24    2    3    3    0    0  0.67031052630E+02 -0.72247651283E+01 -0.10900981760E+02  0.10502816195E+03  0.79791754909E+02 0.  0.
          6    2    1    2  501    0 -0.20768307967E+03  0.24874819542E+02  0.27938692598E+03  0.38892052562E+03  0.17161323553E+03 0.  0.
         24    2    5    5    0    0 -0.14597678400E+03  0.36791384773E+02  0.27671606863E+03  0.32584204330E+03  0.83297221352E+02 0.  0.
          5    1    5    5  501    0 -0.61706295671E+02 -0.11916565231E+02  0.26708573524E+01  0.63078482317E+02  0.47000000000E+01 0. -1.
        -13    1    6    6    0    0 -0.31000793090E+01  0.10260168828E+02 -0.25604087297E+01  0.11019857030E+02  0.00000000000E+00 0.  1.
         14    1    6    6    0    0 -0.14287670469E+03  0.26531215945E+02  0.27927647736E+03  0.31482218627E+03  0.00000000000E+00 0. -1.
         -5    1    3    3    0  503  0.14065202704E+03 -0.17650054413E+02  0.12181143327E+03  0.18696158003E+03  0.47000000000E+01 0.  1.
         13    1    4    4    0    0  0.17576279181E+02 -0.29712506062E+02 -0.31687389870E+02  0.46859889917E+02  0.00000000000E+00 0. -1.
        -14    1    4    4    0    0  0.49454773450E+02  0.22487740933E+02  0.20786408110E+02  0.58168272033E+02  0.00000000000E+00 0.  1.
<mgrwt>
<rscale>  2 0.27044544E+03</rscale>
<asrwt>0</asrwt>
<pdfrwt beam="1">  1       21 0.82400587E-01 0.27055890E+03</pdfrwt>
<pdfrwt beam="2">  1       21 0.22354838E-01 0.27055890E+03</pdfrwt>
<totfact> 0.23141066E+04</totfact>
</mgrwt>
</event>
<event>
12    1  0.1029207E-001  0.1817733E+03  0.7546771E-02  0.1166409E+00
         21   -1    0    0  501  502  0.00000000000E+00  0.00000000000E+00  0.63283264949E+02  0.63283264949E+02  0.00000000000E+00 0.  1.
         21   -1    0    0  502  503 -0.00000000000E+00 -0.00000000000E+00 -0.74853259962E+03  0.74853259962E+03  0.00000000000E+00 0.  1.
         -6    2    1    2    0  503 -0.42702731288E+02  0.27293875142E+02 -0.56684132938E+03  0.59487812844E+03  0.17321205534E+03 0.  0.
        -24    2    3    3    0    0  0.62837999417E+01  0.79468017621E+01 -0.11644694751E+03  0.14139033509E+03  0.79553111018E+02 0.  0.
          6    2    1    2  501    0  0.42702731288E+02 -0.27293875142E+02 -0.11840800528E+03  0.21693773613E+03  0.17456530801E+03 0.  0.
         24    2    5    5    0    0  0.15885120007E+02 -0.72426862105E+02 -0.27251852161E+02  0.11163956407E+03  0.78884354769E+02 0.  0.
          5    1    5    5  501    0  0.26817611281E+02  0.45132986963E+02 -0.91156153123E+02  0.10529817206E+03  0.47000000000E+01 0. -1.
        -13    1    6    6    0    0 -0.67480032342E+01  0.13028372535E+02  0.77109879062E+01  0.16575082897E+02  0.00000000000E+00 0.  1.
         14    1    6    6    0    0  0.22633123241E+02 -0.85455234640E+02 -0.34962840067E+02  0.95064481173E+02  0.00000000000E+00 0. -1.
         -5    1    3    3    0  503 -0.48986531229E+02  0.19347073380E+02 -0.45039438187E+03  0.45348779334E+03  0.47000000000E+01 0.  1.
         11    1    4    4    0    0  0.25814029260E+01 -0.35440338733E+02 -0.64185626206E+02  0.73365358734E+02  0.00000000000E+00 0. -1.
        -12    1    4    4    0    0  0.37023970156E+01  0.43387140495E+02 -0.52261321308E+02  0.68024976361E+02  0.00000000000E+00 0.  1.
<mgrwt>
<rscale>  2 0.18144761E+03</rscale>
<asrwt>0</asrwt>
<pdfrwt beam="1">  1       21 0.97358865E-02 0.18177328E+03</pdfrwt>
<pdfrwt beam="2">  1       21 0.11515887E+00 0.18177328E+03</pdfrwt>
<totfact> 0.49984157E+04</totfact>
</mgrwt>
</event>
<event>
12    1  0.1029207E-001  0.1839499E+03  0.7546771E-02  0.1164499E+00
         21   -1    0    0  501  502  0.00000000000E+00  0.00000000000E+00  0.21991129780E+03  0.21991129780E+03  0.00000000000E+00 0.  1.
         21   -1    0    0  502  503 -0.00000000000E+00 -0.00000000000E+00 -0.32885201010E+03  0.32885201010E+03  0.00000000000E+00 0.  1.
         -6    2    1    2    0  503  0.48209359132E+02  0.41743407937E+02 -0.25541795977E+03  0.31361836478E+03  0.17044497688E+03 0.  0.
        -24    2    3    3    0    0  0.95318044016E+02  0.44356063014E+02 -0.16767185709E+03  0.21388109646E+03  0.81106608372E+02 0.  0.
          6    2    1    2  501    0 -0.48209359132E+02 -0.41743407937E+02  0.14647724747E+03  0.23514494311E+03  0.17254247544E+03 0.  0.
         24    2    5    5    0    0  0.12915776421E+02 -0.72625283999E+02  0.11833840449E+03  0.16095695925E+03  0.80386041060E+02 0.  0.
          5    1    5    5  501    0 -0.61125135552E+02  0.30881876063E+02  0.28138842985E+02  0.74187983865E+02  0.47000000000E+01 0. -1.
        -13    1    6    6    0    0 -0.81073934710E+01 -0.50081011058E+02  0.11979714126E+03  0.13009685834E+03  0.00000000000E+00 0.  1.
         14    1    6    6    0    0  0.21023169892E+02 -0.22544272941E+02 -0.14587367728E+01  0.30860100902E+02  0.00000000000E+00 0. -1.
         -5    1    3    3    0  503 -0.47108684884E+02 -0.26126550775E+01 -0.87746102680E+02  0.99737268328E+02  0.47000000000E+01 0.  1.
         11    1    4    4    0    0  0.54916484114E+02 -0.14184465986E+02 -0.10379062011E+03  0.11827726800E+03  0.00000000000E+00 0. -1.
        -12    1    4    4    0    0  0.40401559902E+02  0.58540529000E+02 -0.63881236980E+02  0.95603828460E+02  0.00000000000E+00 0.  1.
<mgrwt>
<rscale>  2 0.18345641E+03</rscale>
<asrwt>0</asrwt>
<pdfrwt beam="1">  1       21 0.33832508E-01 0.18394989E+03</pdfrwt>
<pdfrwt beam="2">  1       21 0.50592617E-01 0.18394989E+03</pdfrwt>
<totfact> 0.31435920E+04</totfact>
</mgrwt>
</event>
<event>
12    1  0.1029207E-001  0.2194373E+03  0.7546771E-02  0.1134358E+00
         21   -1    0    0  501  502  0.00000000000E+00  0.00000000000E+00  0.49172399988E+03  0.49172399988E+03  0.00000000000E+00 0.  1.
         21   -1    0    0  502  503 -0.00000000000E+00 -0.00000000000E+00 -0.12103186612E+03  0.12103186612E+03  0.00000000000E+00 0. -1.
         -6    2    1    2    0  503  0.11895229749E+03 -0.61772475896E+02  0.51008401886E+02  0.22500541775E+03  0.17337846780E+03 0.  0.
        -24    2    3    3    0    0  0.26329554302E+02 -0.88207406837E+02  0.18666403718E+02  0.12329075324E+03  0.79864780451E+02 0.  0.
          6    2    1    2  501    0 -0.11895229749E+03  0.61772475896E+02  0.31968373187E+03  0.38775044825E+03  0.17374473759E+03 0.  0.
         24    2    5    5    0    0 -0.15279601563E+03  0.37316521902E+02  0.23783941208E+03  0.29575004812E+03  0.78494329870E+02 0.  0.
          5    1    5    5  501    0  0.33843718139E+02  0.24455953994E+02  0.81844319789E+02  0.92000400135E+02  0.47000000000E+01 0. -1.
        -11    1    6    6    0    0 -0.38900495689E+02 -0.24718715553E+02  0.61813440813E+02  0.77104895620E+02  0.00000000000E+00 0.  1.
         12    1    6    6    0    0 -0.11389551994E+03  0.62035237455E+02  0.17602597127E+03  0.21864515250E+03  0.00000000000E+00 0. -1.
         -5    1    3    3    0  503  0.92622743188E+02  0.26434930941E+02  0.32341998168E+02  0.10171466450E+03  0.47000000000E+01 0.  1.
         11    1    4    4    0    0  0.29642014418E+02  0.27413813953E+01 -0.24332525849E+01  0.29867790492E+02  0.00000000000E+00 0. -1.
        -12    1    4    4    0    0 -0.33124601159E+01 -0.90948788232E+02  0.21099656303E+02  0.93422962750E+02  0.00000000000E+00 0.  1.
<mgrwt>
<rscale>  2 0.21936478E+03</rscale>
<asrwt>0</asrwt>
<pdfrwt beam="1">  1       21 0.75649845E-01 0.21943728E+03</pdfrwt>
<pdfrwt beam="2">  1       21 0.18620287E-01 0.21943728E+03</pdfrwt>
<totfact> 0.40568194E+04</totfact>
</mgrwt>
</event>
<event>
12    1  0.1029207E-001  0.2150969E+03  0.7546771E-02  0.1140123E+00
         21   -1    0    0  503  502  0.00000000000E+00  0.00000000000E+00  0.81779006876E+03  0.81779006876E+03  0.00000000000E+00 0.  1.
         21   -1    0    0  501  503 -0.00000000000E+00 -0.00000000000E+00 -0.26535206511E+03  0.26535206511E+03  0.00000000000E+00 0.  1.
          6    2    1    2  501    0  0.10336453542E+03  0.13577415890E+02 -0.20960173912E+03  0.29132696270E+03  0.17340685323E+03 0.  0.
         24    2    3    3    0    0  0.13017790681E+03  0.12128701567E+02 -0.11391974035E+03  0.19183731225E+03  0.82039346087E+02 0.  0.
         -6    2    1    2    0  502 -0.10336453542E+03 -0.13577415890E+02  0.76203974277E+03  0.79181517118E+03  0.18814388735E+03 0.  0.
        -24    2    5    5    0    0  0.23655520770E+02 -0.12856918065E+02  0.37629843806E+03  0.38567103673E+03  0.80104619585E+02 0.  0.
          5    1    3    3  501    0 -0.26813371385E+02  0.14487143225E+01 -0.95681998770E+02  0.99489650451E+02  0.47000000000E+01 0. -1.
        -11    1    4    4    0    0  0.13593841878E+03 -0.42917393187E+01 -0.10723302211E+03  0.17319524750E+03  0.00000000000E+00 0.  1.
         12    1    4    4    0    0 -0.57605119731E+01  0.16420440886E+02 -0.66867182378E+01  0.18642064743E+02  0.00000000000E+00 0. -1.
         -5    1    5    5    0  502 -0.12702005619E+03 -0.72049782443E+00  0.38574130471E+03  0.40614413445E+03  0.47000000000E+01 0.  1.
         11    1    6    6    0    0  0.42601011707E+02  0.15066627683E+02  0.14368471882E+03  0.15062253447E+03  0.00000000000E+00 0. -1.
        -12    1    6    6    0    0 -0.18945490938E+02 -0.27923545748E+02  0.23261371924E+03  0.23504850225E+03  0.00000000000E+00 0.  1.
<mgrwt>
<rscale>  2 0.21183230E+03</rscale>
<asrwt>0</asrwt>
<pdfrwt beam="1">  1       21 0.12581386E+00 0.21509695E+03</pdfrwt>
<pdfrwt beam="2">  1       21 0.40823395E-01 0.21509695E+03</pdfrwt>
<totfact> 0.26605834E+03</totfact>
</mgrwt>
</event>
<event>
12    1  0.1029207E-001  0.2047449E+03  0.7546771E-02  0.1145922E+00
         21   -1    0    0  501  502  0.00000000000E+00  0.00000000000E+00  0.36550220064E+03  0.36550220064E+03  0.00000000000E+00 0.  1.
         21   -1    0    0  502  503 -0.00000000000E+00 -0.00000000000E+00 -0.14425391657E+03  0.14425391657E+03  0.00000000000E+00 0.  1.
         -6    2    1    2    0  503 -0.29912716680E+02 -0.10483393724E+03  0.22680378562E+03  0.30554936553E+03  0.17330762414E+03 0.  0.
        -24    2    3    3    0    0 -0.69655581945E+02 -0.50364793680E+02  0.78799167696E+02  0.14284152962E+03  0.82497764914E+02 0.  0.
          6    2    1    2  501    0  0.29912716680E+02  0.10483393724E+03 -0.55555015438E+01  0.20420675169E+03  0.17258217991E+03 0.  0.
         24    2    5    5    0    0 -0.27715632305E+02  0.72135786090E+02 -0.51875971736E+02  0.12322606477E+03  0.80757777865E+02 0.  0.
          5    1    5    5  501    0  0.57628348986E+02  0.32698151153E+02  0.46320470193E+02  0.80980686923E+02  0.47000000000E+01 0. -1.
        -13    1    6    6    0    0  0.82955715763E+01  0.66021776071E+02 -0.55325899561E+02  0.86536966584E+02  0.00000000000E+00 0.  1.
         14    1    6    6    0    0 -0.36011203882E+02  0.61140100187E+01  0.34499278248E+01  0.36689098183E+02  0.00000000000E+00 0. -1.
         -5    1    3    3    0  503  0.39742865264E+02 -0.54469143563E+02  0.14800461792E+03  0.16270783591E+03  0.47000000000E+01 0.  1.
         13    1    4    4    0    0 -0.76063028707E+02 -0.26997053332E+02  0.85623849238E+02  0.11766846979E+03  0.00000000000E+00 0. -1.
        -14    1    4    4    0    0  0.64074467624E+01 -0.23367740348E+02 -0.68246815413E+01  0.25173059828E+02  0.00000000000E+00 0.  1.
<mgrwt>
<rscale>  2 0.20459126E+03</rscale>
<asrwt>0</asrwt>
<pdfrwt beam="1">  1       21 0.56231107E-01 0.20474486E+03</pdfrwt>
<pdfrwt beam="2">  1       21 0.22192910E-01 0.20474486E+03</pdfrwt>
<totfact> 0.56188429E+04</totfact>
</mgrwt>
</event>
<event>
12    1  0.1029207E-001  0.1983256E+03  0.7546771E-02  0.1151178E+00
         21   -1    0    0  503  502  0.00000000000E+00  0.00000000000E+00  0.27900815634E+03  0.27900815634E+03  0.00000000000E+00 0. -1.
         21   -1    0    0  501  503 -0.00000000000E+00 -0.00000000000E+00 -0.14093661490E+03  0.14093661490E+03  0.00000000000E+00 0. -1.
          6    2    1    2  501    0  0.74278817492E+02  0.61850911809E+02  0.66244258222E+02  0.20909647288E+03  0.17317665895E+03 0.  0.
         24    2    3    3    0    0  0.11422214458E+02  0.34969898862E+01  0.90002025369E+02  0.11997490283E+03  0.78427780898E+02 0.  0.
         -6    2    1    2    0  502 -0.74278817492E+02 -0.61850911809E+02  0.71827283215E+02  0.21084829837E+03  0.17307503659E+03 0.  0.
        -24    2    5    5    0    0 -0.96859280578E+01  0.25776559962E+02  0.27319108415E+02  0.93145780134E+02  0.84685030710E+02 0.  0.
          5    1    3    3  501    0  0.62856603034E+02  0.58353921922E+02 -0.23757767147E+02  0.89121570052E+02  0.47000000000E+01 0. -1.
        -11    1    4    4    0    0 -0.11071815744E+02  0.28125339280E+02  0.77304007980E+01  0.31199020978E+02  0.00000000000E+00 0.  1.
         12    1    4    4    0    0  0.22494030202E+02 -0.24628349394E+02  0.82271624571E+02  0.88775881849E+02  0.00000000000E+00 0. -1.
         -5    1    5    5    0  502 -0.64592889434E+02 -0.87627471770E+02  0.44508174800E+02  0.11770251823E+03  0.47000000000E+01 0.  1.
         11    1    6    6    0    0 -0.72093313326E+01  0.62334508535E+01  0.56852201170E+02  0.57645495450E+02  0.00000000000E+00 0. -1.
        -12    1    6    6    0    0 -0.24765967253E+01  0.19543109108E+02 -0.29533092755E+02  0.35500284684E+02  0.00000000000E+00 0.  1.
<mgrwt>
<rscale>  2 0.19830339E+03</rscale>
<asrwt>0</asrwt>
<pdfrwt beam="1">  1       21 0.42924332E-01 0.19832557E+03</pdfrwt>
<pdfrwt beam="2">  1       21 0.21682556E-01 0.19832557E+03</pdfrwt>
<totfact> 0.10331693E+05</totfact>
</mgrwt>
</event>
<event>
12    1  0.1029207E-001  0.2161306E+03  0.7546771E-02  0.1136881E+00
         21   -1    0    0  501  502  0.00000000000E+00  0.00000000000E+00  0.21459825252E+04  0.21459825252E+04  0.00000000000E+00 0. -1.
         21   -1    0    0  502  503 -0.00000000000E+00 -0.00000000000E+00 -0.42844825888E+02  0.42844825888E+02  0.00000000000E+00 0. -1.
         -6    2    1    2    0  503  0.11220074610E+03  0.63228375409E+02  0.28267777061E+03  0.35558247112E+03  0.17304721000E+03 0.  0.
        -24    2    3    3    0    0  0.99064674142E+02  0.10539854721E+02  0.91350721336E+02  0.15664336892E+03  0.79166233573E+02 0.  0.
          6    2    1    2  501    0 -0.11220074610E+03 -0.63228375409E+02  0.18204599287E+04  0.18332448800E+04  0.17356728679E+03 0.  0.
         24    2    5    5    0    0 -0.24990554430E+02 -0.59767495634E+02  0.14039646613E+04  0.14076770323E+04  0.79001111907E+02 0.  0.
          5    1    5    5  501    0 -0.87210191666E+02 -0.34608797747E+01  0.41649526738E+03  0.42556784767E+03  0.47000000000E+01 0. -1.
        -11    1    6    6    0    0 -0.30971962434E+02 -0.72620862406E+02  0.88381695410E+03  0.88733615979E+03  0.00000000000E+00 0.  1.
         12    1    6    6    0    0  0.59814080043E+01  0.12853366772E+02  0.52014770723E+03  0.52034087252E+03  0.00000000000E+00 0. -1.
         -5    1    3    3    0  503  0.13136071954E+02  0.52688520688E+02  0.19132704928E+03  0.19893910220E+03  0.47000000000E+01 0.  1.
         11    1    4    4    0    0  0.10195328372E+03  0.89705377822E+01  0.10260237042E+03  0.14492132012E+03  0.00000000000E+00 0. -1.
        -12    1    4    4    0    0 -0.28886095786E+01  0.15693169389E+01 -0.11251649085E+02  0.11722048801E+02  0.00000000000E+00 0.  1.
<mgrwt>
<rscale>  2 0.21602617E+03</rscale>
<asrwt>0</asrwt>
<pdfrwt beam="1">  1       21 0.33015108E+00 0.21613060E+03</pdfrwt>
<pdfrwt beam="2">  1       21 0.65915133E-02 0.21613060E+03</pdfrwt>
<totfact> 0.37281712E+03</totfact>
</mgrwt>
</event>
<event>
12    1  0.1029207E-001  0.2219601E+03  0.7546771E-02  0.1132589E+00
         21   -1    0    0  501  502  0.00000000000E+00  0.00000000000E+00  0.44918186552E+03  0.44918186552E+03  0.00000000000E+00 0. -1.
         21   -1    0    0  502  503 -0.00000000000E+00 -0.00000000000E+00 -0.10950918771E+03  0.10950918771E+03  0.00000000000E+00 0. -1.
         -6    2    1    2    0  503  0.10907716347E+03 -0.83380518174E+02  0.15607886841E+03  0.27064078510E+03  0.17330805808E+03 0.  0.
        -24    2    3    3    0    0  0.56201304172E+02 -0.10668895115E+03  0.15493421837E+03  0.21265337468E+03  0.81705121328E+02 0.  0.
          6    2    1    2  501    0 -0.10907716347E+03  0.83380518174E+02  0.18359380940E+03  0.28805026812E+03  0.17440221247E+03 0.  0.
         24    2    5    5    0    0 -0.73390159459E+02  0.49870241062E+02  0.25588181794E+02  0.12256803559E+03  0.80591636369E+02 0.  0.
          5    1    5    5  501    0 -0.35687004006E+02  0.33510277112E+02  0.15800562761E+03  0.16548223253E+03  0.47000000000E+01 0. -1.
        -11    1    6    6    0    0  0.16752946506E+02  0.15591653581E+02  0.38719942226E+00  0.22889097872E+02  0.00000000000E+00 0.  1.
         12    1    6    6    0    0 -0.90143105965E+02  0.34278587482E+02  0.25200982372E+02  0.99678937721E+02  0.00000000000E+00 0. -1.
         -5    1    3    3    0  503  0.52875859293E+02  0.23308432981E+02  0.11446500410E+01  0.57987410424E+02  0.47000000000E+01 0.  1.
         11    1    4    4    0    0  0.18474823011E+02  0.10443263371E+02  0.13380617345E+02  0.25088279249E+02  0.00000000000E+00 0. -1.
        -12    1    4    4    0    0  0.37726481161E+02 -0.11713221453E+03  0.14155360102E+03  0.18756509543E+03  0.00000000000E+00 0.  1.
<mgrwt>
<rscale>  2 0.22174508E+03</rscale>
<asrwt>0</asrwt>
<pdfrwt beam="1">  1       21 0.69104901E-01 0.22196006E+03</pdfrwt>
<pdfrwt beam="2">  1       21 0.16847568E-01 0.22196006E+03</pdfrwt>
<totfact> 0.59653674E+04</totfact>
</mgrwt>
</event>
<event>
12    1  0.1029207E-001  0.2483075E+03  0.7546771E-02  0.1114565E+00
         21   -1    0    0  501  502  0.00000000000E+00  0.00000000000E+00  0.45919057678E+03  0.45919057678E+03  0.00000000000E+00 0. -1.
         21   -1    0    0  502  503 -0.00000000000E+00 -0.00000000000E+00 -0.25881921226E+03  0.25881921226E+03  0.00000000000E+00 0. -1.
         -6    2    1    2    0  503  0.14271471309E+03 -0.10686270733E+03 -0.14960271633E+03  0.28889619343E+03  0.17115171718E+03 0.  0.
        -24    2    3    3    0    0  0.95486744434E+02 -0.10315760457E+03 -0.34576561782E+02  0.16440798098E+03  0.77943799250E+02 0.  0.
          6    2    1    2  501    0 -0.14271471309E+03  0.10686270733E+03  0.34997408085E+03  0.42911359560E+03  0.17282792920E+03 0.  0.
         24    2    5    5    0    0 -0.94405304515E+02  0.51466515191E+01  0.12104056909E+03  0.17394189307E+03  0.81646269089E+02 0.  0.
          5    1    5    5  501    0 -0.48309408578E+02  0.10171605581E+03  0.22893351176E+03  0.25517170254E+03  0.47000000000E+01 0. -1.
        -13    1    6    6    0    0  0.11339245243E+02 -0.13356707055E+02  0.18687565807E+02  0.25616502919E+02  0.00000000000E+00 0.  1.
         14    1    6    6    0    0 -0.10574454976E+03  0.18503358574E+02  0.10235300328E+03  0.14832539015E+03  0.00000000000E+00 0. -1.
         -5    1    3    3    0  503  0.47227968658E+02 -0.37051027620E+01 -0.11502615455E+03  0.12448821245E+03  0.47000000000E+01 0.  1.
         11    1    4    4    0    0  0.91133360488E+02 -0.65800493617E+02 -0.50919211501E+02  0.12340081221E+03  0.00000000000E+00 0. -1.
        -12    1    4    4    0    0  0.43533839463E+01 -0.37357110955E+02  0.16342649719E+02  0.41007168770E+02  0.00000000000E+00 0.  1.
<mgrwt>
<rscale>  2 0.24801606E+03</rscale>
<asrwt>0</asrwt>
<pdfrwt beam="1">  1       21 0.70644704E-01 0.24830751E+03</pdfrwt>
<pdfrwt beam="2">  1       21 0.39818340E-01 0.24830751E+03</pdfrwt>
<totfact> 0.10664199E+04</totfact>
</mgrwt>
</event>
<event>
12    1  0.1029207E-001  0.1953869E+03  0.7546771E-02  0.1154795E+00
         21   -1    0    0  503  502  0.00000000000E+00  0.00000000000E+00  0.16186065656E+03  0.16186065656E+03  0.00000000000E+00 0.  1.
         21   -1    0    0  501  503 -0.00000000000E+00 -0.00000000000E+00 -0.29776880341E+03  0.29776880341E+03  0.00000000000E+00 0.  1.
          6    2    1    2  501    0 -0.57533798722E+02  0.63152247143E+02 -0.17702518898E+03  0.25996309436E+03  0.17013097478E+03 0.  0.
         24    2    3    3    0    0 -0.36441285520E+02  0.82562395020E+02 -0.51987735530E+02  0.13159603192E+03  0.80438017186E+02 0.  0.
         -6    2    1    2    0  502  0.57533798722E+02 -0.63152247143E+02  0.41117042133E+02  0.19966636560E+03  0.17572052266E+03 0.  0.
        -24    2    5    5    0    0  0.59049478625E+02 -0.48565511614E+02  0.92985686749E+02  0.14555983704E+03  0.81828347010E+02 0.  0.
          5    1    3    3  501    0 -0.21092513201E+02 -0.19410147877E+02 -0.12503745345E+03  0.12836706244E+03  0.47000000000E+01 0. -1.
        -11    1    4    4    0    0 -0.51354203545E+02  0.26756001073E+02 -0.45150435378E+02  0.73428193700E+02  0.00000000000E+00 0.  1.
         12    1    4    4    0    0  0.14912918025E+02  0.55806393948E+02 -0.68373001518E+01  0.58167838217E+02  0.00000000000E+00 0. -1.
         -5    1    5    5    0  502 -0.15156799031E+01 -0.14586735529E+02 -0.51868644616E+02  0.54106528564E+02  0.47000000000E+01 0.  1.
         13    1    6    6    0    0  0.37213682183E+02  0.14439334020E+02  0.14255628292E+02  0.42386028908E+02  0.00000000000E+00 0. -1.
        -14    1    6    6    0    0  0.21835796442E+02 -0.63004845635E+02  0.78730058457E+02  0.10317380813E+03  0.00000000000E+00 0.  1.
<mgrwt>
<rscale>  2 0.19412187E+03</rscale>
<asrwt>0</asrwt>
<pdfrwt beam="1">  1       21 0.24901640E-01 0.19538691E+03</pdfrwt>
<pdfrwt beam="2">  1       21 0.45810585E-01 0.19538691E+03</pdfrwt>
<totfact> 0.69628372E+04</totfact>
</mgrwt>
</event>
<event>
12    1  0.1029207E-001  0.2184264E+03  0.7546771E-02  0.1135310E+00
         21   -1    0    0  503  502  0.00000000000E+00  0.00000000000E+00  0.62118218022E+03  0.62118218022E+03  0.00000000000E+00 0. -1.
         21   -1    0    0  501  503 -0.00000000000E+00 -0.00000000000E+00 -0.90894426720E+02  0.90894426720E+02  0.00000000000E+00 0.  1.
          6    2    1    2  501    0 -0.12830073607E+03  0.31585708045E+02  0.40826429852E+03  0.46302248662E+03  0.17392915179E+03 0.  0.
         24    2    3    3    0    0  0.74095739459E+01  0.25206885989E+02  0.17258334116E+03  0.19094606119E+03  0.77363426434E+02 0.  0.
         -6    2    1    2    0  502  0.12830073607E+03 -0.31585708045E+02  0.12202345498E+03  0.24905412032E+03  0.17227737940E+03 0.  0.
        -24    2    5    5    0    0  0.14606424903E+03 -0.52556051162E+02  0.66865923768E+02  0.18725006760E+03  0.80589283999E+02 0.  0.
          5    1    3    3  501    0 -0.13571031002E+03  0.63788220560E+01  0.23568095736E+03  0.27207642544E+03  0.47000000000E+01 0. -1.
        -11    1    4    4    0    0  0.27930684762E+02 -0.63516398005E+01  0.13405329267E+03  0.13707936298E+03  0.00000000000E+00 0.  1.
         12    1    4    4    0    0 -0.20521110816E+02  0.31558525789E+02  0.38530048492E+02  0.53866698209E+02  0.00000000000E+00 0. -1.
         -5    1    5    5    0  502 -0.17763512958E+02  0.20970343117E+02  0.55157531211E+02  0.61804052718E+02  0.47000000000E+01 0.  1.
         11    1    6    6    0    0 -0.89974426971E+01 -0.12358498901E+01  0.11786128057E+02  0.14879318352E+02  0.00000000000E+00 0. -1.
        -12    1    6    6    0    0  0.15506169173E+03 -0.51320201272E+02  0.55079795711E+02  0.17237074925E+03  0.00000000000E+00 0.  1.
<mgrwt>
<rscale>  2 0.21809740E+03</rscale>
<asrwt>0</asrwt>
<pdfrwt beam="1">  1       21 0.95566487E-01 0.21842639E+03</pdfrwt>
<pdfrwt beam="2">  1       21 0.13983758E-01 0.21842639E+03</pdfrwt>
<totfact> 0.40161518E+04</totfact>
</mgrwt>
</event>
<event>
12    1  0.1029207E-001  0.1825536E+03  0.7546771E-02  0.1165959E+00
         21   -1    0    0  501  502  0.00000000000E+00  0.00000000000E+00  0.40072911446E+03  0.40072911446E+03  0.00000000000E+00 0. -1.
         21   -1    0    0  502  503 -0.00000000000E+00 -0.00000000000E+00 -0.12095407848E+03  0.12095407848E+03  0.00000000000E+00 0.  1.
         -6    2    1    2    0  503  0.57384350897E+02 -0.89313719336E+00 -0.74472235939E+01  0.18270546297E+03  0.17329761579E+03 0.  0.
        -24    2    3    3    0    0  0.73943962062E+02  0.16317917430E+01 -0.61976933169E+02  0.12546758028E+03  0.80191029343E+02 0.  0.
          6    2    1    2  501    0 -0.57384350897E+02  0.89313719336E+00  0.28722225958E+03  0.33897772997E+03  0.17063268620E+03 0.  0.
         24    2    5    5    0    0  0.21082951002E+02 -0.21175810412E+02  0.20919855276E+03  0.22604436581E+03  0.80244096778E+02 0.  0.
          5    1    5    5  501    0 -0.78467301899E+02  0.22068947606E+02  0.78023706820E+02  0.11293336417E+03  0.47000000000E+01 0. -1.
        -11    1    6    6    0    0  0.37409526817E+02 -0.26190469425E+02  0.57693051927E+02  0.73579220070E+02  0.00000000000E+00 0.  1.
         12    1    6    6    0    0 -0.16326575815E+02  0.50146590126E+01  0.15150550083E+03  0.15246514574E+03  0.00000000000E+00 0. -1.
         -5    1    3    3    0  503 -0.16559611165E+02 -0.25249289363E+01  0.54529709575E+02  0.57237882686E+02  0.47000000000E+01 0.  1.
         13    1    4    4    0    0  0.34437230057E+02  0.33667614925E+01  0.15935061317E+02  0.38094410038E+02  0.00000000000E+00 0. -1.
        -14    1    4    4    0    0  0.39506732005E+02 -0.17349697495E+01 -0.77911994486E+02  0.87373170244E+02  0.00000000000E+00 0.  1.
<mgrwt>
<rscale>  2 0.18191835E+03</rscale>
<asrwt>0</asrwt>
<pdfrwt beam="1">  1       21 0.61650632E-01 0.18255362E+03</pdfrwt>
<pdfrwt beam="2">  1       21 0.18608320E-01 0.18255362E+03</pdfrwt>
<totfact> 0.64813208E+04</totfact>
</mgrwt>
</event>
<event>
12    1  0.1029207E-001  0.1779772E+03  0.7546771E-02  0.1170074E+00
         21   -1    0    0  503  502  0.00000000000E+00  0.00000000000E+00  0.77766850603E+02  0.77766850603E+02  0.00000000000E+00 0.  1.
         21   -1    0    0  501  503 -0.00000000000E+00 -0.00000000000E+00 -0.82851637337E+03  0.82851637337E+03  0.00000000000E+00 0.  1.
          6    2    1    2  501    0  0.36392245657E+02 -0.14869495754E+02 -0.51849391900E+02  0.18537597491E+03  0.17358109109E+03 0.  0.
         24    2    3    3    0    0  0.21096319145E+02  0.55832780606E+02 -0.80971555765E+01  0.10070528675E+03  0.80707104885E+02 0.  0.
         -6    2    1    2    0  502 -0.36392245657E+02  0.14869495754E+02 -0.69890013087E+03  0.72090724906E+03  0.17233795687E+03 0.  0.
        -24    2    5    5    0    0  0.17421899106E+02 -0.46459726373E+02 -0.35423539009E+03  0.36668541292E+03  0.80705958362E+02 0.  0.
          5    1    3    3  501    0  0.15295926512E+02 -0.70702276360E+02 -0.43752236323E+02  0.84670688161E+02  0.47000000000E+01 0. -1.
        -13    1    4    4    0    0  0.12675127575E+02 -0.19797741963E+02 -0.72585107975E+01  0.24602752384E+02  0.00000000000E+00 0.  1.
         14    1    4    4    0    0  0.84211915703E+01  0.75630522569E+02 -0.83864477900E+00  0.76102534364E+02  0.00000000000E+00 0. -1.
         -5    1    5    5    0  502 -0.53814144764E+02  0.61329222127E+02 -0.34466474078E+03  0.35422183614E+03  0.47000000000E+01 0.  1.
         13    1    6    6    0    0 -0.27493923433E+02 -0.41171948689E+02 -0.18699942730E+03  0.19344206108E+03  0.00000000000E+00 0. -1.
        -14    1    6    6    0    0  0.44915822540E+02 -0.52877776834E+01 -0.16723596279E+03  0.17324335184E+03  0.00000000000E+00 0.  1.
<mgrwt>
<rscale>  2 0.17767339E+03</rscale>
<asrwt>0</asrwt>
<pdfrwt beam="1">  1       21 0.11964131E-01 0.17797723E+03</pdfrwt>
<pdfrwt beam="2">  1       21 0.12746406E+00 0.17797723E+03</pdfrwt>
<totfact> 0.27039620E+04</totfact>
</mgrwt>
</event>
<event>
12    1  0.1029207E-001  0.1774724E+03  0.7546771E-02  0.1170484E+00
         21   -1    0    0  503  502  0.00000000000E+00  0.00000000000E+00  0.21896580552E+03  0.21896580552E+03  0.00000000000E+00 0. -1.
         21   -1    0    0  501  503 -0.00000000000E+00 -0.00000000000E+00 -0.15730722440E+03  0.15730722440E+03  0.00000000000E+00 0. -1.
          6    2    1    2  501    0 -0.34717453397E+02  0.68017676663E+01 -0.25683642106E+02  0.17847236669E+03  0.17303517153E+03 0.  0.
         24    2    3    3    0    0 -0.46937353362E+02 -0.41934211106E+02  0.27901250760E+02  0.10486562565E+03  0.79099471856E+02 0.  0.
         -6    2    1    2    0  502  0.34717453397E+02 -0.68017676663E+01  0.87342223228E+02  0.19780066324E+03  0.17391053104E+03 0.  0.
        -24    2    5    5    0    0  0.84079487170E+02  0.79507202903E+01  0.29523137364E+02  0.12021598067E+03  0.80297523332E+02 0.  0.
          5    1    3    3  501    0  0.12219899966E+02  0.48735978772E+02 -0.53584892865E+02  0.73606741033E+02  0.47000000000E+01 0. -1.
        -13    1    4    4    0    0  0.13492228033E+02  0.13494394910E+02  0.49575959433E+01  0.19715898884E+02  0.00000000000E+00 0.  1.
         14    1    4    4    0    0 -0.60429581395E+02 -0.55428606016E+02  0.22943654816E+02  0.85149726769E+02  0.00000000000E+00 0. -1.
         -5    1    5    5    0  502 -0.49362033774E+02 -0.14752487957E+02  0.57819085864E+02  0.77584682569E+02  0.47000000000E+01 0.  1.
         13    1    6    6    0    0  0.14779299087E+02 -0.74919668719E+01  0.44647452651E+02  0.47623022556E+02  0.00000000000E+00 0. -1.
        -14    1    6    6    0    0  0.69300188083E+02  0.15442687162E+02 -0.15124315288E+02  0.72592958116E+02  0.00000000000E+00 0.  1.
<mgrwt>
<rscale>  2 0.17725754E+03</rscale>
<asrwt>0</asrwt>
<pdfrwt beam="1">  1       21 0.33687047E-01 0.17747236E+03</pdfrwt>
<pdfrwt beam="2">  1       21 0.24201111E-01 0.17747236E+03</pdfrwt>
<totfact> 0.13747641E+05</totfact>
</mgrwt>
</event>
<event>
12    1  0.1029207E-001  0.1871965E+03  0.7546771E-02  0.1161126E+00
         21   -1    0    0  503  502  0.00000000000E+00  0.00000000000E+00  0.61691755451E+03  0.61691755451E+03  0.00000000000E+00 0. -1.
         21   -1    0    0  501  503 -0.00000000000E+00 -0.00000000000E+00 -0.58205523883E+02  0.58205523883E+02  0.00000000000E+00 0.  1.
          6    2    1    2  501    0 -0.40573893267E+02  0.56946075222E+02  0.33408955319E+03  0.38272303308E+03  0.17312421610E+03 0.  0.
         24    2    3    3    0    0 -0.33367938622E+02 -0.28869023528E+02  0.22444400108E+03  0.24322251676E+03  0.82675529581E+02 0.  0.
         -6    2    1    2    0  502  0.40573893267E+02 -0.56946075222E+02  0.22462247744E+03  0.29240004531E+03  0.17364743831E+03 0.  0.
        -24    2    5    5    0    0  0.16194805999E+02 -0.82200904486E+02  0.22870971156E+03  0.25674977491E+03  0.81197625051E+02 0.  0.
          5    1    3    3  501    0 -0.72059546451E+01  0.85815098750E+02  0.10964555211E+03  0.13950051632E+03  0.47000000000E+01 0. -1.
        -13    1    4    4    0    0 -0.24031467075E+02 -0.47269846770E+01  0.21385976817E+03  0.21525765082E+03  0.00000000000E+00 0.  1.
         14    1    4    4    0    0 -0.93364715464E+01 -0.24142038851E+02  0.10584232906E+02  0.27964865940E+02  0.00000000000E+00 0. -1.
         -5    1    5    5    0  502  0.24379087267E+02  0.25254829263E+02 -0.40872341245E+01  0.35650270404E+02  0.47000000000E+01 0.  1.
         11    1    6    6    0    0  0.16917495542E+02 -0.63846754478E+02  0.67295005612E+02  0.94293305664E+02  0.00000000000E+00 0. -1.
        -12    1    6    6    0    0 -0.72268954277E+00 -0.18354150007E+02  0.16141470595E+03  0.16245646925E+03  0.00000000000E+00 0.  1.
<mgrwt>
<rscale>  2 0.18707507E+03</rscale>
<asrwt>0</asrwt>
<pdfrwt beam="1">  1       21 0.94910389E-01 0.18719650E+03</pdfrwt>
<pdfrwt beam="2">  1       21 0.89546964E-02 0.18719650E+03</pdfrwt>
<totfact> 0.91702269E+04</totfact>
</mgrwt>
</event>
<event>
12    1  0.1029207E-001  0.2225396E+03  0.7546771E-02  0.1132121E+00
         21   -1    0    0  501  502  0.00000000000E+00  0.00000000000E+00  0.31249877864E+03  0.31249877864E+03  0.00000000000E+00 0.  1.
         21   -1    0    0  502  503 -0.00000000000E+00 -0.00000000000E+00 -0.15852519311E+03  0.15852519311E+03  0.00000000000E+00 0.  1.
         -6    2    1    2    0  503 -0.35058882369E+02 -0.13380564556E+03  0.63617339223E+02  0.23084047829E+03  0.17351393187E+03 0.  0.
        -24    2    3    3    0    0 -0.16604909256E+00 -0.48289493133E+01 -0.43990019017E+01  0.80837776157E+02  0.80573249360E+02 0.  0.
          6    2    1    2  501    0  0.35058882369E+02  0.13380564556E+03  0.90356246311E+02  0.24018349346E+03  0.17432952495E+03 0.  0.
         24    2    5    5    0    0 -0.30713172982E+02  0.12989107160E+03  0.73160319825E+02  0.17192606132E+03  0.79944660167E+02 0.  0.
          5    1    5    5  501    0  0.65772055351E+02  0.39145739566E+01  0.17195926485E+02  0.68257432138E+02  0.47000000000E+01 0. -1.
        -11    1    6    6    0    0  0.15560547514E+02  0.89879474672E+02  0.60499804344E+02  0.10945627863E+03  0.00000000000E+00 0.  1.
         12    1    6    6    0    0 -0.46273720496E+02  0.40011596928E+02  0.12660515481E+02  0.62469782692E+02  0.00000000000E+00 0. -1.
         -5    1    3    3    0  503 -0.34892833276E+02 -0.12897669624E+03  0.68016341124E+02  0.15000270214E+03  0.47000000000E+01 0.  1.
         13    1    4    4    0    0 -0.38767921605E+02 -0.11365823718E+02  0.46139758394E+01  0.40662297862E+02  0.00000000000E+00 0. -1.
        -14    1    4    4    0    0  0.38601872513E+02  0.65368744045E+01 -0.90129777411E+01  0.40175478295E+02  0.00000000000E+00 0.  1.
<mgrwt>
<rscale>  2 0.22237981E+03</rscale>
<asrwt>0</asrwt>
<pdfrwt beam="1">  1       21 0.48076735E-01 0.22253957E+03</pdfrwt>
<pdfrwt beam="2">  1       21 0.24388491E-01 0.22253957E+03</pdfrwt>
<totfact> 0.64786439E+04</totfact>
</mgrwt>
</event>
<event>
12    1  0.1029207E-001  0.1737370E+03  0.7546771E-02  0.1174173E+00
         21   -1    0    0  503  502  0.00000000000E+00  0.00000000000E+00  0.18039517833E+04  0.18039517833E+04  0.00000000000E+00 0. -1.
         21   -1    0    0  501  503 -0.00000000000E+00 -0.00000000000E+00 -0.11485377886E+03  0.11485377886E+03  0.00000000000E+00 0. -1.
          6    2    1    2  501    0  0.58941510523E+01 -0.17042207981E+02 -0.42272413908E+02  0.17880575927E+03  0.17279862470E+03 0.  0.
         24    2    3    3    0    0 -0.63108778354E+02 -0.14312388722E+02 -0.28471887122E+02  0.10822672046E+03  0.81943958215E+02 0.  0.
         -6    2    1    2    0  502 -0.58941510523E+01  0.17042207981E+02  0.17313704183E+04  0.17399998029E+04  0.17213544291E+03 0.  0.
        -24    2    5    5    0    0  0.44276951319E+02  0.21377930571E+02  0.15043106672E+04  0.15073753017E+04  0.82536368716E+02 0.  0.
          5    1    3    3  501    0  0.69002929407E+02 -0.27298192591E+01 -0.13800526786E+02  0.70579038811E+02  0.47000000000E+01 0. -1.
        -13    1    4    4    0    0 -0.62662490930E+02 -0.35744397072E+02  0.55452100983E+00  0.72142616983E+02  0.00000000000E+00 0.  1.
         14    1    4    4    0    0 -0.44628742458E+00  0.21432008351E+02 -0.29026408132E+02  0.36084103473E+02  0.00000000000E+00 0. -1.
         -5    1    5    5    0  502 -0.50171102371E+02 -0.43357225905E+01  0.22705975106E+03  0.23262450120E+03  0.47000000000E+01 0.  1.
         11    1    6    6    0    0  0.70477865037E+01  0.29086623399E+02  0.17642444092E+03  0.17894492536E+03  0.00000000000E+00 0. -1.
        -12    1    6    6    0    0  0.37229164815E+02 -0.77086928272E+01  0.13278862263E+04  0.13284303763E+04  0.00000000000E+00 0.  1.
<mgrwt>
<rscale>  2 0.17357186E+03</rscale>
<asrwt>0</asrwt>
<pdfrwt beam="1">  1       21 0.27753102E+00 0.17373699E+03</pdfrwt>
<pdfrwt beam="2">  1       21 0.17669814E-01 0.17373699E+03</pdfrwt>
<totfact> 0.13699083E+03</totfact>
</mgrwt>
</event>
<event>
12    1  0.1029207E-001  0.2119755E+03  0.7546771E-02  0.1140175E+00
         21   -1    0    0  501  502  0.00000000000E+00  0.00000000000E+00  0.22476332615E+03  0.22476332615E+03  0.00000000000E+00 0. -1.
         21   -1    0    0  502  503 -0.00000000000E+00 -0.00000000000E+00 -0.20402818847E+03  0.20402818847E+03  0.00000000000E+00 0. -1.
         -6    2    1    2    0  503  0.81106237107E+02 -0.90496654697E+02  0.43610626211E+02  0.21641511846E+03  0.17368290236E+03 0.  0.
        -24    2    3    3    0    0  0.49174702046E+02 -0.70012389030E+02  0.96090523786E+02  0.15148856211E+03  0.79971931002E+02 0.  0.
          6    2    1    2  501    0 -0.81106237107E+02  0.90496654697E+02 -0.22875488529E+02  0.21237639616E+03  0.17266319660E+03 0.  0.
         24    2    5    5    0    0  0.18377213119E+02  0.23298337886E+02 -0.30118579477E+02  0.92013931008E+02  0.81724538294E+02 0.  0.
          5    1    5    5  501    0 -0.99483450226E+02  0.67198316811E+02  0.72430909484E+01  0.12036246515E+03  0.47000000000E+01 0. -1.
        -11    1    6    6    0    0  0.19528595775E+02  0.29196172625E+02  0.20746843842E+02  0.40794780037E+02  0.00000000000E+00 0.  1.
         12    1    6    6    0    0 -0.11513826553E+01 -0.58978347388E+01 -0.50865423320E+02  0.51219150970E+02  0.00000000000E+00 0. -1.
         -5    1    3    3    0  503  0.31931535060E+02 -0.20484265668E+02 -0.52479897575E+02  0.64926556360E+02  0.47000000000E+01 0.  1.
         13    1    4    4    0    0  0.25229263859E+02 -0.54755714984E+02  0.10351632445E+02  0.61170747687E+02  0.00000000000E+00 0. -1.
        -14    1    4    4    0    0  0.23945438188E+02 -0.15256674046E+02  0.85738891341E+02  0.90317814418E+02  0.00000000000E+00 0.  1.
<mgrwt>
<rscale>  2 0.21176653E+03</rscale>
<asrwt>0</asrwt>
<pdfrwt beam="1">  1       21 0.34578973E-01 0.21197551E+03</pdfrwt>
<pdfrwt beam="2">  1       21 0.31388952E-01 0.21197551E+03</pdfrwt>
<totfact> 0.77978149E+04</totfact>
</mgrwt>
</event>
<event>
12    1  0.1029207E-001  0.2007484E+03  0.7546771E-02  0.1149318E+00
         21   -1    0    0  501  502  0.00000000000E+00  0.00000000000E+00  0.11976761303E+03  0.11976761303E+03  0.00000000000E+00 0.  1.
         21   -1    0    0  502  503 -0.00000000000E+00 -0.00000000000E+00 -0.36762968657E+03  0.36762968657E+03  0.00000000000E+00 0.  1.
         -6    2    1    2    0  503 -0.52696334731E+02  0.86357002573E+02 -0.19644932376E+03  0.28016990896E+03  0.17224519005E+03 0.  0.
        -24    2    3    3    0    0  0.37107124007E+02  0.45686019925E+02 -0.90317881601E+02  0.13523970836E+03  0.81659708011E+02 0.  0.
          6    2    1    2  501    0  0.52696334731E+02 -0.86357002573E+02 -0.51412749780E+02  0.20722739064E+03  0.17339401663E+03 0.  0.
         24    2    5    5    0    0  0.22971377273E+02 -0.24586606681E+02  0.37930505634E+02  0.94517753991E+02  0.79766516534E+02 0.  0.
          5    1    5    5  501    0  0.29724957458E+02 -0.61770395892E+02 -0.89343255414E+02  0.11270963664E+03  0.47000000000E+01 0. -1.
        -13    1    6    6    0    0  0.71184352991E+01 -0.51821509357E+02  0.11901007380E+02  0.53644896587E+02  0.00000000000E+00 0.  1.
         14    1    6    6    0    0  0.15852941973E+02  0.27234902676E+02  0.26029498254E+02  0.40872857404E+02  0.00000000000E+00 0. -1.
         -5    1    3    3    0  503 -0.89803458738E+02  0.40670982647E+02 -0.10613144216E+03  0.14493020060E+03  0.47000000000E+01 0.  1.
         11    1    4    4    0    0  0.32976228580E+02 -0.15132434281E+02 -0.17523836146E+02  0.40292766744E+02  0.00000000000E+00 0. -1.
        -12    1    4    4    0    0  0.41308954271E+01  0.60818454206E+02 -0.72794045454E+02  0.94946941618E+02  0.00000000000E+00 0.  1.
<mgrwt>
<rscale>  2 0.20050008E+03</rscale>
<asrwt>0</asrwt>
<pdfrwt beam="1">  1       21 0.18425787E-01 0.20074840E+03</pdfrwt>
<pdfrwt beam="2">  1       21 0.56558413E-01 0.20074840E+03</pdfrwt>
<totfact> 0.78762182E+04</totfact>
</mgrwt>
</event>
<event>
12    1  0.1029207E-001  0.2026835E+03  0.7546771E-02  0.1147598E+00
         21   -1    0    0  503  502  0.00000000000E+00  0.00000000000E+00  0.55372473236E+03  0.55372473236E+03  0.00000000000E+00 0.  1.
         21   -1    0    0  501  503 -0.00000000000E+00 -0.00000000000E+00 -0.76786984246E+02  0.76786984246E+02  0.00000000000E+00 0. -1.
          6    2    1    2  501    0 -0.95915369692E+02  0.42877660217E+02  0.29873754134E+03  0.36100514040E+03  0.17332726531E+03 0.  0.
         24    2    3    3    0    0  0.74578912487E+01 -0.18297481607E+02  0.14215271962E+03  0.16359864241E+03  0.78528352382E+02 0.  0.
         -6    2    1    2    0  502  0.95915369692E+02 -0.42877660217E+02  0.17820020677E+03  0.26950657621E+03  0.17274324599E+03 0.  0.
        -24    2    5    5    0    0  0.35669560209E+02  0.37657232802E+02  0.12664139937E+03  0.15638793418E+03  0.75688554045E+02 0.  0.
          5    1    3    3  501    0 -0.10337326094E+03  0.61175141823E+02  0.15658482172E+03  0.19740649799E+03  0.47000000000E+01 0. -1.
        -13    1    4    4    0    0 -0.27930057594E+01 -0.36098393728E+02  0.23461957680E+02  0.43143462646E+02  0.00000000000E+00 0.  1.
         14    1    4    4    0    0  0.10250897008E+02  0.17800912122E+02  0.11869076194E+03  0.12045517976E+03  0.00000000000E+00 0. -1.
         -5    1    5    5    0  502  0.60245809483E+02 -0.80534893019E+02  0.51558807397E+02  0.11311864203E+03  0.47000000000E+01 0.  1.
         13    1    6    6    0    0 -0.22740480667E+02  0.10559250574E+01  0.29027825252E+02  0.36889823496E+02  0.00000000000E+00 0. -1.
        -14    1    6    6    0    0  0.58410040876E+02  0.36601307745E+02  0.97613574123E+02  0.11949811068E+03  0.00000000000E+00 0.  1.
<mgrwt>
<rscale>  2 0.20255856E+03</rscale>
<asrwt>0</asrwt>
<pdfrwt beam="1">  1       21 0.85188418E-01 0.20268348E+03</pdfrwt>
<pdfrwt beam="2">  1       21 0.11813383E-01 0.20268348E+03</pdfrwt>
<totfact> 0.71617169E+04</totfact>
</mgrwt>
</event>
<event>
12    1  0.1029207E-001  0.1772424E+03  0.7546771E-02  0.1170522E+00
         21   -1    0    0  501  502  0.00000000000E+00  0.00000000000E+00  0.11363956352E+03  0.11363956352E+03  0.00000000000E+00 0.  1.
         21   -1    0    0  502  503 -0.00000000000E+00 -0.00000000000E+00 -0.39561169804E+03  0.39561169804E+03  0.00000000000E+00 0.  1.
         -6    2    1    2    0  503 -0.18128620490E+02 -0.31332377738E+02 -0.28084700094E+03  0.33209926288E+03  0.17350653503E+03 0.  0.
        -24    2    3    3    0    0 -0.78919444879E+02 -0.13514721742E+02 -0.19145017881E+03  0.22243215295E+03  0.80074747673E+02 0.  0.
          6    2    1    2  501    0  0.18128620490E+02  0.31332377738E+02 -0.11251335824E+01  0.17715199868E+03  0.17341049546E+03 0.  0.
         24    2    5    5    0    0 -0.24861244045E+02 -0.16932335098E+02 -0.47022769074E+02  0.97739821397E+02  0.80231829395E+02 0.  0.
          5    1    5    5  501    0  0.42989864535E+02  0.48264712836E+02  0.45897635492E+02  0.79412177288E+02  0.47000000000E+01 0. -1.
        -11    1    6    6    0    0 -0.36432873741E+02  0.19004347657E+02 -0.52358995404E+01  0.41423835685E+02  0.00000000000E+00 0.  1.
         12    1    6    6    0    0  0.11571629696E+02 -0.35936682755E+02 -0.41786869534E+02  0.56315985712E+02  0.00000000000E+00 0. -1.
         -5    1    3    3    0  503  0.60790824390E+02 -0.17817655996E+02 -0.89396822127E+02  0.10966710994E+03  0.47000000000E+01 0.  1.
         11    1    4    4    0    0 -0.42255265933E+02 -0.26553380614E+02 -0.34351172569E+02  0.60585415554E+02  0.00000000000E+00 0. -1.
        -12    1    4    4    0    0 -0.36664178947E+02  0.13038658872E+02 -0.15709900624E+03  0.16184673739E+03  0.00000000000E+00 0.  1.
<mgrwt>
<rscale>  2 0.17721893E+03</rscale>
<asrwt>0</asrwt>
<pdfrwt beam="1">  1       21 0.17483009E-01 0.17724244E+03</pdfrwt>
<pdfrwt beam="2">  1       21 0.60863339E-01 0.17724244E+03</pdfrwt>
<totfact> 0.74937016E+04</totfact>
</mgrwt>
</event>
<event>
12    1  0.1029207E-001  0.1944926E+03  0.7546771E-02  0.1154537E+00
         21   -1    0    0  503  502  0.00000000000E+00  0.00000000000E+00  0.98043064614E+02  0.98043064614E+02  0.00000000000E+00 0. -1.
         21   -1    0    0  501  503 -0.00000000000E+00 -0.00000000000E+00 -0.52173939831E+03  0.52173939831E+03  0.00000000000E+00 0. -1.
          6    2    1    2  501    0 -0.89275285165E+02  0.71395094381E+01 -0.37024394041E+03  0.41807839903E+03  0.17230183746E+03 0.  0.
         24    2    3    3    0    0 -0.67506265474E+02 -0.45465688794E+02 -0.14039286260E+03  0.18123498015E+03  0.80695337068E+02 0.  0.
         -6    2    1    2    0  502  0.89275285165E+02 -0.71395094381E+01 -0.53452393290E+02  0.20170406389E+03  0.17264507496E+03 0.  0.
        -24    2    5    5    0    0  0.34530991631E+02  0.51503324254E+02  0.14810453465E+01  0.10436089619E+03  0.83928668322E+02 0.  0.
          5    1    3    3  501    0 -0.21769019691E+02  0.52605198232E+02 -0.22985107780E+03  0.23684341888E+03  0.47000000000E+01 0. -1.
        -13    1    4    4    0    0 -0.44677181439E+02 -0.68194864031E+02 -0.11023447250E+03  0.13710663350E+03  0.00000000000E+00 0.  1.
         14    1    4    4    0    0 -0.22829084036E+02  0.22729175236E+02 -0.30158390103E+02  0.44128346654E+02  0.00000000000E+00 0. -1.
         -5    1    5    5    0  502  0.54744293534E+02 -0.58642833692E+02 -0.54933438637E+02  0.97343167703E+02  0.47000000000E+01 0.  1.
         11    1    6    6    0    0  0.24070999705E+02 -0.18958926916E+02  0.10867213341E+02  0.32510771483E+02  0.00000000000E+00 0. -1.
        -12    1    6    6    0    0  0.10459991926E+02  0.70462251170E+02 -0.93861679949E+01  0.71850124708E+02  0.00000000000E+00 0.  1.
<mgrwt>
<rscale>  2 0.19441640E+03</rscale>
<asrwt>0</asrwt>
<pdfrwt beam="1">  1       21 0.15083549E-01 0.19449260E+03</pdfrwt>
<pdfrwt beam="2">  1       21 0.80267598E-01 0.19449260E+03</pdfrwt>
<totfact> 0.52962622E+04</totfact>
</mgrwt>
</event>
<event>
12    1  0.1029207E-001  0.1898389E+03  0.7546771E-02  0.1158814E+00
         21   -1    0    0  503  502  0.00000000000E+00  0.00000000000E+00  0.91691329812E+03  0.91691329812E+03  0.00000000000E+00 0. -1.
         21   -1    0    0  501  503 -0.00000000000E+00 -0.00000000000E+00 -0.50006718102E+02  0.50006718102E+02  0.00000000000E+00 0. -1.
          6    2    1    2  501    0  0.19614366550E+02  0.74520176529E+02  0.20700104907E+03  0.28025116238E+03  0.17249144794E+03 0.  0.
         24    2    3    3    0    0  0.52571341410E+02  0.10637709339E+03  0.16189352139E+03  0.21577012332E+03  0.79166924372E+02 0.  0.
         -6    2    1    2    0  502 -0.19614366550E+02 -0.74520176529E+02  0.65990553094E+03  0.68666885384E+03  0.17349589326E+03 0.  0.
        -24    2    5    5    0    0  0.35388091249E+02 -0.33615711095E+02  0.54919236069E+03  0.55636942282E+03  0.74514109912E+02 0.  0.
          5    1    3    3  501    0 -0.32956974860E+02 -0.31856916866E+02  0.45107527685E+02  0.64481039057E+02  0.47000000000E+01 0. -1.
        -13    1    4    4    0    0  0.37694739799E+02  0.26149543923E+01  0.40797288151E+02  0.55607104901E+02  0.00000000000E+00 0.  1.
         14    1    4    4    0    0  0.14876601611E+02  0.10376213900E+03  0.12109623324E+03  0.16016301842E+03  0.00000000000E+00 0. -1.
         -5    1    5    5    0  502 -0.55002457799E+02 -0.40904465433E+02  0.11071317026E+03  0.13029943102E+03  0.47000000000E+01 0.  1.
         13    1    6    6    0    0  0.47133943605E+02 -0.14441794761E+02  0.18411905866E+03  0.19060430698E+03  0.00000000000E+00 0. -1.
        -14    1    6    6    0    0 -0.11745852356E+02 -0.19173916335E+02  0.36507330202E+03  0.36576511584E+03  0.00000000000E+00 0.  1.
<mgrwt>
<rscale>  2 0.18960909E+03</rscale>
<asrwt>0</asrwt>
<pdfrwt beam="1">  1       21 0.14106357E+00 0.18983889E+03</pdfrwt>
<pdfrwt beam="2">  1       21 0.76933419E-02 0.18983889E+03</pdfrwt>
<totfact> 0.45140100E+04</totfact>
</mgrwt>
</event>
<event>
12    1  0.1029207E-001  0.2738482E+03  0.7546771E-02  0.1099260E+00
         21   -1    0    0  503  502  0.00000000000E+00  0.00000000000E+00  0.14589610548E+03  0.14589610548E+03  0.00000000000E+00 0. -1.
         21   -1    0    0  501  503 -0.00000000000E+00 -0.00000000000E+00 -0.63171459757E+03  0.63171459757E+03  0.00000000000E+00 0. -1.
          6    2    1    2  501    0 -0.15857316387E+03  0.14264777059E+03 -0.41269109983E+03  0.49528453810E+03  0.17175271482E+03 0.  0.
         24    2    3    3    0    0 -0.13880563086E+03  0.36658795368E+02 -0.23392566712E+03  0.28646981601E+03  0.82054051139E+02 0.  0.
         -6    2    1    2    0  502  0.15857316387E+03 -0.14264777059E+03 -0.73127392260E+02  0.28232616494E+03  0.16990177503E+03 0.  0.
        -24    2    5    5    0    0  0.46891641717E+02 -0.89224897718E+02 -0.90304886069E+02  0.15725049972E+03  0.80080202169E+02 0.  0.
          5    1    3    3  501    0 -0.19767533007E+02  0.10598897523E+03 -0.17876543271E+03  0.20881472210E+03  0.47000000000E+01 0. -1.
        -13    1    4    4    0    0 -0.56580367818E+02 -0.25718239302E+02 -0.88178053229E+02  0.10788018783E+03  0.00000000000E+00 0.  1.
         14    1    4    4    0    0 -0.82225263046E+02  0.62377034670E+02 -0.14574761389E+03  0.17858962818E+03  0.00000000000E+00 0. -1.
         -5    1    5    5    0  502  0.11168152215E+03 -0.53422872876E+02  0.17177493809E+02  0.12507566522E+03  0.47000000000E+01 0.  1.
         11    1    6    6    0    0  0.34128400205E+02 -0.67945242159E+02 -0.14391895295E+02  0.77384948684E+02  0.00000000000E+00 0. -1.
        -12    1    6    6    0    0  0.12763241512E+02 -0.21279655559E+02 -0.75912990774E+02  0.79865551039E+02  0.00000000000E+00 0.  1.
<mgrwt>
<rscale>  2 0.27355846E+03</rscale>
<asrwt>0</asrwt>
<pdfrwt beam="1">  1       21 0.22445554E-01 0.27384819E+03</pdfrwt>
<pdfrwt beam="2">  1       21 0.97186862E-01 0.27384819E+03</pdfrwt>
<totfact> 0.15596359E+04</totfact>
</mgrwt>
</event>
<event>
11    1  0.1029207E-001  0.2212794E+03  0.7546771E-02  0.1133070E+00
         21   -1    0    0  503  502  0.00000000000E+00  0.00000000000E+00  0.20030065672E+03  0.20030065672E+03  0.00000000000E+00 0. -1.
         21   -1    0    0  501  503 -0.00000000000E+00 -0.00000000000E+00 -0.93564334200E+03  0.93564334200E+03  0.00000000000E+00 0. -1.
          6    2    1    2  501    0 -0.20718359891E+02  0.13613380620E+03 -0.85628734814E+03  0.88441653595E+03  0.17321351809E+03 0.  0.
         -6    2    1    2    0  502  0.20718359891E+02 -0.13613380620E+03  0.12094466286E+03  0.25152746276E+03  0.17226952552E+03 0.  0.
        -24    2    4    4    0    0  0.55756255094E+02 -0.14459940725E+03  0.12853521460E+03  0.21439221028E+03  0.73654394846E+02 0.  0.
          5    1    3    3  501    0  0.25706651871E+02 -0.76952068531E+01 -0.12449330918E+03  0.12743909208E+03  0.47000000000E+01 0. -1.
        -13    1    3    3    0    0  0.12707962302E+02  0.20049495305E+02 -0.17145728930E+02  0.29282257229E+02  0.00000000000E+00 0.  1.
         14    1    3    3    0    0 -0.59132974065E+02  0.12377951775E+03 -0.71464831003E+03  0.72769518665E+03  0.00000000000E+00 0. -1.
         -5    1    4    4    0  502 -0.35037895203E+02  0.84656010476E+01 -0.75905517380E+01  0.37135252484E+02  0.47000000000E+01 0.  1.
         13    1    5    5    0    0  0.72689081678E+02 -0.12643245264E+03  0.11718846671E+03  0.18708822626E+03  0.00000000000E+00 0. -1.
        -14    1    5    5    0    0 -0.16932826583E+02 -0.18166954607E+02  0.11346747883E+02  0.27303984019E+02  0.00000000000E+00 0.  1.
<mgrwt>
<rscale>  2 0.22109466E+03</rscale>
<asrwt>0</asrwt>
<pdfrwt beam="1">  1       21 0.30815485E-01 0.22127943E+03</pdfrwt>
<pdfrwt beam="2">  1       21 0.14394513E+00 0.22127943E+03</pdfrwt>
<totfact> 0.32860274E+03</totfact>
</mgrwt>
</event>
<event>
12    1  0.1029207E-001  0.1855415E+03  0.7546771E-02  0.1162546E+00
         21   -1    0    0  503  502  0.00000000000E+00  0.00000000000E+00  0.41499102775E+02  0.41499102775E+02  0.00000000000E+00 0.  1.
         21   -1    0    0  501  503 -0.00000000000E+00 -0.00000000000E+00 -0.99944585279E+03  0.99944585279E+03  0.00000000000E+00 0.  1.
          6    2    1    2  501    0 -0.63868015622E+02  0.15249381066E+02 -0.69356916385E+03  0.71795710557E+03  0.17352969011E+03 0.  0.
         24    2    3    3    0    0  0.64583770171E+01 -0.24322806000E+02 -0.51740848523E+03  0.52413648183E+03  0.79838596439E+02 0.  0.
         -6    2    1    2    0  502  0.63868015622E+02 -0.15249381066E+02 -0.26437758617E+03  0.32298785000E+03  0.17353378961E+03 0.  0.
        -24    2    5    5    0    0  0.65963041588E+01 -0.67530187828E+02 -0.17804026469E+03  0.20684330742E+03  0.80510747601E+02 0.  0.
          5    1    3    3  501    0 -0.70326392639E+02  0.39572187066E+02 -0.17616067862E+03  0.19382062373E+03  0.47000000000E+01 0. -1.
        -13    1    4    4    0    0 -0.94006119834E+01  0.14830818944E+02 -0.37943234889E+03  0.37983842892E+03  0.00000000000E+00 0.  1.
         14    1    4    4    0    0  0.15858989001E+02 -0.39153624944E+02 -0.13797613633E+03  0.14429805292E+03  0.00000000000E+00 0. -1.
         -5    1    5    5    0  502  0.57271711463E+02  0.52280806762E+02 -0.86337321477E+02  0.11614454257E+03  0.47000000000E+01 0.  1.
         11    1    6    6    0    0  0.29312150249E+02 -0.49252593809E+01 -0.99618174764E+02  0.10395788126E+03  0.00000000000E+00 0. -1.
        -12    1    6    6    0    0 -0.22715846090E+02 -0.62604928447E+02 -0.78422089924E+02  0.10288542617E+03  0.00000000000E+00 0.  1.
<mgrwt>
<rscale>  2 0.18554053E+03</rscale>
<asrwt>0</asrwt>
<pdfrwt beam="1">  1       21 0.63844777E-02 0.18554149E+03</pdfrwt>
<pdfrwt beam="2">  1       21 0.15376089E+00 0.18554149E+03</pdfrwt>
<totfact> 0.49827088E+04</totfact>
</mgrwt>
</event>
<event>
12    1  0.1029207E-001  0.1768529E+03  0.7546771E-02  0.1170951E+00
         21   -1    0    0  501  502  0.00000000000E+00  0.00000000000E+00  0.10978467170E+03  0.10978467170E+03  0.00000000000E+00 0.  1.
         21   -1    0    0  502  503 -0.00000000000E+00 -0.00000000000E+00 -0.28446002437E+03  0.28446002437E+03  0.00000000000E+00 0.  1.
         -6    2    1    2    0  503  0.32088945027E+02  0.10512812300E+02 -0.87617877751E+02  0.19736731156E+03  0.17359937660E+03 0.  0.
        -24    2    3    3    0    0  0.81841598708E+02 -0.21447916024E+02 -0.58533590201E+02  0.13130067485E+03  0.81582017960E+02 0.  0.
          6    2    1    2  501    0 -0.32088945027E+02 -0.10512812300E+02 -0.87057474917E+02  0.19687738451E+03  0.17332478466E+03 0.  0.
         24    2    5    5    0    0  0.47348682547E+02 -0.17312779298E+02 -0.33030507710E+02  0.10045342789E+03  0.80363217140E+02 0.  0.
          5    1    5    5  501    0 -0.79437627574E+02  0.67999669982E+01 -0.54026967207E+02  0.96423956625E+02  0.47000000000E+01 0. -1.
        -11    1    6    6    0    0  0.44967085144E+02  0.73440433548E+01  0.13687426026E+02  0.47574356016E+02  0.00000000000E+00 0.  1.
         12    1    6    6    0    0  0.23815974032E+01 -0.24656822653E+02 -0.46717933736E+02  0.52879071873E+02  0.00000000000E+00 0. -1.
         -5    1    3    3    0  503 -0.49752653682E+02  0.31960728324E+02 -0.29084287550E+02  0.66066636706E+02  0.47000000000E+01 0.  1.
         11    1    4    4    0    0  0.60102375542E+02  0.22223299289E+02 -0.51089534481E+02  0.81953103117E+02  0.00000000000E+00 0. -1.
        -12    1    4    4    0    0  0.21739223166E+02 -0.43671215313E+02 -0.74440557207E+01  0.49347571737E+02  0.00000000000E+00 0.  1.
<mgrwt>
<rscale>  2 0.17678552E+03</rscale>
<asrwt>0</asrwt>
<pdfrwt beam="1">  1       21 0.16889950E-01 0.17685294E+03</pdfrwt>
<pdfrwt beam="2">  1       21 0.43763081E-01 0.17685294E+03</pdfrwt>
<totfact> 0.15919966E+05</totfact>
</mgrwt>
</event>
<event>
12    1  0.1029207E-001  0.1807786E+03  0.7546771E-02  0.1167433E+00
         21   -1    0    0  503  502  0.00000000000E+00  0.00000000000E+00  0.81093123330E+03  0.81093123330E+03  0.00000000000E+00 0. -1.
         21   -1    0    0  501  503 -0.00000000000E+00 -0.00000000000E+00 -0.49055876867E+02  0.49055876867E+02  0.00000000000E+00 0. -1.
          6    2    1    2  501    0 -0.25038164746E+00 -0.37951869786E+02  0.19703782223E+03  0.26740380200E+03  0.17674977461E+03 0.  0.
         24    2    3    3    0    0  0.74618090510E+02 -0.23724939042E+02  0.10989734523E+03  0.15154506727E+03  0.68976436275E+02 0.  0.
         -6    2    1    2    0  502  0.25038164746E+00  0.37951869786E+02  0.56483753420E+03  0.59258330817E+03  0.17513746019E+03 0.  0.
        -24    2    5    5    0    0  0.62472062416E+02 -0.39103397345E+01  0.30080974090E+03  0.31807147276E+03  0.82249086452E+02 0.  0.
          5    1    3    3  501    0 -0.74868472158E+02 -0.14226930744E+02  0.87140476994E+02  0.11585873473E+03  0.47000000000E+01 0. -1.
        -13    1    4    4    0    0  0.52573391773E+02  0.19146436460E+02  0.63571168103E+02  0.84686722487E+02  0.00000000000E+00 0.  1.
         14    1    4    4    0    0  0.22044698737E+02 -0.42871375502E+02  0.46326177132E+02  0.66858344786E+02  0.00000000000E+00 0. -1.
         -5    1    5    5    0  502 -0.62221680769E+02  0.41862209520E+02  0.26402779330E+03  0.27451183541E+03  0.47000000000E+01 0.  1.
         13    1    6    6    0    0  0.48894591432E+02  0.20442623022E+02  0.27505721379E+03  0.28011614157E+03  0.00000000000E+00 0. -1.
        -14    1    6    6    0    0  0.13577470984E+02 -0.24352962757E+02  0.25752527110E+02  0.37955331192E+02  0.00000000000E+00 0.  1.
<mgrwt>
<rscale>  2 0.18038326E+03</rscale>
<asrwt>0</asrwt>
<pdfrwt beam="1">  1       21 0.12475864E+00 0.18077857E+03</pdfrwt>
<pdfrwt beam="2">  1       21 0.75470585E-02 0.18077857E+03</pdfrwt>
<totfact> 0.64027123E+04</totfact>
</mgrwt>
</event>
<event>
12    1  0.1029207E-001  0.1908197E+03  0.7546771E-02  0.1158863E+00
         21   -1    0    0  501  502  0.00000000000E+00  0.00000000000E+00  0.14538887586E+03  0.14538887586E+03  0.00000000000E+00 0.  1.
         21   -1    0    0  502  503 -0.00000000000E+00 -0.00000000000E+00 -0.25411521066E+03  0.25411521066E+03  0.00000000000E+00 0. -1.
         -6    2    1    2    0  503  0.72150080119E+02  0.19432818200E+02 -0.95068174417E+02  0.21319028666E+03  0.17558152538E+03 0.  0.
        -24    2    3    3    0    0  0.54566231675E+02  0.35600266649E+02 -0.13264251329E+03  0.16841865437E+03  0.80783378139E+02 0.  0.
          6    2    1    2  501    0 -0.72150080119E+02 -0.19432818200E+02 -0.13658160389E+02  0.18631379986E+03  0.17012647703E+03 0.  0.
         24    2    5    5    0    0  0.81915179749E+01 -0.53230166975E+02  0.95604688316E+01  0.95990890741E+02  0.78881537117E+02 0.  0.
          5    1    5    5  501    0 -0.80341598094E+02  0.33797348775E+02 -0.23218629221E+02  0.90322909117E+02  0.47000000000E+01 0. -1.
        -11    1    6    6    0    0 -0.10905649229E+02 -0.69418597941E+02  0.98292326614E+01  0.70954131239E+02  0.00000000000E+00 0.  1.
         12    1    6    6    0    0  0.19097167204E+02  0.16188430966E+02 -0.26876382982E+00  0.25036759502E+02  0.00000000000E+00 0. -1.
         -5    1    3    3    0  503  0.17583848444E+02 -0.16167448448E+02  0.37574338878E+02  0.44771632286E+02  0.47000000000E+01 0.  1.
         13    1    4    4    0    0  0.57919020132E+02 -0.92687625178E+01 -0.79255933855E+02  0.98600334193E+02  0.00000000000E+00 0. -1.
        -14    1    4    4    0    0 -0.33527884570E+01  0.44869029167E+02 -0.53386579439E+02  0.69818320182E+02  0.00000000000E+00 0.  1.
<mgrwt>
<rscale>  2 0.18955536E+03</rscale>
<asrwt>0</asrwt>
<pdfrwt beam="1">  1       21 0.22367519E-01 0.19081965E+03</pdfrwt>
<pdfrwt beam="2">  1       21 0.39094648E-01 0.19081965E+03</pdfrwt>
<totfact> 0.11810188E+05</totfact>
</mgrwt>
</event>
<event>
12    1  0.1029207E-001  0.1941203E+03  0.7546771E-02  0.1154947E+00
         21   -1    0    0  501  502  0.00000000000E+00  0.00000000000E+00  0.34031318452E+03  0.34031318452E+03  0.00000000000E+00 0. -1.
         21   -1    0    0  502  503 -0.00000000000E+00 -0.00000000000E+00 -0.15028545293E+03  0.15028545293E+03  0.00000000000E+00 0. -1.
         -6    2    1    2    0  503 -0.81992490176E+02 -0.29080162957E+02 -0.31576111918E+02  0.19599559636E+03  0.17276804863E+03 0.  0.
        -24    2    3    3    0    0 -0.94970488783E+02 -0.71943271611E+02 -0.42244914574E+02  0.14971830299E+03  0.80222873134E+02 0.  0.
          6    2    1    2  501    0  0.81992490176E+02  0.29080162957E+02  0.22160384351E+03  0.29460304110E+03  0.17353461915E+03 0.  0.
         24    2    5    5    0    0  0.41497818094E+02  0.81901746318E+02  0.10856619888E+03  0.16334170925E+03  0.80398566432E+02 0.  0.
          5    1    5    5  501    0  0.40494672082E+02 -0.52821583361E+02  0.11303764463E+03  0.13126133185E+03  0.47000000000E+01 0. -1.
        -13    1    6    6    0    0  0.66164901408E-01  0.59129221980E+02  0.98683616435E+02  0.11504227667E+03  0.00000000000E+00 0.  1.
         14    1    6    6    0    0  0.41431653193E+02  0.22772524338E+02  0.98825824419E+01  0.48299432571E+02  0.00000000000E+00 0. -1.
         -5    1    3    3    0  503  0.12977998607E+02  0.42863108654E+02  0.10668802656E+02  0.46277293368E+02  0.47000000000E+01 0.  1.
         11    1    4    4    0    0 -0.71229356548E+01  0.81136892052E+00 -0.34670376955E+02  0.35403807282E+02  0.00000000000E+00 0. -1.
        -12    1    4    4    0    0 -0.87847553128E+02 -0.72754640532E+02 -0.75745376193E+01  0.11431449571E+03  0.00000000000E+00 0.  1.
<mgrwt>
<rscale>  2 0.19394882E+03</rscale>
<asrwt>0</asrwt>
<pdfrwt beam="1">  1       21 0.52355874E-01 0.19412029E+03</pdfrwt>
<pdfrwt beam="2">  1       21 0.23120839E-01 0.19412029E+03</pdfrwt>
<totfact> 0.60773927E+04</totfact>
</mgrwt>
</event>
<event>
12    1  0.1029207E-001  0.2039113E+03  0.7546771E-02  0.1146483E+00
         21   -1    0    0  503  502  0.00000000000E+00  0.00000000000E+00  0.29907310239E+03  0.29907310239E+03  0.00000000000E+00 0. -1.
         21   -1    0    0  501  503 -0.00000000000E+00 -0.00000000000E+00 -0.28330576713E+03  0.28330576713E+03  0.00000000000E+00 0.  1.
          6    2    1    2  501    0 -0.26309913197E+02 -0.10484744705E+03  0.21569087339E+03  0.29682044380E+03  0.17290061975E+03 0.  0.
         24    2    3    3    0    0  0.28790246952E+02 -0.75631512246E+02  0.59188137534E+02  0.12828322291E+03  0.80027155963E+02 0.  0.
         -6    2    1    2    0  502  0.26309913197E+02  0.10484744705E+03 -0.19992353813E+03  0.28555842572E+03  0.17288433913E+03 0.  0.
        -24    2    5    5    0    0 -0.36819060597E+02  0.81395974597E+01 -0.94908140598E+02  0.12939185048E+03  0.79453127991E+02 0.  0.
          5    1    3    3  501    0 -0.55100160149E+02 -0.29215934800E+02  0.15650273586E+03  0.16853722089E+03  0.47000000000E+01 0. -1.
        -13    1    4    4    0    0  0.10796795274E+02  0.10199177744E+02 -0.88492503647E+01  0.17288818550E+02  0.00000000000E+00 0.  1.
         14    1    4    4    0    0  0.17993451679E+02 -0.85830689990E+02  0.68037387899E+02  0.11099440436E+03  0.00000000000E+00 0. -1.
         -5    1    5    5    0  502  0.63128973794E+02  0.96707849586E+02 -0.10501539753E+03  0.15616657524E+03  0.47000000000E+01 0.  1.
         13    1    6    6    0    0 -0.59296563977E+02 -0.35455435291E+01 -0.81135889143E+02  0.10055687886E+03  0.00000000000E+00 0. -1.
        -14    1    6    6    0    0  0.22477503380E+02  0.11685140989E+02 -0.13772251456E+02  0.28834971619E+02  0.00000000000E+00 0.  1.
<mgrwt>
<rscale>  2 0.20390786E+03</rscale>
<asrwt>0</asrwt>
<pdfrwt beam="1">  1       21 0.46011247E-01 0.20391131E+03</pdfrwt>
<pdfrwt beam="2">  1       21 0.43585503E-01 0.20391131E+03</pdfrwt>
<totfact> 0.22752117E+04</totfact>
</mgrwt>
</event>
<event>
12    1  0.1029207E-001  0.1967016E+03  0.7546771E-02  0.1152632E+00
         21   -1    0    0  501  502  0.00000000000E+00  0.00000000000E+00  0.11807808981E+03  0.11807808981E+03  0.00000000000E+00 0.  1.
         21   -1    0    0  502  503 -0.00000000000E+00 -0.00000000000E+00 -0.41713382974E+03  0.41713382974E+03  0.00000000000E+00 0. -1.
         -6    2    1    2    0  503 -0.13266022551E+02  0.92483212637E+02 -0.27399437559E+03  0.33728986833E+03  0.17309652061E+03 0.  0.
        -24    2    3    3    0    0 -0.44191825926E+02  0.12263363978E+03 -0.22676459915E+03  0.27311670140E+03  0.78604211530E+02 0.  0.
          6    2    1    2  501    0  0.13266022551E+02 -0.92483212637E+02 -0.25061364340E+02  0.19792205122E+03  0.17267291161E+03 0.  0.
         24    2    5    5    0    0 -0.28089426699E+02 -0.73666102245E+02 -0.70825837031E+02  0.13326268387E+03  0.80789437480E+02 0.  0.
          5    1    5    5  501    0  0.41355449249E+02 -0.18817110392E+02  0.45764472691E+02  0.64659367355E+02  0.47000000000E+01 0. -1.
        -13    1    6    6    0    0  0.11132850681E+02 -0.46282190646E+02  0.23282561118E+00  0.47602896373E+02  0.00000000000E+00 0.  1.
         14    1    6    6    0    0 -0.39222277380E+02 -0.27383911599E+02 -0.71058662642E+02  0.85659787496E+02  0.00000000000E+00 0. -1.
         -5    1    3    3    0  503  0.30925803376E+02 -0.30150427142E+02 -0.47229776443E+02  0.64173166932E+02  0.47000000000E+01 0.  1.
         11    1    4    4    0    0 -0.25931907014E+02  0.11286955762E+03 -0.22407888173E+03  0.25223668662E+03  0.00000000000E+00 0. -1.
        -12    1    4    4    0    0 -0.18259918913E+02  0.97640821553E+01 -0.26857174196E+01  0.20880014777E+02  0.00000000000E+00 0.  1.
<mgrwt>
<rscale>  2 0.19660841E+03</rscale>
<asrwt>0</asrwt>
<pdfrwt beam="1">  1       21 0.18165860E-01 0.19670165E+03</pdfrwt>
<pdfrwt beam="2">  1       21 0.64174437E-01 0.19670165E+03</pdfrwt>
<totfact> 0.61741151E+04</totfact>
</mgrwt>
</event>
<event>
12    1  0.1029207E-001  0.4002864E+03  0.7546771E-02  0.1043801E+00
         21   -1    0    0  501  502  0.00000000000E+00  0.00000000000E+00  0.15814875542E+03  0.15814875542E+03  0.00000000000E+00 0. -1.
         21   -1    0    0  502  503 -0.00000000000E+00 -0.00000000000E+00 -0.10148539772E+04  0.10148539772E+04  0.00000000000E+00 0.  1.
         -6    2    1    2    0  503 -0.35133789191E+03 -0.73593418326E+02 -0.46962172079E+03  0.61616984497E+03  0.17397244526E+03 0.  0.
        -24    2    3    3    0    0 -0.25132264387E+03 -0.84881503708E+02 -0.24445904986E+03  0.36949031787E+03  0.79968287153E+02 0.  0.
          6    2    1    2  501    0  0.35133789191E+03  0.73593418326E+02 -0.38708350098E+03  0.55683288764E+03  0.17712967712E+03 0.  0.
         24    2    5    5    0    0  0.15764308746E+03 -0.97134384084E+01 -0.24430065467E+03  0.30214338874E+03  0.81621832731E+02 0.  0.
          5    1    5    5  501    0  0.19369480445E+03  0.83306856734E+02 -0.14278284631E+03  0.25468949890E+03  0.47000000000E+01 0. -1.
        -11    1    6    6    0    0  0.21559891065E+02  0.28922810144E+02 -0.43395578978E+02  0.56431676603E+02  0.00000000000E+00 0.  1.
         12    1    6    6    0    0  0.13608319640E+03 -0.38636248552E+02 -0.20090507569E+03  0.24571171214E+03  0.00000000000E+00 0. -1.
         -5    1    3    3    0  503 -0.10001524804E+03  0.11288085383E+02 -0.22516267093E+03  0.24667952710E+03  0.47000000000E+01 0.  1.
         11    1    4    4    0    0 -0.34453411595E+02  0.14854309224E+02 -0.23869684336E+02  0.44468527110E+02  0.00000000000E+00 0. -1.
        -12    1    4    4    0    0 -0.21686923227E+03 -0.99735812932E+02 -0.22058936552E+03  0.32502179076E+03  0.00000000000E+00 0.  1.
<mgrwt>
<rscale>  2 0.39993922E+03</rscale>
<asrwt>0</asrwt>
<pdfrwt beam="1">  1       21 0.24330578E-01 0.40028643E+03</pdfrwt>
<pdfrwt beam="2">  1       21 0.15613138E+00 0.40028643E+03</pdfrwt>
<totfact> 0.37827532E+03</totfact>
</mgrwt>
</event>
<event>
12    1  0.1029207E-001  0.2318233E+03  0.7546771E-02  0.1127230E+00
         21   -1    0    0  503  502  0.00000000000E+00  0.00000000000E+00  0.12878039659E+03  0.12878039659E+03  0.00000000000E+00 0.  1.
         21   -1    0    0  501  503 -0.00000000000E+00 -0.00000000000E+00 -0.40836289910E+03  0.40836289910E+03  0.00000000000E+00 0.  1.
          6    2    1    2  501    0  0.44003962155E+01  0.15454443399E+03 -0.10164563517E+03  0.25312817087E+03  0.17273879175E+03 0.  0.
         24    2    3    3    0    0  0.16206527874E+02  0.17733908348E+03 -0.60754022727E+02  0.20461843207E+03  0.80410505489E+02 0.  0.
         -6    2    1    2    0  502 -0.44003962155E+01 -0.15454443399E+03 -0.17793686735E+03  0.28401512482E+03  0.15842890140E+03 0.  0.
        -24    2    5    5    0    0 -0.27079956218E+02 -0.28025332516E+02 -0.66058790089E+02  0.11354448321E+03  0.83724802940E+02 0.  0.
          5    1    3    3  501    0 -0.11806131659E+02 -0.22794649484E+02 -0.40891612441E+02  0.48509738794E+02  0.47000000000E+01 0. -1.
        -13    1    4    4    0    0  0.23047341772E+02  0.33559982550E+02 -0.43609316022E+02  0.59659239313E+02  0.00000000000E+00 0.  1.
         14    1    4    4    0    0 -0.68408138974E+01  0.14377910093E+03 -0.17144706705E+02  0.14495919276E+03  0.00000000000E+00 0. -1.
         -5    1    5    5    0  502  0.22679560003E+02 -0.12651910148E+03 -0.11187807726E+03  0.17047064161E+03  0.47000000000E+01 0.  1.
         11    1    6    6    0    0  0.10093546095E+02  0.24333405262E+02 -0.29903807719E+02  0.39852628527E+02  0.00000000000E+00 0. -1.
        -12    1    6    6    0    0 -0.37173502313E+02 -0.52358737778E+02 -0.36154982370E+02  0.73691854680E+02  0.00000000000E+00 0.  1.
<mgrwt>
<rscale>  2 0.22916363E+03</rscale>
<asrwt>0</asrwt>
<pdfrwt beam="1">  1       21 0.19812369E-01 0.23182329E+03</pdfrwt>
<pdfrwt beam="2">  1       21 0.62825061E-01 0.23182329E+03</pdfrwt>
<totfact> 0.54148459E+04</totfact>
</mgrwt>
</event>
<event>
12    1  0.1029207E-001  0.1814712E+03  0.7546771E-02  0.1166578E+00
         21   -1    0    0  501  502  0.00000000000E+00  0.00000000000E+00  0.41551129171E+03  0.41551129171E+03  0.00000000000E+00 0. -1.
         21   -1    0    0  502  503 -0.00000000000E+00 -0.00000000000E+00 -0.10090352868E+03  0.10090352868E+03  0.00000000000E+00 0. -1.
         -6    2    1    2    0  503 -0.17712446135E+02  0.51022764475E+02  0.37020099896E+02  0.18520873259E+03  0.17324760774E+03 0.  0.
        -24    2    3    3    0    0 -0.12366165958E+02  0.23025432256E+02  0.89914403916E+02  0.12493991212E+03  0.82718129918E+02 0.  0.
          6    2    1    2  501    0  0.17712446135E+02 -0.51022764475E+02  0.27758766314E+03  0.33120608781E+03  0.17241087156E+03 0.  0.
         24    2    5    5    0    0  0.70920868275E+02 -0.50937752832E+02  0.17851566420E+03  0.21865168146E+03  0.91193701655E+02 0.  0.
          5    1    5    5  501    0 -0.53208422140E+02 -0.85011642640E-01  0.99071998941E+02  0.11255440635E+03  0.47000000000E+01 0. -1.
        -11    1    6    6    0    0  0.22957344245E+02 -0.15671450106E+02 -0.26812855263E+01  0.27925316387E+02  0.00000000000E+00 0.  1.
         12    1    6    6    0    0  0.47963524030E+02 -0.35266302726E+02  0.18119694972E+03  0.19072636508E+03  0.00000000000E+00 0. -1.
         -5    1    3    3    0  503 -0.53462801769E+01  0.27997332219E+02 -0.52894304020E+02  0.60268820470E+02  0.47000000000E+01 0.  1.
         11    1    4    4    0    0  0.14613872923E+02  0.39040083648E+02  0.16015381561E+02  0.44656308173E+02  0.00000000000E+00 0. -1.
        -12    1    4    4    0    0 -0.26980038881E+02 -0.16014651393E+02  0.73899022355E+02  0.80283603944E+02  0.00000000000E+00 0.  1.
<mgrwt>
<rscale>  2 0.18127118E+03</rscale>
<asrwt>0</asrwt>
<pdfrwt beam="1">  1       21 0.63924813E-01 0.18147117E+03</pdfrwt>
<pdfrwt beam="2">  1       21 0.15523620E-01 0.18147117E+03</pdfrwt>
<totfact> 0.83657163E+04</totfact>
</mgrwt>
</event>
<event>
12    1  0.1029207E-001  0.2816867E+03  0.7546771E-02  0.1094872E+00
         21   -1    0    0  503  502  0.00000000000E+00  0.00000000000E+00  0.77764653368E+03  0.77764653368E+03  0.00000000000E+00 0.  1.
         21   -1    0    0  501  503 -0.00000000000E+00 -0.00000000000E+00 -0.24824269583E+03  0.24824269583E+03  0.00000000000E+00 0. -1.
          6    2    1    2  501    0 -0.22281462854E+03  0.48245965387E+01  0.65857564004E+03  0.71599772265E+03  0.17105914113E+03 0.  0.
         24    2    3    3    0    0 -0.23816072133E+03  0.15869518150E+02  0.53663086632E+03  0.59250638411E+03  0.78222488671E+02 0.  0.
         -6    2    1    2    0  502  0.22281462854E+03 -0.48245965387E+01 -0.12917180218E+03  0.30989150686E+03  0.17227233127E+03 0.  0.
        -24    2    5    5    0    0  0.21183954721E+03 -0.45463841384E+02 -0.79030073689E+02  0.24425399039E+03  0.80444419565E+02 0.  0.
          5    1    3    3  501    0  0.15346092787E+02 -0.11044921611E+02  0.12194477372E+03  0.12349133854E+03  0.47000000000E+01 0. -1.
        -11    1    4    4    0    0 -0.16725398668E+03  0.14218377897E+02  0.45154837577E+03  0.48173851205E+03  0.00000000000E+00 0.  1.
         12    1    4    4    0    0 -0.70906734653E+02  0.16511402529E+01  0.85082490552E+02  0.11076787207E+03  0.00000000000E+00 0. -1.
         -5    1    5    5    0  502  0.10975081332E+02  0.40639244845E+02 -0.50141728493E+02  0.65637516468E+02  0.47000000000E+01 0.  1.
         13    1    6    6    0    0  0.16804178592E+03 -0.40358680107E+02 -0.95177865922E+02  0.19729594785E+03  0.00000000000E+00 0. -1.
        -14    1    6    6    0    0  0.43797761289E+02 -0.51051612767E+01  0.16147792232E+02  0.46958042544E+02  0.00000000000E+00 0.  1.
<mgrwt>
<rscale>  2 0.28150143E+03</rscale>
<asrwt>0</asrwt>
<pdfrwt beam="1">  1       21 0.11963793E+00 0.28168669E+03</pdfrwt>
<pdfrwt beam="2">  1       21 0.38191184E-01 0.28168669E+03</pdfrwt>
<totfact> 0.32986670E+03</totfact>
</mgrwt>
</event>
<event>
12    1  0.1029207E-001  0.2237032E+03  0.7546771E-02  0.1131367E+00
         21   -1    0    0  503  502  0.00000000000E+00  0.00000000000E+00  0.30436129374E+03  0.30436129374E+03  0.00000000000E+00 0.  1.
         21   -1    0    0  501  503 -0.00000000000E+00 -0.00000000000E+00 -0.17694468082E+03  0.17694468082E+03  0.00000000000E+00 0.  1.
          6    2    1    2  501    0 -0.11606837618E+03  0.78927664289E+02 -0.26401626582E+01  0.22254378016E+03  0.17267692229E+03 0.  0.
         24    2    3    3    0    0 -0.68093504830E+02 -0.20348987113E+02  0.13070626789E+02  0.11107019271E+03  0.84350102238E+02 0.  0.
         -6    2    1    2    0  502  0.11606837618E+03 -0.78927664289E+02  0.13005677558E+03  0.25876219439E+03  0.17418858813E+03 0.  0.
        -24    2    5    5    0    0  0.10785876406E+03 -0.38738901200E+02  0.15623074183E+03  0.20987762710E+03  0.80661999830E+02 0.  0.
          5    1    3    3  501    0 -0.47974871350E+02  0.99276651402E+02 -0.15710789447E+02  0.11147358745E+03  0.47000000000E+01 0. -1.
        -13    1    4    4    0    0 -0.79755140251E+02  0.54134196897E+01  0.52307379774E-01  0.79938665521E+02  0.00000000000E+00 0.  1.
         14    1    4    4    0    0  0.11661635421E+02 -0.25762406803E+02  0.13018319410E+02  0.31131527190E+02  0.00000000000E+00 0. -1.
         -5    1    5    5    0  502  0.82096121252E+01 -0.40188763090E+02 -0.26173966250E+02  0.48884567291E+02  0.47000000000E+01 0.  1.
         13    1    6    6    0    0  0.36477236364E+02  0.27357715063E+01  0.10853676367E+03  0.11453515743E+03  0.00000000000E+00 0. -1.
        -14    1    6    6    0    0  0.71381527692E+02 -0.41474672706E+02  0.47693978157E+02  0.95342469677E+02  0.00000000000E+00 0.  1.
<mgrwt>
<rscale>  2 0.22340883E+03</rscale>
<asrwt>0</asrwt>
<pdfrwt beam="1">  1       21 0.46824815E-01 0.22370317E+03</pdfrwt>
<pdfrwt beam="2">  1       21 0.27222259E-01 0.22370317E+03</pdfrwt>
<totfact> 0.55375174E+04</totfact>
</mgrwt>
</event>
<event>
12    1  0.1029207E-001  0.2508625E+03  0.7546771E-02  0.1112982E+00
         21   -1    0    0  501  502  0.00000000000E+00  0.00000000000E+00  0.21849347200E+03  0.21849347200E+03  0.00000000000E+00 0. -1.
         21   -1    0    0  502  503 -0.00000000000E+00 -0.00000000000E+00 -0.30213109143E+03  0.30213109143E+03  0.00000000000E+00 0. -1.
         -6    2    1    2    0  503 -0.51731819208E+02  0.17385182724E+03  0.17427434582E+02  0.25146715881E+03  0.17329563622E+03 0.  0.
        -24    2    3    3    0    0  0.22067935385E+02  0.15133579720E+03  0.49216022517E+01  0.17316095708E+03  0.81061566742E+02 0.  0.
          6    2    1    2  501    0  0.51731819208E+02 -0.17385182724E+03 -0.10106505401E+03  0.26915740462E+03  0.17126273490E+03 0.  0.
         24    2    5    5    0    0 -0.15694653900E+02 -0.34719136921E+02 -0.66056895192E+02  0.11056391177E+03  0.80057008145E+02 0.  0.
          5    1    5    5  501    0  0.67426473108E+02 -0.13913269031E+03 -0.35008158819E+02  0.15859349285E+03  0.47000000000E+01 0. -1.
        -13    1    6    6    0    0 -0.46558858814E+02 -0.33120964239E+02 -0.48957427007E+02  0.75243307113E+02  0.00000000000E+00 0.  1.
         14    1    6    6    0    0  0.30864204914E+02 -0.15981726822E+01 -0.17099468186E+02  0.35320604654E+02  0.00000000000E+00 0. -1.
         -5    1    3    3    0  503 -0.73799754593E+02  0.22516030037E+02  0.12505832331E+02  0.78306201727E+02  0.47000000000E+01 0.  1.
         11    1    4    4    0    0  0.24253451472E+02  0.15362886261E+03 -0.11954354329E+02  0.15599026868E+03  0.00000000000E+00 0. -1.
        -12    1    4    4    0    0 -0.21855160868E+01 -0.22930654151E+01  0.16875956581E+02  0.17170688398E+02  0.00000000000E+00 0.  1.
<mgrwt>
<rscale>  2 0.25051181E+03</rscale>
<asrwt>0</asrwt>
<pdfrwt beam="1">  1       21 0.33614380E-01 0.25086254E+03</pdfrwt>
<pdfrwt beam="2">  1       21 0.46481707E-01 0.25086254E+03</pdfrwt>
<totfact> 0.36754769E+04</totfact>
</mgrwt>
</event>
<event>
12    1  0.1029207E-001  0.2170870E+03  0.7546771E-02  0.1136167E+00
         21   -1    0    0  501  502  0.00000000000E+00  0.00000000000E+00  0.16328180852E+03  0.16328180852E+03  0.00000000000E+00 0. -1.
         21   -1    0    0  502  503 -0.00000000000E+00 -0.00000000000E+00 -0.29481085739E+03  0.29481085739E+03  0.00000000000E+00 0. -1.
         -6    2    1    2    0  503  0.11936372223E+03  0.56218682814E+02 -0.10058455994E+03  0.23881131198E+03  0.17177121572E+03 0.  0.
        -24    2    3    3    0    0  0.97879312586E+01  0.31980887154E+02 -0.62859086072E+01  0.92153034515E+02  0.85639292278E+02 0.  0.
          6    2    1    2  501    0 -0.11936372223E+03 -0.56218682814E+02 -0.30944488936E+02  0.21928135393E+03  0.17239058066E+03 0.  0.
         24    2    5    5    0    0 -0.11833313408E+03  0.14808894965E+02 -0.16230038142E+02  0.14658620980E+03  0.83678365038E+02 0.  0.
          5    1    5    5  501    0 -0.10305881595E+01 -0.71027577780E+02 -0.14714450794E+02  0.72695144125E+02  0.47000000000E+01 0. -1.
        -13    1    6    6    0    0 -0.61336127218E+02  0.23046937762E+02  0.30641182515E+02  0.72333698290E+02  0.00000000000E+00 0.  1.
         14    1    6    6    0    0 -0.56997006857E+02 -0.82380427970E+01 -0.46871220657E+02  0.74252511511E+02  0.00000000000E+00 0. -1.
         -5    1    3    3    0  503  0.10957579098E+03  0.24237795660E+02 -0.94298651336E+02  0.14665827747E+03  0.47000000000E+01 0.  1.
         13    1    4    4    0    0  0.22211299540E+02  0.11510687873E+02  0.35833957973E+02  0.43702520598E+02  0.00000000000E+00 0. -1.
        -14    1    4    4    0    0 -0.12423368281E+02  0.20470199282E+02 -0.42119866581E+02  0.48450513917E+02  0.00000000000E+00 0.  1.
<mgrwt>
<rscale>  2 0.21696398E+03</rscale>
<asrwt>0</asrwt>
<pdfrwt beam="1">  1       21 0.25120279E-01 0.21708697E+03</pdfrwt>
<pdfrwt beam="2">  1       21 0.45355516E-01 0.21708697E+03</pdfrwt>
<totfact> 0.69234050E+04</totfact>
</mgrwt>
</event>
<event>
12    1  0.1029207E-001  0.1798598E+03  0.7546771E-02  0.1167973E+00
         21   -1    0    0  503  502  0.00000000000E+00  0.00000000000E+00  0.36827532199E+03  0.36827532199E+03  0.00000000000E+00 0. -1.
         21   -1    0    0  501  503 -0.00000000000E+00 -0.00000000000E+00 -0.19259280338E+03  0.19259280338E+03  0.00000000000E+00 0. -1.
          6    2    1    2  501    0  0.37453754848E+01 -0.48276007164E+02 -0.11903105347E+03  0.21568021236E+03  0.17321940309E+03 0.  0.
         24    2    3    3    0    0 -0.22710029507E+02  0.28419145208E+02 -0.77031666709E+02  0.12420303849E+03  0.90383205518E+02 0.  0.
         -6    2    1    2    0  502 -0.37453754848E+01  0.48276007164E+02  0.29471357208E+03  0.34518791302E+03  0.17307225375E+03 0.  0.
        -24    2    5    5    0    0  0.33491642535E+02  0.88567396986E+02  0.20905411816E+03  0.24335656396E+03  0.80950101751E+02 0.  0.
          5    1    3    3  501    0  0.26455404992E+02 -0.76695152372E+02 -0.41999386764E+02  0.91477173870E+02  0.47000000000E+01 0. -1.
        -11    1    4    4    0    0  0.13053061184E+02  0.41241295410E+02 -0.60302447244E+01  0.43675974000E+02  0.00000000000E+00 0.  1.
         12    1    4    4    0    0 -0.35763090692E+02 -0.12822150203E+02 -0.71001421985E+02  0.80527064491E+02  0.00000000000E+00 0. -1.
         -5    1    5    5    0  502 -0.37237018020E+02 -0.40291389822E+02  0.85659453919E+02  0.10183134906E+03  0.47000000000E+01 0.  1.
         13    1    6    6    0    0  0.99977689734E+01 -0.14015443834E+02  0.47742419092E+02  0.50751617029E+02  0.00000000000E+00 0. -1.
        -14    1    6    6    0    0  0.23493873562E+02  0.10258284082E+03  0.16131169907E+03  0.19260494693E+03  0.00000000000E+00 0.  1.
<mgrwt>
<rscale>  2 0.17982440E+03</rscale>
<asrwt>0</asrwt>
<pdfrwt beam="1">  1       21 0.56657742E-01 0.17985984E+03</pdfrwt>
<pdfrwt beam="2">  1       21 0.29629662E-01 0.17985984E+03</pdfrwt>
<totfact> 0.32192846E+04</totfact>
</mgrwt>
</event>
<event>
12    1  0.1029207E-001  0.1769185E+03  0.7546771E-02  0.1171013E+00
         21   -1    0    0  501  502  0.00000000000E+00  0.00000000000E+00  0.87462442849E+02  0.87462442849E+02  0.00000000000E+00 0. -1.
         21   -1    0    0  502  503 -0.00000000000E+00 -0.00000000000E+00 -0.99849765938E+03  0.99849765938E+03  0.00000000000E+00 0. -1.
         -6    2    1    2    0  503 -0.23010515977E+02  0.28062969912E+02 -0.89133564279E+03  0.90872404367E+03  0.17315641859E+03 0.  0.
        -24    2    3    3    0    0 -0.30312064385E+02  0.82550526000E+02 -0.52641991110E+03  0.53966065126E+03  0.79889205320E+02 0.  0.
          6    2    1    2  501    0  0.23010515977E+02 -0.28062969912E+02 -0.19699573741E+02  0.17723605856E+03  0.17235873382E+03 0.  0.
         24    2    5    5    0    0 -0.38639851428E+02  0.31622046470E+02 -0.12107246504E+02  0.90964380624E+02  0.75066245298E+02 0.  0.
          5    1    5    5  501    0  0.61650367405E+02 -0.59685016382E+02 -0.75923272374E+01  0.86271677940E+02  0.47000000000E+01 0. -1.
        -11    1    6    6    0    0 -0.19745815102E+02  0.36433936317E+02 -0.39560655452E+02  0.57292009822E+02  0.00000000000E+00 0.  1.
         12    1    6    6    0    0 -0.18894036326E+02 -0.48118898470E+01  0.27453408948E+02  0.33672370803E+02  0.00000000000E+00 0. -1.
         -5    1    3    3    0  503  0.73015484076E+01 -0.54487556088E+02 -0.36491573169E+03  0.36906339240E+03  0.47000000000E+01 0.  1.
         11    1    4    4    0    0  0.14913508363E+02  0.39124006195E+02 -0.34870198374E+03  0.35120673977E+03  0.00000000000E+00 0. -1.
        -12    1    4    4    0    0 -0.45225572748E+02  0.43426519805E+02 -0.17771792736E+03  0.18845391149E+03  0.00000000000E+00 0.  1.
<mgrwt>
<rscale>  2 0.17672303E+03</rscale>
<asrwt>0</asrwt>
<pdfrwt beam="1">  1       21 0.13455760E-01 0.17691851E+03</pdfrwt>
<pdfrwt beam="2">  1       21 0.15361503E+00 0.17691851E+03</pdfrwt>
<totfact> 0.13564671E+04</totfact>
</mgrwt>
</event>
<event>
12    1  0.1029207E-001  0.2587459E+03  0.7546771E-02  0.1108055E+00
         21   -1    0    0  501  502  0.00000000000E+00  0.00000000000E+00  0.53130784512E+03  0.53130784512E+03  0.00000000000E+00 0. -1.
         21   -1    0    0  502  503 -0.00000000000E+00 -0.00000000000E+00 -0.14811887231E+03  0.14811887231E+03  0.00000000000E+00 0. -1.
         -6    2    1    2    0  503  0.15496340375E+02 -0.19140633217E+03  0.58544418202E+02  0.26428395921E+03  0.17187798473E+03 0.  0.
        -24    2    3    3    0    0  0.76492175908E+02 -0.13203056938E+03  0.42132855863E+02  0.17746574375E+03  0.80223365880E+02 0.  0.
          6    2    1    2  501    0 -0.15496340375E+02  0.19140633217E+03  0.32464455461E+03  0.41514275822E+03  0.17341540388E+03 0.  0.
         24    2    5    5    0    0 -0.36835920473E+02  0.52543917915E+02  0.20929756241E+03  0.23330446087E+03  0.80670648230E+02 0.  0.
          5    1    5    5  501    0  0.21339580098E+02  0.13886241425E+03  0.11534699220E+03  0.18183829734E+03  0.47000000000E+01 0. -1.
        -11    1    6    6    0    0  0.10312016063E+02 -0.14597780768E+02  0.19053986535E+02  0.26124457535E+02  0.00000000000E+00 0.  1.
         12    1    6    6    0    0 -0.47147936536E+02  0.67141698683E+02  0.19024357587E+03  0.20718000334E+03  0.00000000000E+00 0. -1.
         -5    1    3    3    0  503 -0.60995835533E+02 -0.59375762784E+02  0.16411562339E+02  0.86818215468E+02  0.47000000000E+01 0.  1.
         13    1    4    4    0    0  0.16473286271E+02 -0.91861911374E+02 -0.10243918276E+01  0.93332895061E+02  0.00000000000E+00 0. -1.
        -14    1    4    4    0    0  0.60018889637E+02 -0.40168658009E+02  0.43157247691E+02  0.84132848685E+02  0.00000000000E+00 0.  1.
<mgrwt>
<rscale>  2 0.25848851E+03</rscale>
<asrwt>0</asrwt>
<pdfrwt beam="1">  1       21 0.81739667E-01 0.25874587E+03</pdfrwt>
<pdfrwt beam="2">  1       21 0.22787519E-01 0.25874587E+03</pdfrwt>
<totfact> 0.22848261E+04</totfact>
</mgrwt>
</event>
<event>
12    1  0.1029207E-001  0.1831434E+03  0.7546771E-02  0.1165000E+00
         21   -1    0    0  501  502  0.00000000000E+00  0.00000000000E+00  0.43650812275E+03  0.43650812275E+03  0.00000000000E+00 0.  1.
         21   -1    0    0  502  503 -0.00000000000E+00 -0.00000000000E+00 -0.91750127441E+02  0.91750127441E+02  0.00000000000E+00 0.  1.
         -6    2    1    2    0  503 -0.34379968307E+02  0.50370992829E+02  0.64960902536E+02  0.19432296629E+03  0.17269127723E+03 0.  0.
        -24    2    3    3    0    0  0.21609324307E+02  0.17651134381E+02  0.89405362919E+02  0.12486066236E+03  0.82573244117E+02 0.  0.
          6    2    1    2  501    0  0.34379968307E+02 -0.50370992829E+02  0.27979709278E+03  0.33393528390E+03  0.17177642903E+03 0.  0.
         24    2    5    5    0    0  0.72699431960E+02 -0.79676088873E+02  0.21256958270E+03  0.25105707169E+03  0.78805705442E+02 0.  0.
          5    1    5    5  501    0 -0.38319463653E+02  0.29305096044E+02  0.67227510073E+02  0.82878212212E+02  0.47000000000E+01 0. -1.
        -13    1    6    6    0    0  0.71368585599E+02 -0.94614595350E+02  0.19117008046E+03  0.22492531278E+03  0.00000000000E+00 0.  1.
         14    1    6    6    0    0  0.13308463612E+01  0.14938506478E+02  0.21399502243E+02  0.26131758916E+02  0.00000000000E+00 0. -1.
         -5    1    3    3    0  503 -0.55989292614E+02  0.32719858448E+02 -0.24444460383E+02  0.69462303933E+02  0.47000000000E+01 0.  1.
         13    1    4    4    0    0  0.20257147935E+02  0.44879185126E+02  0.83546091201E+02  0.96976505686E+02  0.00000000000E+00 0. -1.
        -14    1    4    4    0    0  0.13521763724E+01 -0.27228050745E+02  0.58592717178E+01  0.27884156673E+02  0.00000000000E+00 0.  1.
<mgrwt>
<rscale>  2 0.18292740E+03</rscale>
<asrwt>0</asrwt>
<pdfrwt beam="1">  1       21 0.67155095E-01 0.18314338E+03</pdfrwt>
<pdfrwt beam="2">  1       21 0.14115404E-01 0.18314338E+03</pdfrwt>
<totfact> 0.89256302E+04</totfact>
</mgrwt>
</event>
<event>
12    1  0.1029207E-001  0.1957684E+03  0.7546771E-02  0.1153560E+00
         21   -1    0    0  503  502  0.00000000000E+00  0.00000000000E+00  0.76172421019E+03  0.76172421019E+03  0.00000000000E+00 0. -1.
         21   -1    0    0  501  503 -0.00000000000E+00 -0.00000000000E+00 -0.24631518766E+03  0.24631518766E+03  0.00000000000E+00 0. -1.
          6    2    1    2  501    0 -0.79471260243E+02 -0.42327559915E+02 -0.19229668285E+03  0.27375563715E+03  0.17279129348E+03 0.  0.
         24    2    3    3    0    0 -0.13521949534E+02 -0.17011186670E+01 -0.18526762689E+02  0.83445641447E+02  0.80213447855E+02 0.  0.
         -6    2    1    2    0  502  0.79471260243E+02  0.42327559915E+02  0.70770570537E+03  0.73428376071E+03  0.17383317374E+03 0.  0.
        -24    2    5    5    0    0  0.11797972527E+02  0.78446499556E+02  0.50362604815E+03  0.51621301952E+03  0.80892766661E+02 0.  0.
          5    1    3    3  501    0 -0.65949310709E+02 -0.40626441248E+02 -0.17376992016E+03  0.19030999570E+03  0.47000000000E+01 0. -1.
        -11    1    4    4    0    0 -0.32369648155E+01  0.29797523946E+02 -0.35298822797E+02  0.46307421277E+02  0.00000000000E+00 0.  1.
         12    1    4    4    0    0 -0.10284984718E+02 -0.31498642613E+02  0.16772060108E+02  0.37138220170E+02  0.00000000000E+00 0. -1.
         -5    1    5    5    0  502  0.67673287716E+02 -0.36118939640E+02  0.20407965722E+03  0.21807074119E+03  0.47000000000E+01 0.  1.
         11    1    6    6    0    0  0.43792575895E+02  0.40820576680E+02  0.34230087683E+03  0.34749676180E+03  0.00000000000E+00 0. -1.
        -12    1    6    6    0    0 -0.31994603368E+02  0.37625922876E+02  0.16132517132E+03  0.16871625772E+03  0.00000000000E+00 0.  1.
<mgrwt>
<rscale>  2 0.19553688E+03</rscale>
<asrwt>0</asrwt>
<pdfrwt beam="1">  1       21 0.11718834E+00 0.19576842E+03</pdfrwt>
<pdfrwt beam="2">  1       21 0.37894645E-01 0.19576842E+03</pdfrwt>
<totfact> 0.37503247E+03</totfact>
</mgrwt>
</event>
<event>
12    1  0.1029207E-001  0.1807130E+03  0.7546771E-02  0.1167375E+00
         21   -1    0    0  503  502  0.00000000000E+00  0.00000000000E+00  0.64984161649E+02  0.64984161649E+02  0.00000000000E+00 0.  1.
         21   -1    0    0  501  503 -0.00000000000E+00 -0.00000000000E+00 -0.50213886965E+03  0.50213886965E+03  0.00000000000E+00 0.  1.
          6    2    1    2  501    0 -0.26087920680E+02  0.44606565366E+02 -0.23828716913E+03  0.29841226243E+03  0.17204295427E+03 0.  0.
         24    2    3    3    0    0 -0.29711011792E+02  0.90350071047E+02 -0.21046705857E+03  0.24454535559E+03  0.80375174242E+02 0.  0.
         -6    2    1    2    0  502  0.26087920680E+02 -0.44606565366E+02 -0.19886753887E+03  0.26871076887E+03  0.17316712740E+03 0.  0.
        -24    2    5    5    0    0  0.79113850164E+02 -0.15039811963E+01 -0.11550059621E+03  0.16081397055E+03  0.79116889167E+02 0.  0.
          5    1    3    3  501    0  0.36230911123E+01 -0.45743505681E+02 -0.27820110560E+02  0.53866906842E+02  0.47000000000E+01 0. -1.
        -13    1    4    4    0    0  0.13909676872E+02  0.46629513795E+01 -0.86116822602E+02  0.87357480283E+02  0.00000000000E+00 0.  1.
         14    1    4    4    0    0 -0.43620688663E+02  0.85687119668E+02 -0.12435023597E+03  0.15718787530E+03  0.00000000000E+00 0. -1.
         -5    1    5    5    0  502 -0.53025929485E+02 -0.43102584170E+02 -0.83366942659E+02  0.10789679832E+03  0.47000000000E+01 0.  1.
         11    1    6    6    0    0  0.41826563772E+02  0.22758150594E+01 -0.11600088264E+03  0.12333225670E+03  0.00000000000E+00 0. -1.
        -12    1    6    6    0    0  0.37287286392E+02 -0.37797962557E+01  0.50028642608E+00  0.37481713845E+02  0.00000000000E+00 0.  1.
<mgrwt>
<rscale>  2 0.18044313E+03</rscale>
<asrwt>0</asrwt>
<pdfrwt beam="1">  1       21 0.99975632E-02 0.18071297E+03</pdfrwt>
<pdfrwt beam="2">  1       21 0.77252135E-01 0.18071297E+03</pdfrwt>
<totfact> 0.12132804E+05</totfact>
</mgrwt>
</event>
<event>
12    1  0.1029207E-001  0.2677372E+03  0.7546771E-02  0.1103245E+00
         21   -1    0    0  503  502  0.00000000000E+00  0.00000000000E+00  0.84471140294E+02  0.84471140294E+02  0.00000000000E+00 0. -1.
         21   -1    0    0  501  503 -0.00000000000E+00 -0.00000000000E+00 -0.94611305359E+03  0.94611305359E+03  0.00000000000E+00 0.  1.
          6    2    1    2  501    0  0.18108887260E+03  0.92653495574E+02 -0.25690699491E+03  0.37105849281E+03  0.17408432160E+03 0.  0.
         24    2    3    3    0    0  0.10159687557E+03  0.36994310281E+02 -0.53330959525E+02  0.14548762881E+03  0.81436814624E+02 0.  0.
         -6    2    1    2    0  502 -0.18108887260E+03 -0.92653495574E+02 -0.60473491839E+03  0.65952570107E+03  0.16700891844E+03 0.  0.
        -24    2    5    5    0    0 -0.19747203480E+03 -0.10033512288E+03 -0.59240659363E+03  0.63713166185E+03  0.76998967198E+02 0.  0.
          5    1    3    3  501    0  0.79491997038E+02  0.55659185292E+02 -0.20357603538E+03  0.22557086399E+03  0.47000000000E+01 0. -1.
        -11    1    4    4    0    0  0.76546212391E+02  0.32195472192E+02 -0.75093162368E+02  0.11195916262E+03  0.00000000000E+00 0.  1.
         12    1    4    4    0    0  0.25050663176E+02  0.47988380893E+01  0.21762202842E+02  0.33528466191E+02  0.00000000000E+00 0. -1.
         -5    1    5    5    0  502  0.16383162192E+02  0.76816273033E+01 -0.12328324761E+02  0.22394039226E+02  0.47000000000E+01 0.  1.
         11    1    6    6    0    0 -0.10865824331E+03 -0.13259295577E+02 -0.30123359046E+03  0.32050600428E+03  0.00000000000E+00 0. -1.
        -12    1    6    6    0    0 -0.88813791489E+02 -0.87075827300E+02 -0.29117300317E+03  0.31662565757E+03  0.00000000000E+00 0.  1.
<mgrwt>
<rscale>  2 0.26659349E+03</rscale>
<asrwt>0</asrwt>
<pdfrwt beam="1">  1       21 0.12995559E-01 0.26773719E+03</pdfrwt>
<pdfrwt beam="2">  1       21 0.14555586E+00 0.26773719E+03</pdfrwt>
<totfact> 0.15716088E+04</totfact>
</mgrwt>
</event>
<event>
12    1  0.1029207E-001  0.2556951E+03  0.7546771E-02  0.1110014E+00
         21   -1    0    0  501  502  0.00000000000E+00  0.00000000000E+00  0.38399555284E+03  0.38399555284E+03  0.00000000000E+00 0. -1.
         21   -1    0    0  502  503 -0.00000000000E+00 -0.00000000000E+00 -0.18063392565E+03  0.18063392565E+03  0.00000000000E+00 0. -1.
         -6    2    1    2    0  503 -0.18590328683E+03 -0.13215318491E+02  0.30825444846E+02  0.25754652084E+03  0.17505806366E+03 0.  0.
        -24    2    3    3    0    0 -0.55126884863E+02  0.51832469377E+02  0.95995417532E+01  0.10987692012E+03  0.79089873282E+02 0.  0.
          6    2    1    2  501    0  0.18590328683E+03  0.13215318491E+02  0.17253618234E+03  0.30708295764E+03  0.17261671982E+03 0.  0.
         24    2    5    5    0    0  0.11019675754E+03  0.72022058150E+02  0.13405996244E+03  0.20367976280E+03  0.78631227978E+02 0.  0.
          5    1    5    5  501    0  0.75706529284E+02 -0.58806739659E+02  0.38476219907E+02  0.10340319484E+03  0.47000000000E+01 0. -1.
        -11    1    6    6    0    0  0.19418477225E+02  0.39129436329E+02  0.72263104137E+01  0.44276513044E+02  0.00000000000E+00 0.  1.
         12    1    6    6    0    0  0.90778280318E+02  0.32892621820E+02  0.12683365202E+03  0.15940324976E+03  0.00000000000E+00 0. -1.
         -5    1    3    3    0  503 -0.13077640196E+03 -0.65047787868E+02  0.21225903093E+02  0.14766960073E+03  0.47000000000E+01 0.  1.
         11    1    4    4    0    0 -0.20052006490E+02 -0.18686278993E+02  0.14417387707E+02  0.30969679610E+02  0.00000000000E+00 0. -1.
        -12    1    4    4    0    0 -0.35074878373E+02  0.70518748369E+02 -0.48178459542E+01  0.78907240505E+02  0.00000000000E+00 0.  1.
<mgrwt>
<rscale>  2 0.25527782E+03</rscale>
<asrwt>0</asrwt>
<pdfrwt beam="1">  1       21 0.59076239E-01 0.25569514E+03</pdfrwt>
<pdfrwt beam="2">  1       21 0.27789835E-01 0.25569514E+03</pdfrwt>
<totfact> 0.32112254E+04</totfact>
</mgrwt>
</event>
<event>
12    1  0.1029207E-001  0.1807463E+03  0.7546771E-02  0.1167197E+00
         21   -1    0    0  503  502  0.00000000000E+00  0.00000000000E+00  0.11656957807E+04  0.11656957807E+04  0.00000000000E+00 0. -1.
         21   -1    0    0  501  503 -0.00000000000E+00 -0.00000000000E+00 -0.28115484858E+02  0.28115484858E+02  0.00000000000E+00 0. -1.
          6    2    1    2  501    0 -0.45322782771E+02  0.24882215729E+02  0.52257409473E+03  0.55279498625E+03  0.17270012464E+03 0.  0.
         24    2    3    3    0    0  0.42497406399E+01 -0.27863897913E+02  0.40620000672E+03  0.41566509914E+03  0.83573752334E+02 0.  0.
         -6    2    1    2    0  502  0.45322782771E+02 -0.24882215729E+02  0.61500620115E+03  0.64101627934E+03  0.17319342835E+03 0.  0.
        -24    2    5    5    0    0  0.78242194715E+02  0.30444969254E+02  0.38403910026E+03  0.40119827173E+03  0.80157878720E+02 0.  0.
          5    1    3    3  501    0 -0.49572523411E+02  0.52746113641E+02  0.11637408801E+03  0.13712988712E+03  0.47000000000E+01 0. -1.
        -11    1    4    4    0    0  0.34664699458E+02  0.79583504000E+01  0.10596162897E+03  0.11177138965E+03  0.00000000000E+00 0.  1.
         12    1    4    4    0    0 -0.30414958818E+02 -0.35822248313E+02  0.30023837775E+03  0.30389370949E+03  0.00000000000E+00 0. -1.
         -5    1    5    5    0  502 -0.32919411944E+02 -0.55327184982E+02  0.23096710089E+03  0.23981800761E+03  0.47000000000E+01 0.  1.
         13    1    6    6    0    0  0.88394277890E+02  0.21738535319E+02  0.37272746279E+03  0.38368199567E+03  0.00000000000E+00 0. -1.
        -14    1    6    6    0    0 -0.10152083175E+02  0.87064339352E+01  0.11311637466E+02  0.17516276055E+02  0.00000000000E+00 0.  1.
<mgrwt>
<rscale>  2 0.18062807E+03</rscale>
<asrwt>0</asrwt>
<pdfrwt beam="1">  1       21 0.17933778E+00 0.18074635E+03</pdfrwt>
<pdfrwt beam="2">  1       21 0.43254601E-02 0.18074635E+03</pdfrwt>
<totfact> 0.63617264E+04</totfact>
</mgrwt>
</event>
<event>
12    1  0.1029207E-001  0.2273888E+03  0.7546771E-02  0.1128684E+00
         21   -1    0    0  503  502  0.00000000000E+00  0.00000000000E+00  0.23340875615E+04  0.23340875615E+04  0.00000000000E+00 0. -1.
         21   -1    0    0  501  503 -0.00000000000E+00 -0.00000000000E+00 -0.23135655211E+02  0.23135655211E+02  0.00000000000E+00 0.  1.
          6    2    1    2  501    0 -0.13491615558E+03  0.56129468837E+02  0.14136597335E+04  0.14318308178E+04  0.17422044233E+03 0.  0.
         24    2    3    3    0    0 -0.79691559515E+02  0.78982692968E+02  0.59221809495E+03  0.60820439683E+03  0.81248420851E+02 0.  0.
         -6    2    1    2    0  502  0.13491615558E+03 -0.56129468837E+02  0.89729217276E+03  0.92539239882E+03  0.17281482055E+03 0.  0.
        -24    2    5    5    0    0  0.36785717043E+02 -0.78466800392E+02  0.59143015016E+03  0.60336412955E+03  0.82148783071E+02 0.  0.
          5    1    3    3  501    0 -0.55224596067E+02 -0.22853224131E+02  0.82144163853E+03  0.82362642100E+03  0.47000000000E+01 0. -1.
        -11    1    4    4    0    0  0.21791633107E+01  0.15968864556E+00 -0.21519025130E+01  0.30667470753E+01  0.00000000000E+00 0.  1.
         12    1    4    4    0    0 -0.81870722826E+02  0.78823004322E+02  0.59436999747E+03  0.60513764976E+03  0.00000000000E+00 0. -1.
         -5    1    5    5    0  502  0.98130438539E+02  0.22337331556E+02  0.30586202259E+03  0.32202826928E+03  0.47000000000E+01 0.  1.
         13    1    6    6    0    0  0.32082706365E+02  0.52041382525E+00  0.28817245903E+03  0.28995333594E+03  0.00000000000E+00 0. -1.
        -14    1    6    6    0    0  0.47030106782E+01 -0.78987214218E+02  0.30325769113E+03  0.31341079361E+03  0.00000000000E+00 0.  1.
<mgrwt>
<rscale>  2 0.22711949E+03</rscale>
<asrwt>0</asrwt>
<pdfrwt beam="1">  1       21 0.35909021E+00 0.22738876E+03</pdfrwt>
<pdfrwt beam="2">  1       21 0.35593334E-02 0.22738876E+03</pdfrwt>
<totfact> 0.70658923E+03</totfact>
</mgrwt>
</event>
<event>
12    1  0.1029207E-001  0.2004245E+03  0.7546771E-02  0.1149786E+00
         21   -1    0    0  501  502  0.00000000000E+00  0.00000000000E+00  0.44723183069E+02  0.44723183069E+02  0.00000000000E+00 0. -1.
         21   -1    0    0  502  503 -0.00000000000E+00 -0.00000000000E+00 -0.99601653220E+03  0.99601653220E+03  0.00000000000E+00 0. -1.
         -6    2    1    2    0  503  0.84639233350E+02 -0.50588725749E+02 -0.64367179206E+03  0.67358716842E+03  0.17228835879E+03 0.  0.
        -24    2    3    3    0    0  0.79982120381E+02 -0.80602398482E+02 -0.61787733321E+03  0.63346294432E+03  0.81295859156E+02 0.  0.
          6    2    1    2  501    0 -0.84639233350E+02  0.50588725749E+02 -0.30762155707E+03  0.36715254685E+03  0.17449054784E+03 0.  0.
         24    2    5    5    0    0 -0.77831217416E+02  0.88675498520E+02 -0.16549427824E+03  0.21977817754E+03  0.83624450671E+02 0.  0.
          5    1    5    5  501    0 -0.68080159348E+01 -0.38086772771E+02 -0.14212727883E+03  0.14737436931E+03  0.47000000000E+01 0. -1.
        -13    1    6    6    0    0 -0.76846693382E+01  0.61878084057E+02 -0.10986587428E+03  0.12632680539E+03  0.00000000000E+00 0.  1.
         14    1    6    6    0    0 -0.70146548078E+02  0.26797414462E+02 -0.55628403966E+02  0.93451372150E+02  0.00000000000E+00 0. -1.
         -5    1    3    3    0  503  0.46571129693E+01  0.30013672733E+02 -0.25794458853E+02  0.40124224101E+02  0.47000000000E+01 0.  1.
         13    1    4    4    0    0  0.25787701216E+02  0.55674894158E+01 -0.49991480086E+02  0.56525662787E+02  0.00000000000E+00 0. -1.
        -14    1    4    4    0    0  0.54194419165E+02 -0.86169887898E+02 -0.56788585312E+03  0.57693728153E+03  0.00000000000E+00 0.  1.
<mgrwt>
<rscale>  2 0.19994418E+03</rscale>
<asrwt>0</asrwt>
<pdfrwt beam="1">  1       21 0.68804902E-02 0.20042448E+03</pdfrwt>
<pdfrwt beam="2">  1       21 0.15323330E+00 0.20042448E+03</pdfrwt>
<totfact> 0.43826758E+04</totfact>
</mgrwt>
</event>
<event>
12    1  0.1029207E-001  0.1830642E+03  0.7546771E-02  0.1166019E+00
         21   -1    0    0  501  502  0.00000000000E+00  0.00000000000E+00  0.11838365351E+03  0.11838365351E+03  0.00000000000E+00 0.  1.
         21   -1    0    0  502  503 -0.00000000000E+00 -0.00000000000E+00 -0.31455211807E+03  0.31455211807E+03  0.00000000000E+00 0.  1.
         -6    2    1    2    0  503 -0.80268789648E+01  0.36715130688E+02 -0.17298592312E+03  0.24840956044E+03  0.17427205317E+03 0.  0.
        -24    2    3    3    0    0  0.26216515021E+02  0.26407004921E+02 -0.19419587524E+02  0.90664269177E+02  0.80363261239E+02 0.  0.
          6    2    1    2  501    0  0.80268789648E+01 -0.36715130688E+02 -0.23182541443E+02  0.18452621114E+03  0.17916489824E+03 0.  0.
         24    2    5    5    0    0  0.38763797201E+02 -0.78361281951E+02  0.14257812168E+02  0.12047131175E+03  0.81651266147E+02 0.  0.
          5    1    5    5  501    0 -0.30736918237E+02  0.41646151264E+02 -0.37440353612E+02  0.64054899394E+02  0.47000000000E+01 0. -1.
        -11    1    6    6    0    0 -0.18110025946E+02 -0.14618982056E+02 -0.17723721412E+02  0.29254366799E+02  0.00000000000E+00 0.  1.
         12    1    6    6    0    0  0.56873823147E+02 -0.63742299895E+02  0.31981533580E+02  0.91216944947E+02  0.00000000000E+00 0. -1.
         -5    1    3    3    0  503 -0.34243393986E+02  0.10308125766E+02 -0.15356633560E+03  0.15774529127E+03  0.47000000000E+01 0.  1.
         11    1    4    4    0    0 -0.12277150444E+02  0.30216245663E+02  0.17652772779E+02  0.37085985382E+02  0.00000000000E+00 0. -1.
        -12    1    4    4    0    0  0.38493665465E+02 -0.38092407418E+01 -0.37072360303E+02  0.53578283794E+02  0.00000000000E+00 0.  1.
<mgrwt>
<rscale>  2 0.18185581E+03</rscale>
<asrwt>0</asrwt>
<pdfrwt beam="1">  1       21 0.18212869E-01 0.18306418E+03</pdfrwt>
<pdfrwt beam="2">  1       21 0.48392634E-01 0.18306418E+03</pdfrwt>
<totfact> 0.11243007E+05</totfact>
</mgrwt>
</event>
<event>
12    1  0.1029207E-001  0.1879771E+03  0.7546771E-02  0.1160426E+00
         21   -1    0    0  501  502  0.00000000000E+00  0.00000000000E+00  0.50637206453E+03  0.50637206453E+03  0.00000000000E+00 0.  1.
         21   -1    0    0  502  503 -0.00000000000E+00 -0.00000000000E+00 -0.72910745223E+02  0.72910745223E+02  0.00000000000E+00 0.  1.
         -6    2    1    2    0  503 -0.67425670933E+02  0.27194185811E+02  0.15508880922E+03  0.24369635635E+03  0.17334829250E+03 0.  0.
        -24    2    3    3    0    0 -0.87534101698E+02 -0.34554261725E+02  0.89916121815E+02  0.15157258665E+03  0.77673187766E+02 0.  0.
          6    2    1    2  501    0  0.67425670933E+02 -0.27194185811E+02  0.27837251009E+03  0.33558645340E+03  0.17274625464E+03 0.  0.
         24    2    5    5    0    0 -0.25394129706E+02  0.30200363988E+00  0.96354327716E+02  0.12937233037E+03  0.82511152975E+02 0.  0.
          5    1    5    5  501    0  0.92819800639E+02 -0.27496189450E+02  0.18201818237E+03  0.20621412304E+03  0.47000000000E+01 0. -1.
        -13    1    6    6    0    0 -0.36509937120E+02 -0.32706493967E+02  0.71062155486E+02  0.86327980391E+02  0.00000000000E+00 0.  1.
         14    1    6    6    0    0  0.11115807414E+02  0.33008497607E+02  0.25292172230E+02  0.43044349976E+02  0.00000000000E+00 0. -1.
         -5    1    3    3    0  503  0.20108430765E+02  0.61748447536E+02  0.65172687404E+02  0.92123769703E+02  0.47000000000E+01 0.  1.
         11    1    4    4    0    0  0.10677171024E+01 -0.32478197430E+02  0.16271857762E+02  0.36342078685E+02  0.00000000000E+00 0. -1.
        -12    1    4    4    0    0 -0.88601818800E+02 -0.20760642952E+01  0.73644264053E+02  0.11523050796E+03  0.00000000000E+00 0.  1.
<mgrwt>
<rscale>  2 0.18783815E+03</rscale>
<asrwt>0</asrwt>
<pdfrwt beam="1">  1       21 0.77903392E-01 0.18797706E+03</pdfrwt>
<pdfrwt beam="2">  1       21 0.11217038E-01 0.18797706E+03</pdfrwt>
<totfact> 0.96833469E+04</totfact>
</mgrwt>
</event>
<event>
12    1  0.1029207E-001  0.2339398E+03  0.7546771E-02  0.1124155E+00
         21   -1    0    0  503  502  0.00000000000E+00  0.00000000000E+00  0.31555699652E+03  0.31555699652E+03  0.00000000000E+00 0. -1.
         21   -1    0    0  501  503 -0.00000000000E+00 -0.00000000000E+00 -0.29148248954E+03  0.29148248954E+03  0.00000000000E+00 0. -1.
          6    2    1    2  501    0 -0.55988387063E+02  0.14410397011E+03 -0.18200029119E+03  0.29639824435E+03  0.17557664871E+03 0.  0.
         24    2    3    3    0    0 -0.60561645535E+02  0.17034341142E+03 -0.18252901376E+03  0.26934658042E+03  0.80908273966E+02 0.  0.
         -6    2    1    2    0  502  0.55988387063E+02 -0.14410397011E+03  0.20607479817E+03  0.31064124172E+03  0.17358140721E+03 0.  0.
        -24    2    5    5    0    0 -0.10151132410E+02 -0.33131309375E+02  0.13605819376E+03  0.16362497609E+03  0.84027207266E+02 0.  0.
          5    1    3    3  501    0  0.45732584718E+01 -0.26239441316E+02  0.52872256324E+00  0.27051663926E+02  0.47000000000E+01 0. -1.
        -11    1    4    4    0    0 -0.98377534282E+00  0.44818984749E+02 -0.68309641729E+01  0.45347230118E+02  0.00000000000E+00 0.  1.
         12    1    4    4    0    0 -0.59577870192E+02  0.12552442668E+03 -0.17569804958E+03  0.22399935030E+03  0.00000000000E+00 0. -1.
         -5    1    5    5    0  502  0.66139519473E+02 -0.11097266073E+03  0.70016604410E+02  0.14701626563E+03  0.47000000000E+01 0.  1.
         11    1    6    6    0    0  0.28889329961E+02  0.57198338288E+01  0.79044397695E+02  0.84352395886E+02  0.00000000000E+00 0. -1.
        -12    1    6    6    0    0 -0.39040462371E+02 -0.38851143203E+02  0.57013796060E+02  0.79272580200E+02  0.00000000000E+00 0.  1.
<mgrwt>
<rscale>  2 0.23356543E+03</rscale>
<asrwt>0</asrwt>
<pdfrwt beam="1">  1       21 0.48547230E-01 0.23393976E+03</pdfrwt>
<pdfrwt beam="2">  1       21 0.44843460E-01 0.23393976E+03</pdfrwt>
<totfact> 0.18885319E+04</totfact>
</mgrwt>
</event>
<event>
12    1  0.1029207E-001  0.2092582E+03  0.7546771E-02  0.1142391E+00
         21   -1    0    0  503  502  0.00000000000E+00  0.00000000000E+00  0.43452902868E+03  0.43452902868E+03  0.00000000000E+00 0.  1.
         21   -1    0    0  501  503 -0.00000000000E+00 -0.00000000000E+00 -0.38210807414E+03  0.38210807414E+03  0.00000000000E+00 0. -1.
          6    2    1    2  501    0 -0.10732423318E+03  0.48913407686E+02 -0.32452616485E+03  0.38550124846E+03  0.17141460969E+03 0.  0.
         24    2    3    3    0    0 -0.67621811005E+01 -0.10582772059E+02 -0.79579992416E+02  0.11407310123E+03  0.80758746109E+02 0.  0.
         -6    2    1    2    0  502  0.10732423318E+03 -0.48913407686E+02  0.37694711938E+03  0.43113585436E+03  0.17285248515E+03 0.  0.
        -24    2    5    5    0    0  0.25925608657E+02 -0.33855315826E+02  0.72453906058E+02  0.11555592919E+03  0.79279787304E+02 0.  0.
          5    1    3    3  501    0 -0.10056205208E+03  0.59496179744E+02 -0.24494617243E+03  0.27142814723E+03  0.47000000000E+01 0. -1.
        -11    1    4    4    0    0 -0.42720437836E+02 -0.17573311049E+01 -0.30167531120E+02  0.52327850667E+02  0.00000000000E+00 0.  1.
         12    1    4    4    0    0  0.35958256736E+02 -0.88254409538E+01 -0.49412461296E+02  0.61745250561E+02  0.00000000000E+00 0. -1.
         -5    1    5    5    0  502  0.81398624520E+02 -0.15058091860E+02  0.30449321332E+03  0.31557992516E+03  0.47000000000E+01 0.  1.
         11    1    6    6    0    0 -0.17981419300E+01  0.20811638037E+02  0.31329650184E+00  0.20891523326E+02  0.00000000000E+00 0. -1.
        -12    1    6    6    0    0  0.27723750587E+02 -0.54666953863E+02  0.72140609556E+02  0.94664405868E+02  0.00000000000E+00 0.  1.
<mgrwt>
<rscale>  2 0.20896103E+03</rscale>
<asrwt>0</asrwt>
<pdfrwt beam="1">  1       21 0.66850620E-01 0.20925820E+03</pdfrwt>
<pdfrwt beam="2">  1       21 0.58785858E-01 0.20925820E+03</pdfrwt>
<totfact> 0.54805986E+03</totfact>
</mgrwt>
</event>
<event>
12    1  0.1029207E-001  0.1784631E+03  0.7546771E-02  0.1169446E+00
         21   -1    0    0  503  502  0.00000000000E+00  0.00000000000E+00  0.27456146930E+02  0.27456146930E+02  0.00000000000E+00 0. -1.
         21   -1    0    0  501  503 -0.00000000000E+00 -0.00000000000E+00 -0.11641775559E+04  0.11641775559E+04  0.00000000000E+00 0. -1.
          6    2    1    2  501    0 -0.19025397724E+02  0.43267372664E+02 -0.51966371966E+03  0.54945379279E+03  0.17209025997E+03 0.  0.
         24    2    3    3    0    0 -0.45751988524E+01 -0.30936675170E+02 -0.39141467463E+03  0.40050763971E+03  0.78885433641E+02 0.  0.
         -6    2    1    2    0  502  0.19025397724E+02 -0.43267372664E+02 -0.61705768929E+03  0.64217991002E+03  0.17146665459E+03 0.  0.
        -24    2    5    5    0    0 -0.39412923040E+02  0.18407822787E+02 -0.26327362099E+03  0.27830613514E+03  0.79051115774E+02 0.  0.
          5    1    3    3  501    0 -0.14450198872E+02  0.74204047834E+02 -0.12824904504E+03  0.14894615307E+03  0.47000000000E+01 0. -1.
        -11    1    4    4    0    0 -0.36259419949E+02 -0.37843169372E+02 -0.24596576901E+03  0.25148759517E+03  0.00000000000E+00 0.  1.
         12    1    4    4    0    0  0.31684221096E+02  0.69064942022E+01 -0.14544890562E+03  0.14902004454E+03  0.00000000000E+00 0. -1.
         -5    1    5    5    0  502  0.58438320765E+02 -0.61675195451E+02 -0.35378406829E+03  0.36387377488E+03  0.47000000000E+01 0.  1.
         11    1    6    6    0    0 -0.32002313962E+01  0.25532431290E+02 -0.21970477477E+03  0.22120654282E+03  0.00000000000E+00 0. -1.
        -12    1    6    6    0    0 -0.36212691644E+02 -0.71246085031E+01 -0.43568846220E+02  0.57099592322E+02  0.00000000000E+00 0.  1.
<mgrwt>
<rscale>  2 0.17831263E+03</rscale>
<asrwt>0</asrwt>
<pdfrwt beam="1">  1       21 0.42240221E-02 0.17846313E+03</pdfrwt>
<pdfrwt beam="2">  1       21 0.17910426E+00 0.17846313E+03</pdfrwt>
<totfact> 0.66537442E+04</totfact>
</mgrwt>
</event>
<event>
12    1  0.1029207E-001  0.1753278E+03  0.7546771E-02  0.1172474E+00
         21   -1    0    0  501  502  0.00000000000E+00  0.00000000000E+00  0.58283305846E+03  0.58283305846E+03  0.00000000000E+00 0.  1.
         21   -1    0    0  502  503 -0.00000000000E+00 -0.00000000000E+00 -0.21116629271E+03  0.21116629271E+03  0.00000000000E+00 0.  1.
         -6    2    1    2    0  503  0.21317597392E+02 -0.21571671983E+02 -0.15816205814E+03  0.23591475359E+03  0.17239709201E+03 0.  0.
        -24    2    3    3    0    0  0.11672053299E+02 -0.80896560713E+02 -0.10909216608E+03  0.15818172811E+03  0.80248788425E+02 0.  0.
          6    2    1    2  501    0 -0.21317597392E+02  0.21571671983E+02  0.52982882389E+03  0.55808459758E+03  0.17268485294E+03 0.  0.
         24    2    5    5    0    0  0.54162052911E+02 -0.16023123654E+01  0.27856993535E+03  0.29466984812E+03  0.79328526585E+02 0.  0.
          5    1    5    5  501    0 -0.75479650303E+02  0.23173984349E+02  0.25125888854E+03  0.26341474946E+03  0.47000000000E+01 0. -1.
        -13    1    6    6    0    0 -0.69502558594E+01 -0.16031777819E+02  0.15576890239E+03  0.15674589279E+03  0.00000000000E+00 0.  1.
         14    1    6    6    0    0  0.61112308770E+02  0.14429465454E+02  0.12280103296E+03  0.13792395533E+03  0.00000000000E+00 0. -1.
         -5    1    3    3    0  503  0.96455440940E+01  0.59324888729E+02 -0.49069892054E+02  0.77733025477E+02  0.47000000000E+01 0.  1.
         13    1    4    4    0    0  0.11436788091E+01 -0.79118887900E+02 -0.11946632642E+03  0.14329448549E+03  0.00000000000E+00 0. -1.
        -14    1    4    4    0    0  0.10528374489E+02 -0.17776728122E+01  0.10374160338E+02  0.14887242617E+02  0.00000000000E+00 0.  1.
<mgrwt>
<rscale>  2 0.17525690E+03</rscale>
<asrwt>0</asrwt>
<pdfrwt beam="1">  1       21 0.89666624E-01 0.17532779E+03</pdfrwt>
<pdfrwt beam="2">  1       21 0.32487122E-01 0.17532779E+03</pdfrwt>
<totfact> 0.97817709E+03</totfact>
</mgrwt>
</event>
<event>
12    1  0.1029207E-001  0.2431337E+03  0.7546771E-02  0.1118304E+00
         21   -1    0    0  501  502  0.00000000000E+00  0.00000000000E+00  0.49054277707E+03  0.49054277707E+03  0.00000000000E+00 0. -1.
         21   -1    0    0  502  503 -0.00000000000E+00 -0.00000000000E+00 -0.12103472601E+03  0.12103472601E+03  0.00000000000E+00 0. -1.
         -6    2    1    2    0  503 -0.16857282118E+03 -0.28001455238E+02  0.14158829025E+03  0.27831871109E+03  0.16796780487E+03 0.  0.
        -24    2    3    3    0    0 -0.54095118465E+02 -0.19589806823E+02  0.13078512161E+03  0.16292937579E+03  0.78301922641E+02 0.  0.
          6    2    1    2  501    0  0.16857282118E+03  0.28001455238E+02  0.22791976081E+03  0.33325879198E+03  0.17295411972E+03 0.  0.
         24    2    5    5    0    0  0.17530640319E+03 -0.18158862660E+02  0.16381511814E+03  0.25383832052E+03  0.80848133799E+02 0.  0.
          5    1    5    5  501    0 -0.67335820093E+01  0.46160317898E+02  0.64104642677E+02  0.79420471465E+02  0.47000000000E+01 0. -1.
        -13    1    6    6    0    0  0.91111496200E+01 -0.25616553734E+02  0.28549495259E+02  0.39424542510E+02  0.00000000000E+00 0.  1.
         14    1    6    6    0    0  0.16619525357E+03  0.74576910737E+01  0.13526562288E+03  0.21441377801E+03  0.00000000000E+00 0. -1.
         -5    1    3    3    0  503 -0.11447770272E+03 -0.84116484148E+01  0.10803168643E+02  0.11538933530E+03  0.47000000000E+01 0.  1.
         11    1    4    4    0    0 -0.40242528311E+02  0.26337067289E+02  0.77702726455E+02  0.91382798692E+02  0.00000000000E+00 0. -1.
        -12    1    4    4    0    0 -0.13852590154E+02 -0.45926874112E+02  0.53082395151E+02  0.71546577099E+02  0.00000000000E+00 0.  1.
<mgrwt>
<rscale>  2 0.24224855E+03</rscale>
<asrwt>0</asrwt>
<pdfrwt beam="1">  1       21 0.75468118E-01 0.24313372E+03</pdfrwt>
<pdfrwt beam="2">  1       21 0.18620727E-01 0.24313372E+03</pdfrwt>
<totfact> 0.40347790E+04</totfact>
</mgrwt>
</event>
<event>
12    1  0.1029207E-001  0.1850473E+03  0.7546771E-02  0.1163600E+00
         21   -1    0    0  503  502  0.00000000000E+00  0.00000000000E+00  0.59117735555E+02  0.59117735555E+02  0.00000000000E+00 0. -1.
         21   -1    0    0  501  503 -0.00000000000E+00 -0.00000000000E+00 -0.61915310178E+03  0.61915310178E+03  0.00000000000E+00 0.  1.
          6    2    1    2  501    0 -0.54825634218E+02 -0.20810176161E+02 -0.18755045780E+03  0.26347232494E+03  0.17550948177E+03 0.  0.
         24    2    3    3    0    0 -0.34964997005E+02 -0.91511899297E+01 -0.21195364852E+03  0.22959043320E+03  0.80505419718E+02 0.  0.
         -6    2    1    2    0  502  0.54825634218E+02  0.20810176161E+02 -0.37248490843E+03  0.41479851239E+03  0.17284063549E+03 0.  0.
        -24    2    5    5    0    0  0.50668533635E+02 -0.46865637675E+02 -0.15635797853E+03  0.18823673916E+03  0.78876892838E+02 0.  0.
          5    1    3    3  501    0 -0.19860637213E+02 -0.11658986232E+02  0.24403190723E+02  0.33881891741E+02  0.47000000000E+01 0. -1.
        -13    1    4    4    0    0  0.25248737568E+02 -0.98002188907E+01 -0.51082641581E+02  0.57818503180E+02  0.00000000000E+00 0.  1.
         14    1    4    4    0    0 -0.60213734573E+02  0.64902896099E+00 -0.16087100694E+03  0.17177193002E+03  0.00000000000E+00 0. -1.
         -5    1    5    5    0  502  0.41571005831E+01  0.67675813837E+02 -0.21612692990E+03  0.22656177324E+03  0.47000000000E+01 0.  1.
         13    1    6    6    0    0 -0.20827482907E+02 -0.15192264780E+02 -0.29134338001E+02  0.38902424142E+02  0.00000000000E+00 0. -1.
        -14    1    6    6    0    0  0.71496016542E+02 -0.31673372895E+02 -0.12722364053E+03  0.14933431502E+03  0.00000000000E+00 0.  1.
<mgrwt>
<rscale>  2 0.18441167E+03</rscale>
<asrwt>0</asrwt>
<pdfrwt beam="1">  1       21 0.90950362E-02 0.18504727E+03</pdfrwt>
<pdfrwt beam="2">  1       21 0.95254323E-01 0.18504727E+03</pdfrwt>
<totfact> 0.88562939E+04</totfact>
</mgrwt>
</event>
<event>
12    1  0.1029207E-001  0.2377814E+03  0.7546771E-02  0.1121561E+00
         21   -1    0    0  503  502  0.00000000000E+00  0.00000000000E+00  0.28039246187E+03  0.28039246187E+03  0.00000000000E+00 0.  1.
         21   -1    0    0  501  503 -0.00000000000E+00 -0.00000000000E+00 -0.20686806398E+03  0.20686806398E+03  0.00000000000E+00 0. -1.
          6    2    1    2  501    0  0.28122594445E+00 -0.16136148029E+03 -0.69756664779E+01  0.23622217360E+03  0.17237937513E+03 0.  0.
         24    2    3    3    0    0  0.52431134630E+02 -0.96273595600E+02  0.39494547154E+02  0.14063129295E+03  0.78738251267E+02 0.  0.
         -6    2    1    2    0  502 -0.28122594445E+00  0.16136148029E+03  0.80500064373E+02  0.25103835225E+03  0.17464932730E+03 0.  0.
        -24    2    5    5    0    0  0.47158342158E+02  0.34863361817E+02  0.53861070239E+02  0.11325586930E+03  0.80538896261E+02 0.  0.
          5    1    3    3  501    0 -0.52149908686E+02 -0.65087884693E+02 -0.46470213632E+02  0.95590880657E+02  0.47000000000E+01 0. -1.
        -11    1    4    4    0    0 -0.45959598218E+01 -0.21661368537E+02  0.41124530594E+02  0.46707223747E+02  0.00000000000E+00 0.  1.
         12    1    4    4    0    0  0.57027094452E+02 -0.74612227063E+02 -0.16299834401E+01  0.93924069199E+02  0.00000000000E+00 0. -1.
         -5    1    5    5    0  502 -0.47439568103E+02  0.12649811848E+03  0.26638994134E+02  0.13778248295E+03  0.47000000000E+01 0.  1.
         13    1    6    6    0    0  0.32731288227E+02  0.49174277181E+02  0.37606252798E+01  0.59191123218E+02  0.00000000000E+00 0. -1.
        -14    1    6    6    0    0  0.14427053931E+02 -0.14310915364E+02  0.50100444959E+02  0.54064746081E+02  0.00000000000E+00 0.  1.
<mgrwt>
<rscale>  2 0.23736474E+03</rscale>
<asrwt>0</asrwt>
<pdfrwt beam="1">  1       21 0.43137302E-01 0.23778140E+03</pdfrwt>
<pdfrwt beam="2">  1       21 0.31825856E-01 0.23778140E+03</pdfrwt>
<totfact> 0.48045196E+04</totfact>
</mgrwt>
</event>
<event>
12    1  0.1029207E-001  0.2122645E+03  0.7546771E-02  0.1139818E+00
         21   -1    0    0  503  502  0.00000000000E+00  0.00000000000E+00  0.18011043676E+04  0.18011043676E+04  0.00000000000E+00 0. -1.
         21   -1    0    0  501  503 -0.00000000000E+00 -0.00000000000E+00 -0.48033073124E+02  0.48033073124E+02  0.00000000000E+00 0. -1.
          6    2    1    2  501    0 -0.10117934052E+02 -0.12377863220E+03  0.23641880082E+03  0.31772638199E+03  0.17214145941E+03 0.  0.
         24    2    3    3    0    0  0.13664659757E+02 -0.14451636676E+03  0.14551392924E+03  0.22138609405E+03  0.82254457914E+02 0.  0.
         -6    2    1    2    0  502  0.10117934052E+02  0.12377863220E+03  0.15166524936E+04  0.15314110587E+04  0.17193464436E+03 0.  0.
        -24    2    5    5    0    0  0.18729140928E+02  0.10939637085E+03  0.15026453108E+04  0.15090661824E+04  0.83782254376E+02 0.  0.
          5    1    3    3  501    0 -0.23782593809E+02  0.20737734556E+02  0.90904871587E+02  0.96340287943E+02  0.47000000000E+01 0. -1.
        -11    1    4    4    0    0  0.80276102686E+01  0.93155441047E+01  0.16231365107E+02  0.20363671128E+02  0.00000000000E+00 0.  1.
         12    1    4    4    0    0  0.56370494886E+01 -0.15383191087E+03  0.12928256413E+03  0.20102242292E+03  0.00000000000E+00 0. -1.
         -5    1    5    5    0  502 -0.86112068760E+01  0.14382261354E+02  0.14007182793E+02  0.22344876265E+02  0.47000000000E+01 0.  1.
         13    1    6    6    0    0 -0.28535257061E+01  0.11482024644E+03  0.13385787800E+04  0.13434972950E+04  0.00000000000E+00 0. -1.
        -14    1    6    6    0    0  0.21582666634E+02 -0.54238755870E+01  0.16406653084E+03  0.16556888738E+03  0.00000000000E+00 0.  1.
<mgrwt>
<rscale>  2 0.21222253E+03</rscale>
<asrwt>0</asrwt>
<pdfrwt beam="1">  1       21 0.27709293E+00 0.21226447E+03</pdfrwt>
<pdfrwt beam="2">  1       21 0.73897049E-02 0.21226447E+03</pdfrwt>
<totfact> 0.62423990E+03</totfact>
</mgrwt>
</event>
<event>
12    1  0.1029207E-001  0.1806146E+03  0.7546771E-02  0.1167275E+00
         21   -1    0    0  503  502  0.00000000000E+00  0.00000000000E+00  0.57472912027E+02  0.57472912027E+02  0.00000000000E+00 0. -1.
         21   -1    0    0  501  503 -0.00000000000E+00 -0.00000000000E+00 -0.21548719673E+04  0.21548719673E+04  0.00000000000E+00 0. -1.
          6    2    1    2  501    0 -0.51419202114E+02  0.14535929423E+02 -0.19985347632E+04  0.20066795551E+04  0.17252944632E+03 0.  0.
         24    2    3    3    0    0 -0.74756802281E+02  0.36302137469E+01 -0.77143170765E+03  0.77929714649E+03  0.81212098950E+02 0.  0.
         -6    2    1    2    0  502  0.51419202114E+02 -0.14535929423E+02 -0.98864292072E+02  0.20566532415E+03  0.17224647956E+03 0.  0.
        -24    2    5    5    0    0 -0.30249757091E+02  0.88657027459E+01 -0.81983199246E+02  0.11892135271E+03  0.80171033943E+02 0.  0.
          5    1    3    3  501    0  0.23337600167E+02  0.10905715676E+02 -0.12271030555E+04  0.12273824087E+04  0.47000000000E+01 0. -1.
        -13    1    4    4    0    0 -0.76427565374E+02 -0.10508845120E+02 -0.74735231156E+03  0.75132355625E+03  0.00000000000E+00 0.  1.
         14    1    4    4    0    0  0.16707630925E+01  0.14139058866E+02 -0.24079396087E+02  0.27973590239E+02  0.00000000000E+00 0. -1.
         -5    1    5    5    0  502  0.81668959204E+02 -0.23401632169E+02 -0.16881092826E+02  0.86743971437E+02  0.47000000000E+01 0.  1.
         11    1    6    6    0    0  0.77602279044E+01 -0.73422823633E+01  0.12113559588E+02  0.16151426356E+02  0.00000000000E+00 0. -1.
        -12    1    6    6    0    0 -0.38009984995E+02  0.16207985109E+02 -0.94096758834E+02  0.10276992636E+03  0.00000000000E+00 0.  1.
<mgrwt>
<rscale>  2 0.18054700E+03</rscale>
<asrwt>0</asrwt>
<pdfrwt beam="1">  1       21 0.88419871E-02 0.18061461E+03</pdfrwt>
<pdfrwt beam="2">  1       21 0.33151874E+00 0.18061461E+03</pdfrwt>
<totfact> 0.22987207E+03</totfact>
</mgrwt>
</event>
<event>
12    1  0.1029207E-001  0.2801910E+03  0.7546771E-02  0.1095932E+00
         21   -1    0    0  501  502  0.00000000000E+00  0.00000000000E+00  0.52501789132E+03  0.52501789132E+03  0.00000000000E+00 0. -1.
         21   -1    0    0  502  503 -0.00000000000E+00 -0.00000000000E+00 -0.15109219114E+03  0.15109219114E+03  0.00000000000E+00 0. -1.
         -6    2    1    2    0  503  0.81497661551E+02 -0.20452351905E+03  0.13921316973E+03  0.31060087397E+03  0.16917700080E+03 0.  0.
        -24    2    3    3    0    0  0.17122942121E+01 -0.32837433099E+02  0.54770384001E+02  0.10324974421E+03  0.81114029310E+02 0.  0.
          6    2    1    2  501    0 -0.81497661551E+02  0.20452351905E+03  0.23471253045E+03  0.36550920850E+03  0.17330686907E+03 0.  0.
         24    2    5    5    0    0 -0.93557030545E+02  0.22181032875E+03  0.19314792393E+03  0.31866938906E+03  0.79317835935E+02 0.  0.
          5    1    5    5  501    0  0.12059368994E+02 -0.17286809704E+02  0.41564606522E+02  0.46839819444E+02  0.47000000000E+01 0. -1.
        -13    1    6    6    0    0  0.60721318176E+01  0.22096524884E+02 -0.88455805386E+00  0.22932719850E+02  0.00000000000E+00 0.  1.
         14    1    6    6    0    0 -0.99629162362E+02  0.19971380387E+03  0.19403248198E+03  0.29573666921E+03  0.00000000000E+00 0. -1.
         -5    1    3    3    0  503  0.79785367339E+02 -0.17168608595E+03  0.84442785730E+02  0.20735112976E+03  0.47000000000E+01 0.  1.
         13    1    4    4    0    0  0.37511881662E+02 -0.21635875246E+02  0.92784657851E+01  0.44287044277E+02  0.00000000000E+00 0. -1.
        -14    1    4    4    0    0 -0.35799587450E+02 -0.11201557853E+02  0.45491918216E+02  0.58962699929E+02  0.00000000000E+00 0.  1.
<mgrwt>
<rscale>  2 0.27955499E+03</rscale>
<asrwt>0</asrwt>
<pdfrwt beam="1">  1       21 0.80771983E-01 0.28019102E+03</pdfrwt>
<pdfrwt beam="2">  1       21 0.23244953E-01 0.28019102E+03</pdfrwt>
<totfact> 0.22391674E+04</totfact>
</mgrwt>
</event>
<event>
12    1  0.1029207E-001  0.1750228E+03  0.7546771E-02  0.1172949E+00
         21   -1    0    0  501  502  0.00000000000E+00  0.00000000000E+00  0.34623650314E+03  0.34623650314E+03  0.00000000000E+00 0.  1.
         21   -1    0    0  502  503 -0.00000000000E+00 -0.00000000000E+00 -0.13634417547E+03  0.13634417547E+03  0.00000000000E+00 0.  1.
         -6    2    1    2    0  503  0.22100900456E-01  0.19431049062E+02 -0.38558784123E+02  0.17921984655E+03  0.17394081582E+03 0.  0.
        -24    2    3    3    0    0 -0.35936001722E+02  0.37910670823E+02  0.29482286231E+02  0.99934546403E+02  0.79931803316E+02 0.  0.
          6    2    1    2  501    0 -0.22100900456E-01 -0.19431049062E+02  0.24845111179E+03  0.30336083206E+03  0.17298055764E+03 0.  0.
         24    2    5    5    0    0  0.10395541253E+02 -0.53561884994E+02  0.24974525855E+03  0.26734408532E+03  0.78251025479E+02 0.  0.
          5    1    5    5  501    0 -0.10417642153E+02  0.34130835932E+02 -0.12941467596E+01  0.36016746734E+02  0.47000000000E+01 0. -1.
        -11    1    6    6    0    0 -0.23613476406E+02 -0.40471880893E+02  0.72019216278E+02  0.85920526792E+02  0.00000000000E+00 0.  1.
         12    1    6    6    0    0  0.34009017658E+02 -0.13090004101E+02  0.17772604227E+03  0.18142355853E+03  0.00000000000E+00 0. -1.
         -5    1    3    3    0  503  0.35958102622E+02 -0.18479621762E+02 -0.68041070354E+02  0.79285300148E+02  0.47000000000E+01 0.  1.
         13    1    4    4    0    0 -0.18222214133E+02 -0.63163397784E+01 -0.22358210559E+02  0.29526849062E+02  0.00000000000E+00 0. -1.
        -14    1    4    4    0    0 -0.17713787589E+02  0.44227010602E+02  0.51840496790E+02  0.70407697342E+02  0.00000000000E+00 0.  1.
<mgrwt>
<rscale>  2 0.17478372E+03</rscale>
<asrwt>0</asrwt>
<pdfrwt beam="1">  1       21 0.53267154E-01 0.17502278E+03</pdfrwt>
<pdfrwt beam="2">  1       21 0.20976027E-01 0.17502278E+03</pdfrwt>
<totfact> 0.70994709E+04</totfact>
</mgrwt>
</event>
<event>
12    1  0.1029207E-001  0.3251488E+03  0.7546771E-02  0.1073602E+00
         21   -1    0    0  501  502  0.00000000000E+00  0.00000000000E+00  0.14025464578E+04  0.14025464578E+04  0.00000000000E+00 0. -1.
         21   -1    0    0  502  503 -0.00000000000E+00 -0.00000000000E+00 -0.12097113991E+03  0.12097113991E+03  0.00000000000E+00 0.  1.
         -6    2    1    2    0  503  0.16112289177E+02 -0.27251175655E+03  0.16841513894E+03  0.36384207457E+03  0.17174147107E+03 0.  0.
        -24    2    3    3    0    0  0.70670842420E+02 -0.14066253933E+03  0.10214117772E+03  0.20644074120E+03  0.86050226611E+02 0.  0.
          6    2    1    2  501    0 -0.16112289177E+02  0.27251175655E+03  0.11131601789E+04  0.11596755231E+04  0.17663372169E+03 0.  0.
         24    2    5    5    0    0  0.25989932641E+02  0.17871998047E+03  0.91878733327E+03  0.93973828782E+03  0.79508350444E+02 0.  0.
          5    1    5    5  501    0 -0.42102221818E+02  0.93791776082E+02  0.19437284567E+03  0.21993723531E+03  0.47000000000E+01 0. -1.
        -11    1    6    6    0    0 -0.17456340682E+02  0.31413119583E+02  0.91276874959E+02  0.98096767603E+02  0.00000000000E+00 0.  1.
         12    1    6    6    0    0  0.43446273323E+02  0.14730686089E+03  0.82751045832E+03  0.84164152022E+03  0.00000000000E+00 0. -1.
         -5    1    3    3    0  503 -0.54558553243E+02 -0.13184921722E+03  0.66273961217E+02  0.15740133338E+03  0.47000000000E+01 0.  1.
         11    1    4    4    0    0  0.53288239502E+02 -0.10199751394E+03  0.11444521446E+03  0.16229860268E+03  0.00000000000E+00 0. -1.
        -12    1    4    4    0    0  0.17382602918E+02 -0.38665025389E+02 -0.12304036739E+02  0.44142138514E+02  0.00000000000E+00 0.  1.
<mgrwt>
<rscale>  2 0.32448891E+03</rscale>
<asrwt>0</asrwt>
<pdfrwt beam="1">  1       21 0.21577637E+00 0.32514879E+03</pdfrwt>
<pdfrwt beam="2">  1       21 0.18610946E-01 0.32514879E+03</pdfrwt>
<totfact> 0.25367463E+03</totfact>
</mgrwt>
</event>
<event>
12    1  0.1029207E-001  0.2158767E+03  0.7546771E-02  0.1137181E+00
         21   -1    0    0  503  502  0.00000000000E+00  0.00000000000E+00  0.18129211285E+03  0.18129211285E+03  0.00000000000E+00 0. -1.
         21   -1    0    0  501  503 -0.00000000000E+00 -0.00000000000E+00 -0.26112187321E+03  0.26112187321E+03  0.00000000000E+00 0.  1.
          6    2    1    2  501    0  0.12243741431E+02 -0.12873809254E+03 -0.71265432395E+02  0.22733570228E+03  0.17285645491E+03 0.  0.
         24    2    3    3    0    0  0.61877248297E+01 -0.16106330153E+03 -0.71439456991E+02  0.19411349949E+03  0.81220561629E+02 0.  0.
         -6    2    1    2    0  502 -0.12243741431E+02  0.12873809254E+03 -0.85643279625E+01  0.21507828377E+03  0.17164473415E+03 0.  0.
        -24    2    5    5    0    0 -0.68432996801E+02  0.11635357269E+03 -0.17527675867E+02  0.15665705170E+03  0.77543429750E+02 0.  0.
          5    1    3    3  501    0  0.60560166013E+01  0.32325208996E+02  0.17402459613E+00  0.33222202791E+02  0.47000000000E+01 0. -1.
        -13    1    4    4    0    0 -0.31250859313E+02 -0.51927976372E+02 -0.45683288717E+02  0.75895281842E+02  0.00000000000E+00 0.  1.
         14    1    4    4    0    0  0.37438584143E+02 -0.10913532516E+03 -0.25756168274E+02  0.11821821765E+03  0.00000000000E+00 0. -1.
         -5    1    5    5    0  502  0.56189255370E+02  0.12384519844E+02  0.89633479047E+01  0.58421232069E+02  0.47000000000E+01 0.  1.
         13    1    6    6    0    0 -0.14598349044E+02  0.66660632555E+02  0.24126659171E+02  0.72379882635E+02  0.00000000000E+00 0. -1.
        -14    1    6    6    0    0 -0.53834647757E+02  0.49692940138E+02 -0.41654335038E+02  0.84277169068E+02  0.00000000000E+00 0.  1.
<mgrwt>
<rscale>  2 0.21563406E+03</rscale>
<asrwt>0</asrwt>
<pdfrwt beam="1">  1       21 0.27891094E-01 0.21587672E+03</pdfrwt>
<pdfrwt beam="2">  1       21 0.40172596E-01 0.21587672E+03</pdfrwt>
<totfact> 0.72568640E+04</totfact>
</mgrwt>
</event>
<event>
12    1  0.1029207E-001  0.2023615E+03  0.7546771E-02  0.1148045E+00
         21   -1    0    0  501  502  0.00000000000E+00  0.00000000000E+00  0.62523366224E+03  0.62523366224E+03  0.00000000000E+00 0. -1.
         21   -1    0    0  502  503 -0.00000000000E+00 -0.00000000000E+00 -0.66594988175E+02  0.66594988175E+02  0.00000000000E+00 0. -1.
         -6    2    1    2    0  503  0.13432097543E+02  0.10351554963E+03  0.22581524495E+03  0.30231406201E+03  0.17177129264E+03 0.  0.
        -24    2    3    3    0    0 -0.14535446149E+02 -0.98887513784E+01  0.71500602019E+02  0.10872217682E+03  0.79994431332E+02 0.  0.
          6    2    1    2  501    0 -0.13432097543E+02 -0.10351554963E+03  0.33282342911E+03  0.38951458841E+03  0.17336172980E+03 0.  0.
         24    2    5    5    0    0  0.25776191805E+02 -0.79434450115E+02  0.10890059569E+03  0.16086482428E+03  0.83927993070E+02 0.  0.
          5    1    5    5  501    0 -0.39208289348E+02 -0.24081099515E+02  0.22392283342E+03  0.22864976413E+03  0.47000000000E+01 0. -1.
        -13    1    6    6    0    0 -0.14970128273E+02  0.70801232838E+01  0.86176971321E+00  0.16582386236E+02  0.00000000000E+00 0.  1.
         14    1    6    6    0    0  0.40746320078E+02 -0.86514573399E+02  0.10803882598E+03  0.14428243805E+03  0.00000000000E+00 0. -1.
         -5    1    3    3    0  503  0.27967543692E+02  0.11340430101E+03  0.15431464293E+03  0.19359188519E+03  0.47000000000E+01 0.  1.
         13    1    4    4    0    0 -0.26778204895E+02 -0.76084749130E+00 -0.78500074984E+01  0.27915475350E+02  0.00000000000E+00 0. -1.
        -14    1    4    4    0    0  0.12242758746E+02 -0.91279038871E+01  0.79350609518E+02  0.80806701467E+02  0.00000000000E+00 0.  1.
<mgrwt>
<rscale>  2 0.20202044E+03</rscale>
<asrwt>0</asrwt>
<pdfrwt beam="1">  1       21 0.96189790E-01 0.20236151E+03</pdfrwt>
<pdfrwt beam="2">  1       21 0.10245383E-01 0.20236151E+03</pdfrwt>
<totfact> 0.69623990E+04</totfact>
</mgrwt>
</event>
<event>
12    1  0.1029207E-001  0.2063392E+03  0.7546771E-02  0.1144551E+00
         21   -1    0    0  503  502  0.00000000000E+00  0.00000000000E+00  0.30591949221E+03  0.30591949221E+03  0.00000000000E+00 0. -1.
         21   -1    0    0  501  503 -0.00000000000E+00 -0.00000000000E+00 -0.20628479241E+03  0.20628479241E+03  0.00000000000E+00 0. -1.
          6    2    1    2  501    0  0.26415361070E+02 -0.10893736571E+03 -0.96469055388E+02  0.22754214061E+03  0.17292780620E+03 0.  0.
         24    2    3    3    0    0 -0.28163866260E+02 -0.59394949810E+02  0.94377313612E+00  0.10529365518E+03  0.82249010253E+02 0.  0.
         -6    2    1    2    0  502 -0.26415361070E+02  0.10893736571E+03  0.19610375519E+03  0.28466214401E+03  0.17323606000E+03 0.  0.
        -24    2    5    5    0    0 -0.65920420035E+02  0.78243951433E+02  0.66964715030E+02  0.14609188364E+03  0.79943403069E+02 0.  0.
          5    1    3    3  501    0  0.54579227330E+02 -0.49542415895E+02 -0.97412828524E+02  0.12224848543E+03  0.47000000000E+01 0. -1.
        -13    1    4    4    0    0 -0.47701019106E+02 -0.60616076884E+02  0.18139227822E+02  0.79238422413E+02  0.00000000000E+00 0.  1.
         14    1    4    4    0    0  0.19537152846E+02  0.12211270736E+01 -0.17195454685E+02  0.26055232766E+02  0.00000000000E+00 0. -1.
         -5    1    5    5    0  502  0.39505058965E+02  0.30693414272E+02  0.12913904016E+03  0.13857026037E+03  0.47000000000E+01 0.  1.
         13    1    6    6    0    0 -0.67750397388E+02  0.66600050664E+02  0.83025428648E+02  0.12617014265E+03  0.00000000000E+00 0. -1.
        -14    1    6    6    0    0  0.18299773525E+01  0.11643900769E+02 -0.16060713618E+02  0.19921740992E+02  0.00000000000E+00 0.  1.
<mgrwt>
<rscale>  2 0.20627446E+03</rscale>
<asrwt>0</asrwt>
<pdfrwt beam="1">  1       21 0.47064537E-01 0.20633917E+03</pdfrwt>
<pdfrwt beam="2">  1       21 0.31736122E-01 0.20633917E+03</pdfrwt>
<totfact> 0.40955705E+04</totfact>
</mgrwt>
</event>
<event>
12    1  0.1029207E-001  0.1918966E+03  0.7546771E-02  0.1157039E+00
         21   -1    0    0  501  502  0.00000000000E+00  0.00000000000E+00  0.13078027422E+03  0.13078027422E+03  0.00000000000E+00 0.  1.
         21   -1    0    0  502  503 -0.00000000000E+00 -0.00000000000E+00 -0.58965964708E+03  0.58965964708E+03  0.00000000000E+00 0.  1.
         -6    2    1    2    0  503  0.48855380880E+02 -0.65382475316E+02 -0.49023036262E+03  0.52599922584E+03  0.17230107612E+03 0.  0.
        -24    2    3    3    0    0  0.62698637760E+02 -0.75145855151E+01 -0.16725129667E+03  0.19755152000E+03  0.84059613637E+02 0.  0.
          6    2    1    2  501    0 -0.48855380880E+02  0.65382475316E+02  0.31350989756E+02  0.19444069547E+03  0.17367378379E+03 0.  0.
         24    2    5    5    0    0  0.33340229814E+01  0.97291120293E+02  0.67129019931E+01  0.12832699894E+03  0.83343132930E+02 0.  0.
          5    1    5    5  501    0 -0.52189403862E+02 -0.31908644976E+02  0.24638087762E+02  0.66113696525E+02  0.47000000000E+01 0. -1.
        -11    1    6    6    0    0 -0.35867819216E+02  0.51599985529E+02  0.21350722408E+02  0.66369513402E+02  0.00000000000E+00 0.  1.
         12    1    6    6    0    0  0.39201842197E+02  0.45691134764E+02 -0.14637820415E+02  0.61957485537E+02  0.00000000000E+00 0. -1.
         -5    1    3    3    0  503 -0.13843256879E+02 -0.57867889801E+02 -0.32297906594E+03  0.32844770584E+03  0.47000000000E+01 0.  1.
         13    1    4    4    0    0 -0.11124615281E+02  0.99904058308E+01 -0.12143282497E+01  0.15001328838E+02  0.00000000000E+00 0. -1.
        -14    1    4    4    0    0  0.73823253041E+02 -0.17504991346E+02 -0.16603696842E+03  0.18255019117E+03  0.00000000000E+00 0.  1.
<mgrwt>
<rscale>  2 0.19158546E+03</rscale>
<asrwt>0</asrwt>
<pdfrwt beam="1">  1       21 0.20120042E-01 0.19189659E+03</pdfrwt>
<pdfrwt beam="2">  1       21 0.90716868E-01 0.19189659E+03</pdfrwt>
<totfact> 0.23555935E+04</totfact>
</mgrwt>
</event>
<event>
12    1  0.1029207E-001  0.2122194E+03  0.7546771E-02  0.1140072E+00
         21   -1    0    0  503  502  0.00000000000E+00  0.00000000000E+00  0.15066834716E+03  0.15066834716E+03  0.00000000000E+00 0. -1.
         21   -1    0    0  501  503 -0.00000000000E+00 -0.00000000000E+00 -0.30582881050E+03  0.30582881050E+03  0.00000000000E+00 0. -1.
          6    2    1    2  501    0  0.12061362109E+03  0.75035395341E+01 -0.11635429512E+03  0.24202350552E+03  0.17445087141E+03 0.  0.
         24    2    3    3    0    0  0.11907940596E+02  0.10802265880E+02 -0.10436241654E+03  0.13250774538E+03  0.80051861966E+02 0.  0.
         -6    2    1    2    0  502 -0.12061362109E+03 -0.75035395341E+01 -0.38806168226E+02  0.21447365214E+03  0.17288458599E+03 0.  0.
        -24    2    5    5    0    0 -0.10293160639E+03  0.16149283461E+02  0.36323540085E+02  0.13361159212E+03  0.75345491130E+02 0.  0.
          5    1    3    3  501    0  0.10870568049E+03 -0.32987263460E+01 -0.11991878580E+02  0.10951576014E+03  0.47000000000E+01 0. -1.
        -11    1    4    4    0    0  0.11601035648E+01  0.43466249690E+02 -0.37918158704E+02  0.57692698515E+02  0.00000000000E+00 0.  1.
         12    1    4    4    0    0  0.10747837031E+02 -0.32663983810E+02 -0.66444257832E+02  0.74815046870E+02  0.00000000000E+00 0. -1.
         -5    1    5    5    0  502 -0.17682014694E+02 -0.23652822995E+02 -0.75129708311E+02  0.80862060017E+02  0.47000000000E+01 0.  1.
         13    1    6    6    0    0 -0.11424113156E+03  0.17256681433E+02  0.38991129033E+02  0.12193907223E+03  0.00000000000E+00 0. -1.
        -14    1    6    6    0    0  0.11309525165E+02 -0.11073979717E+01 -0.26675889474E+01  0.11672519887E+02  0.00000000000E+00 0.  1.
<mgrwt>
<rscale>  2 0.21189721E+03</rscale>
<asrwt>0</asrwt>
<pdfrwt beam="1">  1       21 0.23179746E-01 0.21221936E+03</pdfrwt>
<pdfrwt beam="2">  1       21 0.47050586E-01 0.21221936E+03</pdfrwt>
<totfact> 0.74965179E+04</totfact>
</mgrwt>
</event>
<event>
12    1  0.1029207E-001  0.1788225E+03  0.7546771E-02  0.1169097E+00
         21   -1    0    0  501  502  0.00000000000E+00  0.00000000000E+00  0.30567133663E+03  0.30567133663E+03  0.00000000000E+00 0.  1.
         21   -1    0    0  502  503 -0.00000000000E+00 -0.00000000000E+00 -0.25420660492E+03  0.25420660492E+03  0.00000000000E+00 0.  1.
         -6    2    1    2    0  503  0.20107187094E+02 -0.41344909710E+02 -0.18925107069E+03  0.26037173369E+03  0.17281137525E+03 0.  0.
        -24    2    3    3    0    0 -0.34172679250E+02 -0.21720156978E+02 -0.18179265968E+03  0.20198378369E+03  0.78162270547E+02 0.  0.
          6    2    1    2  501    0 -0.20107187094E+02  0.41344909710E+02  0.24071580240E+03  0.29950620786E+03  0.17218063332E+03 0.  0.
         24    2    5    5    0    0 -0.23249674534E+02  0.41926196095E+02  0.26179525924E+03  0.27767396973E+03  0.79168948594E+02 0.  0.
          5    1    5    5  501    0  0.31424874393E+01 -0.58128638460E+00 -0.21079456839E+02  0.21832238130E+02  0.47000000000E+01 0. -1.
        -11    1    6    6    0    0  0.11276200016E+02  0.23358237338E+00  0.10033000027E+01  0.11323155851E+02  0.00000000000E+00 0.  1.
         12    1    6    6    0    0 -0.34525874550E+02  0.41692613721E+02  0.26079195923E+03  0.26635081388E+03  0.00000000000E+00 0. -1.
         -5    1    3    3    0  503  0.54279866344E+02 -0.19624752732E+02 -0.74584110129E+01  0.58387949998E+02  0.47000000000E+01 0.  1.
         11    1    4    4    0    0 -0.14371242798E+02 -0.46726643902E+02 -0.67630814744E+02  0.83449619369E+02  0.00000000000E+00 0. -1.
        -12    1    4    4    0    0 -0.19801436452E+02  0.25006486925E+02 -0.11416184493E+03  0.11853416432E+03  0.00000000000E+00 0.  1.
<mgrwt>
<rscale>  2 0.17866990E+03</rscale>
<asrwt>0</asrwt>
<pdfrwt beam="1">  1       21 0.47026359E-01 0.17882246E+03</pdfrwt>
<pdfrwt beam="2">  1       21 0.39108708E-01 0.17882246E+03</pdfrwt>
<totfact> 0.27489219E+04</totfact>
</mgrwt>
</event>
<event>
12    1  0.1029207E-001  0.2123779E+03  0.7546771E-02  0.1139726E+00
         21   -1    0    0  501  502  0.00000000000E+00  0.00000000000E+00  0.59225500883E+03  0.59225500883E+03  0.00000000000E+00 0. -1.
         21   -1    0    0  502  503 -0.00000000000E+00 -0.00000000000E+00 -0.10160135676E+03  0.10160135676E+03  0.00000000000E+00 0. -1.
         -6    2    1    2    0  503  0.11401089859E+03  0.44994132978E+02  0.71466882084E+02  0.22393944277E+03  0.17325819402E+03 0.  0.
        -24    2    3    3    0    0  0.25739330491E+02  0.81513055593E+02  0.42224916908E+02  0.12392602382E+03  0.79169592680E+02 0.  0.
          6    2    1    2  501    0 -0.11401089859E+03 -0.44994132978E+02  0.41918676998E+03  0.46991692282E+03  0.17343992972E+03 0.  0.
         24    2    5    5    0    0 -0.86828667500E+02 -0.10900302878E+02  0.12876362736E+03  0.17620115084E+03  0.82515087854E+02 0.  0.
          5    1    5    5  501    0 -0.27182231091E+02 -0.34093830100E+02  0.29042314262E+03  0.29371577197E+03  0.47000000000E+01 0. -1.
        -11    1    6    6    0    0 -0.32905151642E+02 -0.43698050923E+02  0.77660775454E+02  0.94991919147E+02  0.00000000000E+00 0.  1.
         12    1    6    6    0    0 -0.53923515858E+02  0.32797748044E+02  0.51102851911E+02  0.81209231696E+02  0.00000000000E+00 0. -1.
         -5    1    3    3    0  503  0.88271568100E+02 -0.36518922615E+02  0.29241965176E+02  0.10001341896E+03  0.47000000000E+01 0.  1.
         11    1    4    4    0    0  0.21812327278E+02  0.26928141425E+02 -0.20831428085E+02  0.40433288488E+02  0.00000000000E+00 0. -1.
        -12    1    4    4    0    0  0.39270032125E+01  0.54584914168E+02  0.63056344993E+02  0.83492735330E+02  0.00000000000E+00 0.  1.
<mgrwt>
<rscale>  2 0.21234078E+03</rscale>
<asrwt>0</asrwt>
<pdfrwt beam="1">  1       21 0.91116153E-01 0.21237789E+03</pdfrwt>
<pdfrwt beam="2">  1       21 0.15630978E-01 0.21237789E+03</pdfrwt>
<totfact> 0.36762434E+04</totfact>
</mgrwt>
</event>
<event>
12    1  0.1029207E-001  0.2082435E+03  0.7546771E-02  0.1144700E+00
         21   -1    0    0  503  502  0.00000000000E+00  0.00000000000E+00  0.13676016263E+04  0.13676016263E+04  0.00000000000E+00 0. -1.
         21   -1    0    0  501  503 -0.00000000000E+00 -0.00000000000E+00 -0.39775593938E+02  0.39775593938E+02  0.00000000000E+00 0. -1.
          6    2    1    2  501    0 -0.15310784343E+02 -0.11452154864E+03  0.33344612900E+03  0.39313061416E+03  0.17325055160E+03 0.  0.
         24    2    3    3    0    0  0.36991036749E+02 -0.12409121348E+03  0.26831207573E+03  0.30891901241E+03  0.81686107661E+02 0.  0.
         -6    2    1    2    0  502  0.15310784343E+02  0.11452154864E+03  0.99437990337E+03  0.10142466061E+04  0.16295760337E+03 0.  0.
        -24    2    5    5    0    0  0.17390435474E+02  0.13873614253E+03  0.94853842834E+03  0.96214859903E+03  0.80340724900E+02 0.  0.
          5    1    3    3  501    0 -0.52301821092E+02  0.95696648321E+01  0.65134053263E+02  0.84211601748E+02  0.47000000000E+01 0. -1.
        -11    1    4    4    0    0  0.46653300952E+02 -0.28563049323E+02  0.12465027718E+03  0.13612519927E+03  0.00000000000E+00 0.  1.
         12    1    4    4    0    0 -0.96622642028E+01 -0.95528164154E+02  0.14366179856E+03  0.17279381314E+03  0.00000000000E+00 0. -1.
         -5    1    5    5    0  502 -0.20796511305E+01 -0.24214593890E+02  0.45841475032E+02  0.52098007056E+02  0.47000000000E+01 0.  1.
         13    1    6    6    0    0 -0.28494890932E+01  0.22363432344E+02  0.41855811070E+03  0.41916480617E+03  0.00000000000E+00 0. -1.
        -14    1    6    6    0    0  0.20239924567E+02  0.11637271019E+03  0.52998031764E+03  0.54298379286E+03  0.00000000000E+00 0.  1.
<mgrwt>
<rscale>  2 0.20608991E+03</rscale>
<asrwt>0</asrwt>
<pdfrwt beam="1">  1       21 0.21040021E+00 0.20824351E+03</pdfrwt>
<pdfrwt beam="2">  1       21 0.61193232E-02 0.20824351E+03</pdfrwt>
<totfact> 0.21735564E+04</totfact>
</mgrwt>
</event>
<event>
12    1  0.1029207E-001  0.2032996E+03  0.7546771E-02  0.1147129E+00
         21   -1    0    0  503  502  0.00000000000E+00  0.00000000000E+00  0.10826865086E+04  0.10826865086E+04  0.00000000000E+00 0.  1.
         21   -1    0    0  501  503 -0.00000000000E+00 -0.00000000000E+00 -0.38201564733E+02  0.38201564733E+02  0.00000000000E+00 0. -1.
          6    2    1    2  501    0  0.42380493558E+02 -0.97160821451E+02  0.55744201187E+03  0.59311773002E+03  0.17265779337E+03 0.  0.
         24    2    3    3    0    0 -0.97287205653E+01 -0.56249085869E+02  0.14507382606E+03  0.17543513405E+03  0.80451622661E+02 0.  0.
         -6    2    1    2    0  502 -0.42380493558E+02  0.97160821451E+02  0.48704293201E+03  0.52777034332E+03  0.17347733631E+03 0.  0.
        -24    2    5    5    0    0 -0.49914843678E+02  0.12181688571E+03  0.28311949583E+03  0.32216989157E+03  0.79409979556E+02 0.  0.
          5    1    3    3  501    0  0.52109214123E+02 -0.40911735582E+02  0.41236818581E+03  0.41768259597E+03  0.47000000000E+01 0. -1.
        -11    1    4    4    0    0 -0.20115043471E+02 -0.49309660550E+02  0.15206500848E+03  0.16112052756E+03  0.00000000000E+00 0.  1.
         12    1    4    4    0    0  0.10386322906E+02 -0.69394253193E+01 -0.69911824258E+01  0.14314606491E+02  0.00000000000E+00 0. -1.
         -5    1    5    5    0  502  0.75343501203E+01 -0.24656064262E+02  0.20392343618E+03  0.20560045175E+03  0.47000000000E+01 0.  1.
         13    1    6    6    0    0 -0.25406135954E+02  0.81975438429E+02  0.25142043288E+03  0.26566459742E+03  0.00000000000E+00 0. -1.
        -14    1    6    6    0    0 -0.24508707724E+02  0.39841447284E+02  0.31699062947E+02  0.56505294156E+02  0.00000000000E+00 0.  1.
<mgrwt>
<rscale>  2 0.20312463E+03</rscale>
<asrwt>0</asrwt>
<pdfrwt beam="1">  1       21 0.16656713E+00 0.20329958E+03</pdfrwt>
<pdfrwt beam="2">  1       21 0.58771646E-02 0.20329958E+03</pdfrwt>
<totfact> 0.45801983E+04</totfact>
</mgrwt>
</event>
<event>
12    1  0.1029207E-001  0.2206027E+03  0.7546771E-02  0.1134644E+00
         21   -1    0    0  503  502  0.00000000000E+00  0.00000000000E+00  0.42963244420E+03  0.42963244420E+03  0.00000000000E+00 0.  1.
         21   -1    0    0  501  503 -0.00000000000E+00 -0.00000000000E+00 -0.11011036209E+03  0.11011036209E+03  0.00000000000E+00 0. -1.
          6    2    1    2  501    0 -0.36003001159E+02 -0.13089204449E+03  0.16571728196E+03  0.27081626107E+03  0.16568127932E+03 0.  0.
         24    2    3    3    0    0 -0.79401784829E+02 -0.53942854130E+02  0.10451437829E+03  0.16324062378E+03  0.80683152120E+02 0.  0.
         -6    2    1    2    0  502  0.36003001159E+02  0.13089204449E+03  0.15380480014E+03  0.26892654522E+03  0.17388682173E+03 0.  0.
        -24    2    5    5    0    0  0.57709206323E+02  0.11087629184E+03  0.44860689886E+02  0.15595442983E+03  0.81764283753E+02 0.  0.
          5    1    3    3  501    0  0.43398783670E+02 -0.76949190360E+02  0.61202903674E+02  0.10757563729E+03  0.47000000000E+01 0. -1.
        -11    1    4    4    0    0 -0.57056385365E+02 -0.73493566513E+02  0.63655014575E+02  0.11273285373E+03  0.00000000000E+00 0.  1.
         12    1    4    4    0    0 -0.22345399464E+02  0.19550712383E+02  0.40859363715E+02  0.50507770046E+02  0.00000000000E+00 0. -1.
         -5    1    5    5    0  502 -0.21706205164E+02  0.20015752646E+02  0.10894411025E+03  0.11297211539E+03  0.47000000000E+01 0.  1.
         13    1    6    6    0    0  0.63766096296E+01  0.66648316844E+02 -0.11359881348E+02  0.67909544195E+02  0.00000000000E+00 0. -1.
        -14    1    6    6    0    0  0.51332596694E+02  0.44227975001E+02  0.56220571233E+02  0.88044885631E+02  0.00000000000E+00 0.  1.
<mgrwt>
<rscale>  2 0.21898290E+03</rscale>
<asrwt>0</asrwt>
<pdfrwt beam="1">  1       21 0.66097298E-01 0.22060274E+03</pdfrwt>
<pdfrwt beam="2">  1       21 0.16940056E-01 0.22060274E+03</pdfrwt>
<totfact> 0.65163235E+04</totfact>
</mgrwt>
</event>
<event>
12    1  0.1029207E-001  0.1832920E+03  0.7546771E-02  0.1164797E+00
         21   -1    0    0  503  502  0.00000000000E+00  0.00000000000E+00  0.34254660652E+03  0.34254660652E+03  0.00000000000E+00 0. -1.
         21   -1    0    0  501  503 -0.00000000000E+00 -0.00000000000E+00 -0.18043835687E+03  0.18043835687E+03  0.00000000000E+00 0. -1.
          6    2    1    2  501    0  0.39960542889E+02  0.44549978793E+02 -0.95885440024E+02  0.20685737147E+03  0.17324667075E+03 0.  0.
         24    2    3    3    0    0 -0.31510214035E+02  0.96639196654E+01  0.17562668186E+01  0.80837138446E+02  0.73792096780E+02 0.  0.
         -6    2    1    2    0  502 -0.39960542889E+02 -0.44549978793E+02  0.25799368968E+03  0.31612759191E+03  0.17261044249E+03 0.  0.
        -24    2    5    5    0    0  0.12723662137E+02 -0.31154443734E+02  0.24451399872E+03  0.25992387418E+03  0.81491311545E+02 0.  0.
          5    1    3    3  501    0  0.71470756924E+02  0.34886059127E+02 -0.97641706843E+02  0.12602023303E+03  0.47000000000E+01 0. -1.
        -13    1    4    4    0    0  0.85922031851E+01  0.24210052123E+02 -0.20366092121E+02  0.32783079289E+02  0.00000000000E+00 0.  1.
         14    1    4    4    0    0 -0.40102417220E+02 -0.14546132458E+02  0.22122358940E+02  0.48054059157E+02  0.00000000000E+00 0. -1.
         -5    1    5    5    0  502 -0.52684205026E+02 -0.13395535059E+02  0.13479690961E+02  0.56203717734E+02  0.47000000000E+01 0.  1.
         13    1    6    6    0    0 -0.15987530339E+02  0.41610878838E+01  0.18118277690E+03  0.18193436845E+03  0.00000000000E+00 0. -1.
        -14    1    6    6    0    0  0.28711192475E+02 -0.35315531618E+02  0.63331221816E+02  0.77989505727E+02  0.00000000000E+00 0.  1.
<mgrwt>
<rscale>  2 0.18314150E+03</rscale>
<asrwt>0</asrwt>
<pdfrwt beam="1">  1       21 0.52699478E-01 0.18329199E+03</pdfrwt>
<pdfrwt beam="2">  1       21 0.27759747E-01 0.18329199E+03</pdfrwt>
<totfact> 0.42478862E+04</totfact>
</mgrwt>
</event>
<event>
12    1  0.1029207E-001  0.1875540E+03  0.7546771E-02  0.1161291E+00
         21   -1    0    0  501  502  0.00000000000E+00  0.00000000000E+00  0.17710578002E+03  0.17710578002E+03  0.00000000000E+00 0. -1.
         21   -1    0    0  502  503 -0.00000000000E+00 -0.00000000000E+00 -0.22667205029E+03  0.22667205029E+03  0.00000000000E+00 0.  1.
         -6    2    1    2    0  503  0.18634026620E+02 -0.64130451046E+02 -0.99371426825E+02  0.21225266034E+03  0.17526143231E+03 0.  0.
        -24    2    3    3    0    0 -0.19234156049E+02 -0.36133556939E+01  0.79281424415E+01  0.83289077680E+02  0.80568020454E+02 0.  0.
          6    2    1    2  501    0 -0.18634026620E+02  0.64130451046E+02  0.49805156561E+02  0.19152516996E+03  0.17245693784E+03 0.  0.
         24    2    5    5    0    0  0.15741701978E+02  0.98101190850E+02  0.72003980647E+01  0.12692673867E+03  0.78656890537E+02 0.  0.
          5    1    5    5  501    0 -0.34375728598E+02 -0.33970739804E+02  0.42604758496E+02  0.64598431297E+02  0.47000000000E+01 0. -1.
        -13    1    6    6    0    0 -0.29620056214E+02  0.23612252239E+02  0.11557800838E+02  0.39603900643E+02  0.00000000000E+00 0.  1.
         14    1    6    6    0    0  0.45361758192E+02  0.74488938611E+02 -0.43574027728E+01  0.87322838024E+02  0.00000000000E+00 0. -1.
         -5    1    3    3    0  503  0.37868182669E+02 -0.60517095352E+02 -0.10729956927E+03  0.12896358266E+03  0.47000000000E+01 0.  1.
         11    1    4    4    0    0  0.29648784192E+02 -0.81392638126E+01  0.14074042958E+02  0.33813853738E+02  0.00000000000E+00 0. -1.
        -12    1    4    4    0    0 -0.48882940241E+02  0.45259081187E+01 -0.61459005164E+01  0.49475223941E+02  0.00000000000E+00 0.  1.
<mgrwt>
<rscale>  2 0.18689607E+03</rscale>
<asrwt>0</asrwt>
<pdfrwt beam="1">  1       21 0.27247043E-01 0.18755402E+03</pdfrwt>
<pdfrwt beam="2">  1       21 0.34872623E-01 0.18755402E+03</pdfrwt>
<totfact> 0.10198623E+05</totfact>
</mgrwt>
</event>
<event>
12    1  0.1029207E-001  0.1978787E+03  0.7546771E-02  0.1151547E+00
         21   -1    0    0  503  502  0.00000000000E+00  0.00000000000E+00  0.25398321715E+03  0.25398321715E+03  0.00000000000E+00 0. -1.
         21   -1    0    0  501  503 -0.00000000000E+00 -0.00000000000E+00 -0.13553380817E+04  0.13553380817E+04  0.00000000000E+00 0. -1.
          6    2    1    2  501    0  0.32433493375E+02  0.91366693618E+02 -0.13081947168E+04  0.13230719388E+04  0.17247067569E+03 0.  0.
         24    2    3    3    0    0  0.22962165522E+02  0.10970052985E+03 -0.12813350452E+04  0.12888759221E+04  0.82584363675E+02 0.  0.
         -6    2    1    2    0  502 -0.32433493375E+02 -0.91366693618E+02  0.20683985232E+03  0.28624935998E+03  0.17249976053E+03 0.  0.
        -24    2    5    5    0    0 -0.68630781065E+02 -0.12309661131E+02  0.14803480464E+03  0.18117613953E+03  0.77773892045E+02 0.  0.
          5    1    3    3  501    0  0.94713278535E+01 -0.18333836236E+02 -0.26859671636E+02  0.34196016768E+02  0.47000000000E+01 0. -1.
        -11    1    4    4    0    0 -0.28582988720E+02  0.36602121927E+02 -0.31418457645E+03  0.31759825354E+03  0.00000000000E+00 0.  1.
         12    1    4    4    0    0  0.51545154241E+02  0.73098407927E+02 -0.96715046874E+03  0.97127766851E+03  0.00000000000E+00 0. -1.
         -5    1    5    5    0  502  0.36197287690E+02 -0.79057032487E+02  0.58805047686E+02  0.10507322045E+03  0.47000000000E+01 0.  1.
         13    1    6    6    0    0 -0.32945076001E+02 -0.16864083391E+02  0.97286583784E+01  0.38267768882E+02  0.00000000000E+00 0. -1.
        -14    1    6    6    0    0 -0.35685705064E+02  0.45544222599E+01  0.13830614626E+03  0.14290837065E+03  0.00000000000E+00 0.  1.
<mgrwt>
<rscale>  2 0.19787234E+03</rscale>
<asrwt>0</asrwt>
<pdfrwt beam="1">  1       21 0.39074342E-01 0.19787868E+03</pdfrwt>
<pdfrwt beam="2">  1       21 0.20851355E+00 0.19787868E+03</pdfrwt>
<totfact> 0.74409291E+02</totfact>
</mgrwt>
</event>
<event>
12    1  0.1029207E-001  0.1992066E+03  0.7546771E-02  0.1150524E+00
         21   -1    0    0  503  502  0.00000000000E+00  0.00000000000E+00  0.12116436400E+04  0.12116436400E+04  0.00000000000E+00 0.  1.
         21   -1    0    0  501  503 -0.00000000000E+00 -0.00000000000E+00 -0.55514632425E+02  0.55514632425E+02  0.00000000000E+00 0.  1.
          6    2    1    2  501    0  0.76774478454E+02  0.47225450940E+02  0.17111457959E+03  0.26220220846E+03  0.17704585569E+03 0.  0.
         24    2    3    3    0    0  0.10692810626E+03  0.20953570315E+01  0.79774755911E+02  0.15584892908E+03  0.80541086324E+02 0.  0.
         -6    2    1    2    0  502 -0.76774478454E+02 -0.47225450940E+02  0.98501442802E+03  0.10049560640E+04  0.17764769459E+03 0.  0.
        -24    2    5    5    0    0 -0.48547822887E+02  0.10446813032E+01  0.88797804541E+03  0.89286280237E+03  0.79630347626E+02 0.  0.
          5    1    3    3  501    0 -0.30153627804E+02  0.45130093908E+02  0.91339823677E+02  0.10635327938E+03  0.47000000000E+01 0. -1.
        -11    1    4    4    0    0  0.98073805153E+01  0.29521414607E+02  0.83410295443E+01  0.32206698167E+02  0.00000000000E+00 0.  1.
         12    1    4    4    0    0  0.97120725742E+02 -0.27426057576E+02  0.71433726367E+02  0.12364223091E+03  0.00000000000E+00 0. -1.
         -5    1    5    5    0  502 -0.28226655567E+02 -0.48270132243E+02  0.97036382611E+02  0.11209326162E+03  0.47000000000E+01 0.  1.
         13    1    6    6    0    0  0.41119140857E+01  0.31944936797E+02  0.30299669974E+03  0.30470376906E+03  0.00000000000E+00 0. -1.
        -14    1    6    6    0    0 -0.52659736973E+02 -0.30900255494E+02  0.58498134567E+03  0.58815903331E+03  0.00000000000E+00 0.  1.
<mgrwt>
<rscale>  2 0.19907233E+03</rscale>
<asrwt>0</asrwt>
<pdfrwt beam="1">  1       21 0.18640669E+00 0.19920659E+03</pdfrwt>
<pdfrwt beam="2">  1       21 0.85407136E-02 0.19920659E+03</pdfrwt>
<totfact> 0.17553105E+04</totfact>
</mgrwt>
</event>
<event>
12    1  0.1029207E-001  0.2037128E+03  0.7546771E-02  0.1147053E+00
         21   -1    0    0  501  502  0.00000000000E+00  0.00000000000E+00  0.12152090632E+04  0.12152090632E+04  0.00000000000E+00 0. -1.
         21   -1    0    0  502  503 -0.00000000000E+00 -0.00000000000E+00 -0.34470659433E+02  0.34470659433E+02  0.00000000000E+00 0. -1.
         -6    2    1    2    0  503 -0.89236395413E+02 -0.58534790526E+02  0.50727273402E+03  0.54664845038E+03  0.17352073551E+03 0.  0.
        -24    2    3    3    0    0 -0.34526063727E+02  0.31715747977E+02  0.26745451774E+03  0.28459264152E+03  0.85223909814E+02 0.  0.
          6    2    1    2  501    0  0.89236395413E+02  0.58534790526E+02  0.67346566971E+03  0.70303127222E+03  0.17119435000E+03 0.  0.
         24    2    5    5    0    0  0.10749184386E+03  0.90844744074E+02  0.55522378621E+03  0.57901342064E+03  0.84710238400E+02 0.  0.
          5    1    5    5  501    0 -0.18255448444E+02 -0.32309953548E+02  0.11824188350E+03  0.12401785157E+03  0.47000000000E+01 0. -1.
        -13    1    6    6    0    0  0.71444442992E+02  0.59205575197E+02  0.48611700522E+03  0.49489327267E+03  0.00000000000E+00 0.  1.
         14    1    6    6    0    0  0.36047400865E+02  0.31639168877E+02  0.69106780989E+02  0.84120147974E+02  0.00000000000E+00 0. -1.
         -5    1    3    3    0  503 -0.54710331685E+02 -0.90250538503E+02  0.23981821628E+03  0.26205580885E+03  0.47000000000E+01 0.  1.
         13    1    4    4    0    0  0.20781222217E+02  0.24645073947E+02  0.16331090515E+03  0.16646227983E+03  0.00000000000E+00 0. -1.
        -14    1    4    4    0    0 -0.55307285944E+02  0.70706740300E+01  0.10414361259E+03  0.11813036169E+03  0.00000000000E+00 0.  1.
<mgrwt>
<rscale>  2 0.20321650E+03</rscale>
<asrwt>0</asrwt>
<pdfrwt beam="1">  1       21 0.18695521E+00 0.20371279E+03</pdfrwt>
<pdfrwt beam="2">  1       21 0.53031793E-02 0.20371279E+03</pdfrwt>
<totfact> 0.39479606E+04</totfact>
</mgrwt>
</event>
<event>
12    1  0.1029207E-001  0.1753714E+03  0.7546771E-02  0.1172865E+00
         21   -1    0    0  501  502  0.00000000000E+00  0.00000000000E+00  0.43131197673E+03  0.43131197673E+03  0.00000000000E+00 0.  1.
         21   -1    0    0  502  503 -0.00000000000E+00 -0.00000000000E+00 -0.19382211150E+03  0.19382211150E+03  0.00000000000E+00 0.  1.
         -6    2    1    2    0  503  0.26063542153E+02 -0.16869857874E+01 -0.13083297112E+03  0.21719188179E+03  0.17138521825E+03 0.  0.
        -24    2    3    3    0    0  0.14120961177E+02  0.60775098307E+01 -0.16237067210E+03  0.18226869155E+03  0.81371389880E+02 0.  0.
          6    2    1    2  501    0 -0.26063542153E+02  0.16869857874E+01  0.36832283635E+03  0.40794220644E+03  0.17341562175E+03 0.  0.
         24    2    5    5    0    0 -0.32910143276E+02  0.64882736754E+02  0.19788854018E+03  0.22597924812E+03  0.81325882653E+02 0.  0.
          5    1    5    5  501    0  0.68466011231E+01 -0.63195750966E+02  0.17043429617E+03  0.18196295832E+03  0.47000000000E+01 0. -1.
        -13    1    6    6    0    0  0.22512274602E+02  0.12903067441E+02  0.92398571359E+02  0.95972848485E+02  0.00000000000E+00 0.  1.
         14    1    6    6    0    0 -0.55422417878E+02  0.51979669313E+02  0.10548996882E+03  0.13000639964E+03  0.00000000000E+00 0. -1.
         -5    1    3    3    0  503  0.11942580976E+02 -0.77644956181E+01  0.31537700988E+02  0.34923190235E+02  0.47000000000E+01 0.  1.
         13    1    4    4    0    0 -0.10196052078E+02 -0.33861052098E+02 -0.58485685942E+02  0.68345488419E+02  0.00000000000E+00 0. -1.
        -14    1    4    4    0    0  0.24317013255E+02  0.39938561929E+02 -0.10388498616E+03  0.11392320313E+03  0.00000000000E+00 0.  1.
<mgrwt>
<rscale>  2 0.17486737E+03</rscale>
<asrwt>0</asrwt>
<pdfrwt beam="1">  1       21 0.66355688E-01 0.17537141E+03</pdfrwt>
<pdfrwt beam="2">  1       21 0.29818787E-01 0.17537141E+03</pdfrwt>
<totfact> 0.22696353E+04</totfact>
</mgrwt>
</event>
<event>
12    1  0.1029207E-001  0.1972346E+03  0.7546771E-02  0.1152477E+00
         21   -1    0    0  503  502  0.00000000000E+00  0.00000000000E+00  0.49075462828E+03  0.49075462828E+03  0.00000000000E+00 0. -1.
         21   -1    0    0  501  503 -0.00000000000E+00 -0.00000000000E+00 -0.79315798800E+02  0.79315798800E+02  0.00000000000E+00 0. -1.
          6    2    1    2  501    0  0.87574165835E+02  0.27530144017E+02  0.23268485016E+03  0.30388536578E+03  0.17255993941E+03 0.  0.
         24    2    3    3    0    0  0.45821563730E+02  0.49711017618E+02  0.49571573691E+02  0.11470864164E+03  0.78293873158E+02 0.  0.
         -6    2    1    2    0  502 -0.87574165835E+02 -0.27530144017E+02  0.17875397932E+03  0.26618506130E+03  0.17456906480E+03 0.  0.
        -24    2    5    5    0    0 -0.81823946332E+02 -0.78780627626E+02  0.15724731284E+03  0.21011096926E+03  0.80736339576E+02 0.  0.
          5    1    3    3  501    0  0.41752602105E+02 -0.22180873601E+02  0.18311327646E+03  0.18917672413E+03  0.47000000000E+01 0. -1.
        -13    1    4    4    0    0 -0.13578236088E+02 -0.10613977666E+02  0.13725146890E+01  0.17288979546E+02  0.00000000000E+00 0.  1.
         14    1    4    4    0    0  0.59399799819E+02  0.60324995284E+02  0.48199059002E+02  0.97419662098E+02  0.00000000000E+00 0. -1.
         -5    1    5    5    0  502 -0.57502195036E+01  0.51250483608E+02  0.21506666485E+02  0.56074092036E+02  0.47000000000E+01 0.  1.
         13    1    6    6    0    0  0.46154553762E+01 -0.45239465648E+02  0.39453110154E+02  0.60203484793E+02  0.00000000000E+00 0. -1.
        -14    1    6    6    0    0 -0.86439401708E+02 -0.33541161978E+02  0.11779420268E+03  0.14990748447E+03  0.00000000000E+00 0.  1.
<mgrwt>
<rscale>  2 0.19678913E+03</rscale>
<asrwt>0</asrwt>
<pdfrwt beam="1">  1       21 0.75500710E-01 0.19723464E+03</pdfrwt>
<pdfrwt beam="2">  1       21 0.12202431E-01 0.19723464E+03</pdfrwt>
<totfact> 0.89037447E+04</totfact>
</mgrwt>
</event>
<event>
12    1  0.1029207E-001  0.1750557E+03  0.7546771E-02  0.1173888E+00
         21   -1    0    0  501  502  0.00000000000E+00  0.00000000000E+00  0.11087726988E+03  0.11087726988E+03  0.00000000000E+00 0.  1.
         21   -1    0    0  502  503 -0.00000000000E+00 -0.00000000000E+00 -0.58262012594E+03  0.58262012594E+03  0.00000000000E+00 0.  1.
         -6    2    1    2    0  503  0.60098262680E+01  0.20643215658E+02  0.17054602054E+02  0.17588452895E+03  0.17373038799E+03 0.  0.
        -24    2    3    3    0    0 -0.84171456606E+01 -0.40314084822E+02 -0.28867578045E+02  0.98071505455E+02  0.84193879492E+02 0.  0.
          6    2    1    2  501    0 -0.60098262680E+01 -0.20643215658E+02 -0.48879745812E+03  0.51761286687E+03  0.16893153796E+03 0.  0.
         24    2    5    5    0    0 -0.65400988908E+02  0.81475698165E+01 -0.31476178440E+03  0.33142284228E+03  0.80140172341E+02 0.  0.
          5    1    5    5  501    0  0.59391162640E+02 -0.28790785475E+02 -0.17403567373E+03  0.18619002459E+03  0.47000000000E+01 0. -1.
        -11    1    6    6    0    0 -0.16011692457E+02 -0.34074201654E+02 -0.13995783435E+03  0.14493316014E+03  0.00000000000E+00 0.  1.
         12    1    6    6    0    0 -0.49389296452E+02  0.42221771470E+02 -0.17480395005E+03  0.18648968213E+03  0.00000000000E+00 0. -1.
         -5    1    3    3    0  503  0.14426971929E+02  0.60957300480E+02  0.45922180099E+02  0.77813023498E+02  0.47000000000E+01 0.  1.
         11    1    4    4    0    0  0.18320074764E+02 -0.55550099025E+02 -0.42217483969E+01  0.58645219759E+02  0.00000000000E+00 0. -1.
        -12    1    4    4    0    0 -0.26737220424E+02  0.15236014203E+02 -0.24645829648E+02  0.39426285697E+02  0.00000000000E+00 0.  1.
<mgrwt>
<rscale>  2 0.17385302E+03</rscale>
<asrwt>0</asrwt>
<pdfrwt beam="1">  1       21 0.17058041E-01 0.17505573E+03</pdfrwt>
<pdfrwt beam="2">  1       21 0.89633867E-01 0.17505573E+03</pdfrwt>
<totfact> 0.33198648E+04</totfact>
</mgrwt>
</event>
<event>
12    1  0.1029207E-001  0.2085063E+03  0.7546771E-02  0.1142983E+00
         21   -1    0    0  501  502  0.00000000000E+00  0.00000000000E+00  0.20946470930E+03  0.20946470930E+03  0.00000000000E+00 0. -1.
         21   -1    0    0  502  503 -0.00000000000E+00 -0.00000000000E+00 -0.33379844344E+03  0.33379844344E+03  0.00000000000E+00 0. -1.
         -6    2    1    2    0  503 -0.73935589685E+02  0.89466804309E+02 -0.23007119304E+03  0.31049575229E+03  0.17321685202E+03 0.  0.
        -24    2    3    3    0    0 -0.35474643154E+02 -0.14976127119E+02 -0.14587045790E+03  0.17085541380E+03  0.80191316536E+02 0.  0.
          6    2    1    2  501    0  0.73935589685E+02 -0.89466804309E+02  0.10573745890E+03  0.23276740045E+03  0.17184141527E+03 0.  0.
         24    2    5    5    0    0  0.91210550257E+01 -0.11059575528E+03  0.53920946233E+02  0.14700961680E+03  0.79935875916E+02 0.  0.
          5    1    5    5  501    0  0.64814534659E+02  0.21128950967E+02  0.51816512667E+02  0.85757783653E+02  0.47000000000E+01 0. -1.
        -11    1    6    6    0    0 -0.22555623948E+02 -0.72913711925E+01 -0.45712872164E+01  0.24141601694E+02  0.00000000000E+00 0.  1.
         12    1    6    6    0    0  0.31676678973E+02 -0.10330438408E+03  0.58492233449E+02  0.12286801510E+03  0.00000000000E+00 0. -1.
         -5    1    3    3    0  503 -0.38460946531E+02  0.10444293143E+03 -0.84200735148E+02  0.13964033849E+03  0.47000000000E+01 0.  1.
         11    1    4    4    0    0 -0.91115778177E+01  0.30705992469E+02 -0.31570081855E+02  0.44972757222E+02  0.00000000000E+00 0. -1.
        -12    1    4    4    0    0 -0.26363065337E+02 -0.45682119588E+02 -0.11430037604E+03  0.12588265658E+03  0.00000000000E+00 0.  1.
<mgrwt>
<rscale>  2 0.20822036E+03</rscale>
<asrwt>0</asrwt>
<pdfrwt beam="1">  1       21 0.32225340E-01 0.20850625E+03</pdfrwt>
<pdfrwt beam="2">  1       21 0.51353606E-01 0.20850625E+03</pdfrwt>
<totfact> 0.33100634E+04</totfact>
</mgrwt>
</event>
<event>
12    1  0.1029207E-001  0.2398351E+03  0.7546771E-02  0.1120195E+00
         21   -1    0    0  501  502  0.00000000000E+00  0.00000000000E+00  0.11810702798E+03  0.11810702798E+03  0.00000000000E+00 0.  1.
         21   -1    0    0  502  503 -0.00000000000E+00 -0.00000000000E+00 -0.65033950784E+03  0.65033950784E+03  0.00000000000E+00 0.  1.
         -6    2    1    2    0  503 -0.14845934056E+03 -0.72398382527E+02 -0.46001196489E+03  0.51797362895E+03  0.17147586086E+03 0.  0.
        -24    2    3    3    0    0 -0.95970632692E+02 -0.59957239527E+02 -0.15092691201E+03  0.20418149010E+03  0.78140355892E+02 0.  0.
          6    2    1    2  501    0  0.14845934056E+03  0.72398382527E+02 -0.72220514979E+02  0.25047290687E+03  0.17389414223E+03 0.  0.
         24    2    5    5    0    0  0.13238537192E+03  0.88314907688E+02 -0.10788426772E+03  0.20797936029E+03  0.79315758015E+02 0.  0.
          5    1    5    5  501    0  0.16073968638E+02 -0.15916525160E+02  0.35663752740E+02  0.42493546574E+02  0.47000000000E+01 0. -1.
        -13    1    6    6    0    0  0.19234091231E+02  0.56769603549E+02 -0.29898184920E+02  0.66982382863E+02  0.00000000000E+00 0.  1.
         14    1    6    6    0    0  0.11315128069E+03  0.31545304139E+02 -0.77986082799E+02  0.14099697743E+03  0.00000000000E+00 0. -1.
         -5    1    3    3    0  503 -0.52488707863E+02 -0.12441143001E+02 -0.30908505288E+03  0.31379213885E+03  0.47000000000E+01 0.  1.
         11    1    4    4    0    0 -0.87993542930E+01 -0.48939434512E+01  0.92606712727E+01  0.13679888556E+02  0.00000000000E+00 0. -1.
        -12    1    4    4    0    0 -0.87171278399E+02 -0.55063296076E+02 -0.16018758328E+03  0.19050160154E+03  0.00000000000E+00 0.  1.
<mgrwt>
<rscale>  2 0.23939701E+03</rscale>
<asrwt>0</asrwt>
<pdfrwt beam="1">  1       21 0.18170312E-01 0.23983510E+03</pdfrwt>
<pdfrwt beam="2">  1       21 0.10005223E+00 0.23983510E+03</pdfrwt>
<totfact> 0.22026699E+04</totfact>
</mgrwt>
</event>
<event>
12    1  0.1029207E-001  0.1971076E+03  0.7546771E-02  0.1152498E+00
         21   -1    0    0  503  502  0.00000000000E+00  0.00000000000E+00  0.55016144526E+03  0.55016144526E+03  0.00000000000E+00 0.  1.
         21   -1    0    0  501  503 -0.00000000000E+00 -0.00000000000E+00 -0.48348366709E+03  0.48348366709E+03  0.00000000000E+00 0.  1.
          6    2    1    2  501    0 -0.65058067385E+02 -0.64891089916E+02 -0.44455020655E+03  0.48573503364E+03  0.17283006415E+03 0.  0.
         24    2    3    3    0    0 -0.70426031265E+02  0.20679825860E+02 -0.22258492736E+03  0.24773950462E+03  0.80270363067E+02 0.  0.
         -6    2    1    2    0  502  0.65058067385E+02  0.64891089916E+02  0.51122798472E+03  0.54791007872E+03  0.17437888724E+03 0.  0.
        -24    2    5    5    0    0  0.42485451845E+02  0.16067641798E+02  0.11579710543E+03  0.14880993796E+03  0.81683812821E+02 0.  0.
          5    1    3    3  501    0  0.53679638806E+01 -0.85570915777E+02 -0.22196527919E+03  0.23799552901E+03  0.47000000000E+01 0. -1.
        -11    1    4    4    0    0  0.25196491880E+01 -0.18570691459E+02 -0.85839415463E+02  0.87861393458E+02  0.00000000000E+00 0.  1.
         12    1    4    4    0    0 -0.72945680453E+02  0.39250517320E+02 -0.13674551190E+03  0.15987811117E+03  0.00000000000E+00 0. -1.
         -5    1    5    5    0  502  0.22572615539E+02  0.48823448119E+02  0.39543087929E+03  0.39910014076E+03  0.47000000000E+01 0.  1.
         13    1    6    6    0    0  0.16318907486E+02  0.43985054923E+02  0.93279005736E+02  0.10441247392E+03  0.00000000000E+00 0. -1.
        -14    1    6    6    0    0  0.26166544359E+02 -0.27917413126E+02  0.22518099693E+02  0.44397464040E+02  0.00000000000E+00 0.  1.
<mgrwt>
<rscale>  2 0.19676447E+03</rscale>
<asrwt>0</asrwt>
<pdfrwt beam="1">  1       21 0.84640223E-01 0.19710759E+03</pdfrwt>
<pdfrwt beam="2">  1       21 0.74382102E-01 0.19710759E+03</pdfrwt>
<totfact> 0.19516379E+03</totfact>
</mgrwt>
</event>
<event>
12    1  0.1029207E-001  0.2065201E+03  0.7546771E-02  0.1144394E+00
         21   -1    0    0  503  502  0.00000000000E+00  0.00000000000E+00  0.28705703809E+03  0.28705703809E+03  0.00000000000E+00 0.  1.
         21   -1    0    0  501  503 -0.00000000000E+00 -0.00000000000E+00 -0.16278596569E+03  0.16278596569E+03  0.00000000000E+00 0.  1.
          6    2    1    2  501    0  0.11080545418E+03  0.20111021738E+02 -0.46318474935E+01  0.20657208036E+03  0.17311345558E+03 0.  0.
         24    2    3    3    0    0  0.14723037184E+03  0.28625484928E+02  0.61991814779E+01  0.16734617185E+03  0.73960196070E+02 0.  0.
         -6    2    1    2    0  502 -0.11080545418E+03 -0.20111021738E+02  0.12890291989E+03  0.24327092342E+03  0.17286548977E+03 0.  0.
        -24    2    5    5    0    0 -0.74952208658E+02 -0.17182744232E+02  0.21984217802E+01  0.11147505905E+03  0.80676982156E+02 0.  0.
          5    1    3    3  501    0 -0.36424917659E+02 -0.85144631903E+01 -0.10831028971E+02  0.39225908510E+02  0.47000000000E+01 0. -1.
        -11    1    4    4    0    0  0.16290642533E+02 -0.15212745754E+01 -0.24554488535E+02  0.29506308100E+02  0.00000000000E+00 0.  1.
         12    1    4    4    0    0  0.13093972931E+03  0.30146759504E+02  0.30753670013E+02  0.13783986375E+03  0.00000000000E+00 0. -1.
         -5    1    5    5    0  502 -0.35853245524E+02 -0.29282775059E+01  0.12670449811E+03  0.13179586437E+03  0.47000000000E+01 0.  1.
         11    1    6    6    0    0 -0.62560948158E+02  0.24847675858E+02 -0.27933403690E+01  0.67372709463E+02  0.00000000000E+00 0. -1.
        -12    1    6    6    0    0 -0.12391260501E+02 -0.42030420091E+02  0.49917621492E+01  0.44102349588E+02  0.00000000000E+00 0.  1.
<mgrwt>
<rscale>  2 0.20646817E+03</rscale>
<asrwt>0</asrwt>
<pdfrwt beam="1">  1       21 0.44162621E-01 0.20652015E+03</pdfrwt>
<pdfrwt beam="2">  1       21 0.25043995E-01 0.20652015E+03</pdfrwt>
<totfact> 0.73893158E+04</totfact>
</mgrwt>
</event>
<event>
12    1  0.1029207E-001  0.1785227E+03  0.7546771E-02  0.1169560E+00
         21   -1    0    0  503  502  0.00000000000E+00  0.00000000000E+00  0.14595249681E+03  0.14595249681E+03  0.00000000000E+00 0. -1.
         21   -1    0    0  501  503 -0.00000000000E+00 -0.00000000000E+00 -0.25793050220E+03  0.25793050220E+03  0.00000000000E+00 0. -1.
          6    2    1    2  501    0  0.17156681499E+01  0.46081680466E+02 -0.13683061499E+03  0.22492879980E+03  0.17246414987E+03 0.  0.
         24    2    3    3    0    0  0.28000770690E+02 -0.15457449429E+02 -0.17829760856E+02  0.88322561260E+02  0.80374116190E+02 0.  0.
         -6    2    1    2    0  502 -0.17156681499E+01 -0.46081680466E+02  0.24852609597E+02  0.17895419920E+03  0.17111542425E+03 0.  0.
        -24    2    5    5    0    0  0.12419342953E+02 -0.95477307533E+02  0.96554630182E+01  0.12516972397E+03  0.79398208412E+02 0.  0.
          5    1    3    3  501    0 -0.26285102540E+02  0.61539129895E+02 -0.11900085413E+03  0.13660623854E+03  0.47000000000E+01 0. -1.
        -13    1    4    4    0    0 -0.15179185729E+02 -0.25846001197E+02 -0.29861119896E+02  0.42309690837E+02  0.00000000000E+00 0.  1.
         14    1    4    4    0    0  0.43179956419E+02  0.10388551768E+02  0.12031359041E+02  0.46012870423E+02  0.00000000000E+00 0. -1.
         -5    1    5    5    0  502 -0.14135011103E+02  0.49395627067E+02  0.15197146579E+02  0.53784475236E+02  0.47000000000E+01 0.  1.
         13    1    6    6    0    0 -0.30828954576E+02 -0.62679715716E+02 -0.98802398772E+00  0.69858051747E+02  0.00000000000E+00 0. -1.
        -14    1    6    6    0    0  0.43248297530E+02 -0.32797591817E+02  0.10643487006E+02  0.55311672221E+02  0.00000000000E+00 0.  1.
<mgrwt>
<rscale>  2 0.17819613E+03</rscale>
<asrwt>0</asrwt>
<pdfrwt beam="1">  1       21 0.22454230E-01 0.17852268E+03</pdfrwt>
<pdfrwt beam="2">  1       21 0.39681616E-01 0.17852268E+03</pdfrwt>
<totfact> 0.11427355E+05</totfact>
</mgrwt>
</event>
<event>
12    1  0.1029207E-001  0.2104150E+03  0.7546771E-02  0.1141324E+00
         21   -1    0    0  501  502  0.00000000000E+00  0.00000000000E+00  0.19345118824E+03  0.19345118824E+03  0.00000000000E+00 0.  1.
         21   -1    0    0  502  503 -0.00000000000E+00 -0.00000000000E+00 -0.36440380270E+03  0.36440380270E+03  0.00000000000E+00 0.  1.
         -6    2    1    2    0  503 -0.11856929532E+03 -0.11940826210E+02  0.84984396306E+02  0.22652700956E+03  0.17288978374E+03 0.  0.
        -24    2    3    3    0    0 -0.52862690284E+02  0.57526963038E+02  0.30605821401E+02  0.11642591467E+03  0.80712215940E+02 0.  0.
          6    2    1    2  501    0  0.11856929532E+03  0.11940826210E+02 -0.25593701077E+03  0.33132798138E+03  0.17341631020E+03 0.  0.
         24    2    5    5    0    0  0.57269969683E+02  0.25251085112E+02 -0.24780823990E+03  0.26790135265E+03  0.80279164573E+02 0.  0.
          5    1    5    5  501    0  0.61299325638E+02 -0.13310258903E+02 -0.81287708651E+01  0.63426628726E+02  0.47000000000E+01 0. -1.
        -13    1    6    6    0    0  0.15824140226E+02  0.40622023748E+02 -0.19104684564E+03  0.19595777467E+03  0.00000000000E+00 0.  1.
         14    1    6    6    0    0  0.41445829458E+02 -0.15370938635E+02 -0.56761394265E+02  0.71943577983E+02  0.00000000000E+00 0. -1.
         -5    1    3    3    0  503 -0.65706605037E+02 -0.69467789248E+02  0.54378574905E+02  0.11010109490E+03  0.47000000000E+01 0.  1.
         11    1    4    4    0    0 -0.37656447528E+02 -0.35287576456E+00 -0.15658707471E+02  0.40783914493E+02  0.00000000000E+00 0. -1.
        -12    1    4    4    0    0 -0.15206242756E+02  0.57879838803E+02  0.46264528872E+02  0.75642000174E+02  0.00000000000E+00 0.  1.
<mgrwt>
<rscale>  2 0.21030650E+03</rscale>
<asrwt>0</asrwt>
<pdfrwt beam="1">  1       21 0.29761721E-01 0.21041501E+03</pdfrwt>
<pdfrwt beam="2">  1       21 0.56062123E-01 0.21041501E+03</pdfrwt>
<totfact> 0.32110125E+04</totfact>
</mgrwt>
</event>
<event>
12    1  0.1029207E-001  0.3243221E+03  0.7546771E-02  0.1073720E+00
         21   -1    0    0  503  502  0.00000000000E+00  0.00000000000E+00  0.29959175171E+03  0.29959175171E+03  0.00000000000E+00 0. -1.
         21   -1    0    0  501  503 -0.00000000000E+00 -0.00000000000E+00 -0.43157301748E+03  0.43157301748E+03  0.00000000000E+00 0.  1.
          6    2    1    2  501    0  0.24850943199E+03 -0.11607792418E+03 -0.22429268463E+03  0.39432480119E+03  0.17307171400E+03 0.  0.
         24    2    3    3    0    0  0.40766658998E+02 -0.18669364921E+02 -0.87376393689E+02  0.12709148016E+03  0.80666873510E+02 0.  0.
         -6    2    1    2    0  502 -0.24850943199E+03  0.11607792418E+03  0.92311418859E+02  0.33683996800E+03  0.17236224563E+03 0.  0.
        -24    2    5    5    0    0 -0.87256414888E+02  0.19382272776E+02  0.89104748324E+02  0.14873107065E+03  0.78688758833E+02 0.  0.
          5    1    3    3  501    0  0.20774277299E+03 -0.97408559261E+02 -0.13691629094E+03  0.26723332104E+03  0.47000000000E+01 0. -1.
        -11    1    4    4    0    0  0.31566408372E+02 -0.45218109620E+02 -0.29003656938E+02  0.62308327621E+02  0.00000000000E+00 0.  1.
         12    1    4    4    0    0  0.92002506263E+01  0.26548744699E+02 -0.58372736751E+02  0.64783152536E+02  0.00000000000E+00 0. -1.
         -5    1    5    5    0  502 -0.16125301710E+03  0.96695651406E+02  0.32066705347E+01  0.18810889734E+03  0.47000000000E+01 0.  1.
         11    1    6    6    0    0  0.13403804201E+02 -0.68642580876E+01  0.11183012356E+02  0.18757392449E+02  0.00000000000E+00 0. -1.
        -12    1    6    6    0    0 -0.10066021909E+03  0.26246530864E+02  0.77921735968E+02  0.12997367820E+03  0.00000000000E+00 0.  1.
<mgrwt>
<rscale>  2 0.32422757E+03</rscale>
<asrwt>0</asrwt>
<pdfrwt beam="1">  1       21 0.46091039E-01 0.32432212E+03</pdfrwt>
<pdfrwt beam="2">  1       21 0.66395848E-01 0.32432212E+03</pdfrwt>
<totfact> 0.87290414E+03</totfact>
</mgrwt>
</event>
<event>
12    1  0.1029207E-001  0.1874204E+03  0.7546771E-02  0.1163929E+00
         21   -1    0    0  503  502  0.00000000000E+00  0.00000000000E+00  0.16834318036E+02  0.16834318036E+02  0.00000000000E+00 0. -1.
         21   -1    0    0  501  503 -0.00000000000E+00 -0.00000000000E+00 -0.19741268910E+04  0.19741268910E+04  0.00000000000E+00 0. -1.
          6    2    1    2  501    0 -0.43343889587E+02 -0.58148040574E+02 -0.11373018370E+04  0.11526412677E+04  0.17281937442E+03 0.  0.
         24    2    3    3    0    0 -0.83854261540E+02 -0.58632557109E+02 -0.10189719167E+04  0.10274798318E+04  0.83317008169E+02 0.  0.
         -6    2    1    2    0  502  0.43343889587E+02  0.58148040574E+02 -0.81999073595E+03  0.83831994132E+03  0.15854220127E+03 0.  0.
        -24    2    5    5    0    0  0.68447586710E+02  0.37422217324E+02 -0.77265348001E+03  0.78067741224E+03  0.79864430995E+02 0.  0.
          5    1    3    3  501    0  0.40510371952E+02  0.48451653500E+00 -0.11832992026E+03  0.12516143584E+03  0.47000000000E+01 0. -1.
        -13    1    4    4    0    0  0.79514187398E+01  0.54905736371E+01 -0.19589443440E+02  0.21843025274E+02  0.00000000000E+00 0.  1.
         14    1    4    4    0    0 -0.91805680280E+02 -0.64123130747E+02 -0.99938247328E+03  0.10056368066E+04  0.00000000000E+00 0. -1.
         -5    1    5    5    0  502 -0.25103697122E+02  0.20725823250E+02 -0.47337255940E+02  0.57642529078E+02  0.47000000000E+01 0.  1.
         13    1    6    6    0    0  0.73845939970E+02  0.31355029888E+02 -0.40159661687E+03  0.40953168795E+03  0.00000000000E+00 0. -1.
        -14    1    6    6    0    0 -0.53983532604E+01  0.60671874362E+01 -0.37105686314E+03  0.37114572429E+03  0.00000000000E+00 0.  1.
<mgrwt>
<rscale>  2 0.18406191E+03</rscale>
<asrwt>0</asrwt>
<pdfrwt beam="1">  1       21 0.25898977E-02 0.18742045E+03</pdfrwt>
<pdfrwt beam="2">  1       21 0.30371152E+00 0.18742045E+03</pdfrwt>
<totfact> 0.26341063E+04</totfact>
</mgrwt>
</event>
<event>
12    1  0.1029207E-001  0.1972436E+03  0.7546771E-02  0.1154045E+00
         21   -1    0    0  503  502  0.00000000000E+00  0.00000000000E+00  0.55613128353E+03  0.55613128353E+03  0.00000000000E+00 0. -1.
         21   -1    0    0  501  503 -0.00000000000E+00 -0.00000000000E+00 -0.13802869160E+03  0.13802869160E+03  0.00000000000E+00 0.  1.
          6    2    1    2  501    0  0.95577840010E+02 -0.15271853631E+02 -0.37846998499E+02  0.20084182613E+03  0.17186241826E+03 0.  0.
         24    2    3    3    0    0  0.70473556477E+02  0.34070269383E+02  0.25915273222E+02  0.11626885497E+03  0.81972799337E+02 0.  0.
         -6    2    1    2    0  502 -0.95577840010E+02  0.15271853631E+02  0.45594959044E+03  0.49331814900E+03  0.16156860494E+03 0.  0.
        -24    2    5    5    0    0 -0.69088667152E+02  0.38391789754E+02  0.44042225918E+03  0.45459611728E+03  0.80241448230E+02 0.  0.
          5    1    3    3  501    0  0.25104283533E+02 -0.49342123014E+02 -0.63762271721E+02  0.84572971157E+02  0.47000000000E+01 0. -1.
        -11    1    4    4    0    0 -0.17749097688E+02 -0.12635158817E+01  0.82168786280E+01  0.19599592738E+02  0.00000000000E+00 0.  1.
         12    1    4    4    0    0  0.88222654164E+02  0.35333785265E+02  0.17698394594E+02  0.96669262230E+02  0.00000000000E+00 0. -1.
         -5    1    5    5    0  502 -0.26489172858E+02 -0.23119936123E+02  0.15527331261E+02  0.38722031728E+02  0.47000000000E+01 0.  1.
         13    1    6    6    0    0 -0.15991592203E+02 -0.19659264408E+02  0.20072669508E+03  0.20232010235E+03  0.00000000000E+00 0. -1.
        -14    1    6    6    0    0 -0.53097074949E+02  0.58051054163E+02  0.23969556410E+03  0.25227601492E+03  0.00000000000E+00 0.  1.
<mgrwt>
<rscale>  2 0.19497957E+03</rscale>
<asrwt>0</asrwt>
<pdfrwt beam="1">  1       21 0.85558658E-01 0.19724362E+03</pdfrwt>
<pdfrwt beam="2">  1       21 0.21235184E-01 0.19724362E+03</pdfrwt>
<totfact> 0.24288925E+04</totfact>
</mgrwt>
</event>
<event>
12    1  0.1029207E-001  0.2368883E+03  0.7546771E-02  0.1121976E+00
         21   -1    0    0  501  502  0.00000000000E+00  0.00000000000E+00  0.88630434528E+03  0.88630434528E+03  0.00000000000E+00 0.  1.
         21   -1    0    0  502  503 -0.00000000000E+00 -0.00000000000E+00 -0.75537954094E+02  0.75537954094E+02  0.00000000000E+00 0. -1.
         -6    2    1    2    0  503 -0.11512897833E+03  0.11412774119E+03  0.21037885534E+03  0.31641125086E+03  0.17197963234E+03 0.  0.
        -24    2    3    3    0    0 -0.50816683525E+02  0.52414215481E+02  0.19869035023E+03  0.22639268795E+03  0.80288284154E+02 0.  0.
          6    2    1    2  501    0  0.11512897833E+03 -0.11412774119E+03  0.60038753584E+03  0.64543104851E+03  0.17273164801E+03 0.  0.
         24    2    5    5    0    0  0.83014926813E+02 -0.63446306183E+02  0.55351127973E+03  0.56914609884E+03  0.81459395988E+02 0.  0.
          5    1    5    5  501    0  0.32114051512E+02 -0.50681435007E+02  0.46876256118E+02  0.76284949673E+02  0.47000000000E+01 0. -1.
        -13    1    6    6    0    0  0.29169985935E+02 -0.70237555487E+02  0.37200252827E+03  0.37969735754E+03  0.00000000000E+00 0.  1.
         14    1    6    6    0    0  0.53844940878E+02  0.67912493047E+01  0.18150875145E+03  0.18944874130E+03  0.00000000000E+00 0. -1.
         -5    1    3    3    0  503 -0.64312294800E+02  0.61713525709E+02  0.11688505110E+02  0.90018562917E+02  0.47000000000E+01 0.  1.
         11    1    4    4    0    0 -0.28275066255E+02  0.35192747435E+02  0.27484591989E+02  0.52852735413E+02  0.00000000000E+00 0. -1.
        -12    1    4    4    0    0 -0.22541617270E+02  0.17221468046E+02  0.17120575824E+03  0.17353995253E+03  0.00000000000E+00 0.  1.
<mgrwt>
<rscale>  2 0.23675119E+03</rscale>
<asrwt>0</asrwt>
<pdfrwt beam="1">  1       21 0.13635451E+00 0.23688825E+03</pdfrwt>
<pdfrwt beam="2">  1       21 0.11621224E-01 0.23688825E+03</pdfrwt>
<totfact> 0.23178314E+04</totfact>
</mgrwt>
</event>
<event>
12    1  0.1029207E-001  0.1726473E+03  0.7546771E-02  0.1175320E+00
         21   -1    0    0  503  502  0.00000000000E+00  0.00000000000E+00  0.46253956828E+03  0.46253956828E+03  0.00000000000E+00 0. -1.
         21   -1    0    0  501  503 -0.00000000000E+00 -0.00000000000E+00 -0.68255020777E+02  0.68255020777E+02  0.00000000000E+00 0. -1.
          6    2    1    2  501    0 -0.34511091409E+01  0.53726775989E+01  0.26184938779E+03  0.31320286844E+03  0.17172699000E+03 0.  0.
         24    2    3    3    0    0 -0.45123202933E+02  0.57174372273E+02  0.16741732950E+03  0.19761964040E+03  0.75630336284E+02 0.  0.
         -6    2    1    2    0  502  0.34511091409E+01 -0.53726775989E+01  0.13243515972E+03  0.21759172062E+03  0.17252915560E+03 0.  0.
        -24    2    5    5    0    0 -0.32930300679E+02 -0.35079111475E+02  0.14146068123E+03  0.16953311855E+03  0.80096224550E+02 0.  0.
          5    1    3    3  501    0  0.41672093793E+02 -0.51801694674E+02  0.94432058294E+02  0.11558322805E+03  0.47000000000E+01 0. -1.
        -13    1    4    4    0    0 -0.45109450058E+01 -0.16828442854E+02  0.50444180042E+02  0.53368159175E+02  0.00000000000E+00 0.  1.
         14    1    4    4    0    0 -0.40612257928E+02  0.74002815127E+02  0.11697314946E+03  0.14425148122E+03  0.00000000000E+00 0. -1.
         -5    1    5    5    0  502  0.36381409820E+02  0.29706433876E+02 -0.90255215122E+01  0.48058602067E+02  0.47000000000E+01 0.  1.
         13    1    6    6    0    0 -0.56270140560E+02 -0.39195708386E+02  0.11596069014E+03  0.13472013187E+03  0.00000000000E+00 0. -1.
        -14    1    6    6    0    0  0.23339839881E+02  0.41165969111E+01  0.25499991089E+02  0.34812986676E+02  0.00000000000E+00 0.  1.
<mgrwt>
<rscale>  2 0.17244653E+03</rscale>
<asrwt>0</asrwt>
<pdfrwt beam="1">  1       21 0.71159932E-01 0.17264729E+03</pdfrwt>
<pdfrwt beam="2">  1       21 0.10500773E-01 0.17264729E+03</pdfrwt>
<totfact> 0.13393657E+05</totfact>
</mgrwt>
</event>
<event>
12    1  0.1029207E-001  0.2047403E+03  0.7546771E-02  0.1148556E+00
         21   -1    0    0  503  502  0.00000000000E+00  0.00000000000E+00  0.19263409521E+03  0.19263409521E+03  0.00000000000E+00 0.  1.
         21   -1    0    0  501  503 -0.00000000000E+00 -0.00000000000E+00 -0.21423348619E+03  0.21423348619E+03  0.00000000000E+00 0.  1.
          6    2    1    2  501    0  0.10574377371E+03 -0.21354582528E+02 -0.55567241601E+02  0.21214691982E+03  0.17401388846E+03 0.  0.
         24    2    3    3    0    0  0.48479562469E+02 -0.78654682961E+02 -0.28395497238E+02  0.12657306231E+03  0.81716636673E+02 0.  0.
         -6    2    1    2    0  502 -0.10574377371E+03  0.21354582528E+02  0.33967850618E+02  0.19472066158E+03  0.15850727837E+03 0.  0.
        -24    2    5    5    0    0 -0.87617875635E+02 -0.38261869225E+02  0.22470539599E+01  0.12464235936E+03  0.79936260410E+02 0.  0.
          5    1    3    3  501    0  0.57264211244E+02  0.57300100433E+02 -0.27171744363E+02  0.85573857519E+02  0.47000000000E+01 0. -1.
        -13    1    4    4    0    0  0.70900156756E+02 -0.68645822746E+02 -0.20618914880E+02  0.10081776063E+03  0.00000000000E+00 0.  1.
         14    1    4    4    0    0 -0.22420594287E+02 -0.10008860215E+02 -0.77765823583E+01  0.25755301671E+02  0.00000000000E+00 0. -1.
         -5    1    5    5    0  502 -0.18125898078E+02  0.59616451753E+02  0.31720796658E+02  0.70078302215E+02  0.47000000000E+01 0.  1.
         13    1    6    6    0    0 -0.26489819012E+02  0.15714808166E+02  0.25343071200E+02  0.39886551177E+02  0.00000000000E+00 0. -1.
        -14    1    6    6    0    0 -0.61128056624E+02 -0.53976677391E+02 -0.23096017240E+02  0.84755808185E+02  0.00000000000E+00 0.  1.
<mgrwt>
<rscale>  2 0.20140855E+03</rscale>
<asrwt>0</asrwt>
<pdfrwt beam="1">  1       21 0.29636015E-01 0.20474032E+03</pdfrwt>
<pdfrwt beam="2">  1       21 0.32958998E-01 0.20474032E+03</pdfrwt>
<totfact> 0.96236151E+04</totfact>
</mgrwt>
</event>
<event>
12    1  0.1029207E-001  0.2051824E+03  0.7546771E-02  0.1146028E+00
         21   -1    0    0  501  502  0.00000000000E+00  0.00000000000E+00  0.19768943462E+03  0.19768943462E+03  0.00000000000E+00 0.  1.
         21   -1    0    0  502  503 -0.00000000000E+00 -0.00000000000E+00 -0.24309706890E+03  0.24309706890E+03  0.00000000000E+00 0. -1.
         -6    2    1    2    0  503  0.10418852689E+03  0.16801030352E+02 -0.10389173042E+03  0.22743188815E+03  0.17261010499E+03 0.  0.
        -24    2    3    3    0    0  0.95618872878E+02  0.29941566803E+02 -0.13858428262E+03  0.18906815728E+03  0.80633110037E+02 0.  0.
          6    2    1    2  501    0 -0.10418852689E+03 -0.16801030352E+02  0.58484096139E+02  0.21335461538E+03  0.17596101456E+03 0.  0.
         24    2    5    5    0    0 -0.80892626786E+02  0.20712542276E+02 -0.26072870743E+02  0.11784577944E+03  0.78963324830E+02 0.  0.
          5    1    5    5  501    0 -0.23295900100E+02 -0.37513572628E+02  0.84556966882E+02  0.95508835932E+02  0.47000000000E+01 0. -1.
        -11    1    6    6    0    0 -0.96210506288E+02  0.11340548480E+02 -0.20274668096E+02  0.98975409705E+02  0.00000000000E+00 0.  1.
         12    1    6    6    0    0  0.15317879502E+02  0.93719937957E+01 -0.57982026479E+01  0.18870369739E+02  0.00000000000E+00 0. -1.
         -5    1    3    3    0  503  0.85696540068E+01 -0.13140536451E+02  0.34692552204E+02  0.38363730872E+02  0.47000000000E+01 0.  1.
         13    1    4    4    0    0  0.44430265840E+01  0.28506886761E+02 -0.67632641279E+02  0.73529295144E+02  0.00000000000E+00 0. -1.
        -14    1    4    4    0    0  0.91175846294E+02  0.14346800422E+01 -0.70951641343E+02  0.11553886214E+03  0.00000000000E+00 0.  1.
<mgrwt>
<rscale>  2 0.20446199E+03</rscale>
<asrwt>0</asrwt>
<pdfrwt beam="1">  1       21 0.30413759E-01 0.20518236E+03</pdfrwt>
<pdfrwt beam="2">  1       21 0.37399549E-01 0.20518236E+03</pdfrwt>
<totfact> 0.71142739E+04</totfact>
</mgrwt>
</event>
<event>
12    1  0.1029207E-001  0.2111621E+03  0.7546771E-02  0.1140746E+00
         21   -1    0    0  503  502  0.00000000000E+00  0.00000000000E+00  0.90626793451E+03  0.90626793451E+03  0.00000000000E+00 0.  1.
         21   -1    0    0  501  503 -0.00000000000E+00 -0.00000000000E+00 -0.74757861049E+02  0.74757861049E+02  0.00000000000E+00 0. -1.
          6    2    1    2  501    0  0.26962572199E+02 -0.11705176436E+03  0.12799923869E+03  0.24650763302E+03  0.17307256338E+03 0.  0.
         24    2    3    3    0    0  0.80750765111E+02 -0.10323170962E+03  0.10070105332E+03  0.18444762550E+03  0.81870339399E+02 0.  0.
         -6    2    1    2    0  502 -0.26962572199E+02  0.11705176436E+03  0.70351083477E+03  0.73451816254E+03  0.17367020648E+03 0.  0.
        -24    2    5    5    0    0  0.36775367641E+02  0.11821447565E+03  0.52518373466E+03  0.54508078105E+03  0.77252914483E+02 0.  0.
          5    1    3    3  501    0 -0.53788192912E+02 -0.13820054735E+02  0.27298185374E+02  0.62060007527E+02  0.47000000000E+01 0. -1.
        -11    1    4    4    0    0  0.41270913923E+02 -0.11498913611E+01  0.46916875109E+02  0.62496429948E+02  0.00000000000E+00 0.  1.
         12    1    4    4    0    0  0.39479851188E+02 -0.10208181826E+03  0.53784178210E+02  0.12195119555E+03  0.00000000000E+00 0. -1.
         -5    1    5    5    0  502 -0.63737939840E+02 -0.11627112902E+01  0.17832710011E+03  0.18943738149E+03  0.47000000000E+01 0.  1.
         13    1    6    6    0    0  0.38425176883E+02  0.31601925162E+02  0.10675394472E+03  0.11777767448E+03  0.00000000000E+00 0. -1.
        -14    1    6    6    0    0 -0.16498092417E+01  0.86612550489E+02  0.41842978994E+03  0.42730310657E+03  0.00000000000E+00 0.  1.
<mgrwt>
<rscale>  2 0.21103919E+03</rscale>
<asrwt>0</asrwt>
<pdfrwt beam="1">  1       21 0.13942583E+00 0.21116211E+03</pdfrwt>
<pdfrwt beam="2">  1       21 0.11501210E-01 0.21116211E+03</pdfrwt>
<totfact> 0.22626136E+04</totfact>
</mgrwt>
</event>
<event>
12    1  0.1029207E-001  0.1806066E+03  0.7546771E-02  0.1167219E+00
         21   -1    0    0  503  502  0.00000000000E+00  0.00000000000E+00  0.88252008210E+03  0.88252008210E+03  0.00000000000E+00 0. -1.
         21   -1    0    0  501  503 -0.00000000000E+00 -0.00000000000E+00 -0.38497588454E+02  0.38497588454E+02  0.00000000000E+00 0. -1.
          6    2    1    2  501    0 -0.40399118201E+02 -0.32688299664E+02  0.32996977190E+03  0.37616327299E+03  0.17296862113E+03 0.  0.
         24    2    3    3    0    0 -0.32367609280E+02  0.41794887014E+02  0.12378405765E+03  0.15673927933E+03  0.80313349116E+02 0.  0.
         -6    2    1    2    0  502  0.40399118201E+02  0.32688299664E+02  0.51405272174E+03  0.54485439756E+03  0.17296097861E+03 0.  0.
        -24    2    5    5    0    0  0.31808602500E+02 -0.67818575373E+01  0.11780266198E+03  0.14652301525E+03  0.80831590629E+02 0.  0.
          5    1    3    3  501    0 -0.80315089208E+01 -0.74483186678E+02  0.20618571425E+03  0.21942399366E+03  0.47000000000E+01 0. -1.
        -11    1    4    4    0    0 -0.26344734973E+02  0.48541807683E+02  0.13288701297E+03  0.14390729784E+03  0.00000000000E+00 0.  1.
         12    1    4    4    0    0 -0.60228743065E+01 -0.67469206690E+01 -0.91029553239E+01  0.12831981494E+02  0.00000000000E+00 0. -1.
         -5    1    5    5    0  502  0.85905157001E+01  0.39470157201E+02  0.39625005976E+03  0.39833138231E+03  0.47000000000E+01 0.  1.
         11    1    6    6    0    0  0.10013244992E+02  0.24071577224E+02  0.10250371791E+03  0.10576728271E+03  0.00000000000E+00 0. -1.
        -12    1    6    6    0    0  0.21795357508E+02 -0.30853434762E+02  0.15298944067E+02  0.40755732542E+02  0.00000000000E+00 0.  1.
<mgrwt>
<rscale>  2 0.18060481E+03</rscale>
<asrwt>0</asrwt>
<pdfrwt beam="1">  1       21 0.13577231E+00 0.18060664E+03</pdfrwt>
<pdfrwt beam="2">  1       21 0.59227066E-02 0.18060664E+03</pdfrwt>
<totfact> 0.78510736E+04</totfact>
</mgrwt>
</event>
<event>
12    1  0.1029207E-001  0.2185858E+03  0.7546771E-02  0.1135151E+00
         21   -1    0    0  503  502  0.00000000000E+00  0.00000000000E+00  0.98227706381E+02  0.98227706381E+02  0.00000000000E+00 0. -1.
         21   -1    0    0  501  503 -0.00000000000E+00 -0.00000000000E+00 -0.54702828205E+03  0.54702828205E+03  0.00000000000E+00 0.  1.
          6    2    1    2  501    0  0.11552757360E+03  0.49429256364E+02 -0.33344616491E+03  0.39809938483E+03  0.17750184129E+03 0.  0.
         24    2    3    3    0    0  0.39403142502E+02  0.82708410939E+02 -0.25887498377E+03  0.28636137788E+03  0.81199092632E+02 0.  0.
         -6    2    1    2    0  502 -0.11552757360E+03 -0.49429256364E+02 -0.11535441076E+03  0.24715660360E+03  0.17885713566E+03 0.  0.
        -24    2    5    5    0    0 -0.32276942933E+02 -0.84739943106E+02 -0.32304940965E+02  0.12428750033E+03  0.78620064399E+02 0.  0.
          5    1    3    3  501    0  0.76124431098E+02 -0.33279154575E+02 -0.74571181147E+02  0.11173800695E+03  0.47000000000E+01 0. -1.
        -13    1    4    4    0    0  0.62097154093E+02  0.69857474983E+02 -0.22475868695E+03  0.24341855048E+03  0.00000000000E+00 0.  1.
         14    1    4    4    0    0 -0.22694011591E+02  0.12850935956E+02 -0.34116296812E+02  0.42942827401E+02  0.00000000000E+00 0. -1.
         -5    1    5    5    0  502 -0.83250630667E+02  0.35310686741E+02 -0.83049469793E+02  0.12286910327E+03  0.47000000000E+01 0.  1.
         11    1    6    6    0    0 -0.27860462623E+02 -0.58271195674E+01  0.15002307124E+02  0.32174989030E+02  0.00000000000E+00 0. -1.
        -12    1    6    6    0    0 -0.44164803098E+01 -0.78912823538E+02 -0.47307248089E+02  0.92112511305E+02  0.00000000000E+00 0.  1.
<mgrwt>
<rscale>  2 0.21830837E+03</rscale>
<asrwt>0</asrwt>
<pdfrwt beam="1">  1       21 0.15111955E-01 0.21858579E+03</pdfrwt>
<pdfrwt beam="2">  1       21 0.84158198E-01 0.21858579E+03</pdfrwt>
<totfact> 0.46833206E+04</totfact>
</mgrwt>
</event>
<event>
12    1  0.1029207E-001  0.1893778E+03  0.7546771E-02  0.1160979E+00
         21   -1    0    0  501  502  0.00000000000E+00  0.00000000000E+00  0.47231505023E+03  0.47231505023E+03  0.00000000000E+00 0. -1.
         21   -1    0    0  502  503 -0.00000000000E+00 -0.00000000000E+00 -0.72828129991E+02  0.72828129991E+02  0.00000000000E+00 0. -1.
         -6    2    1    2    0  503  0.68885763897E+01 -0.49966688967E+02  0.18872121831E+03  0.26735674827E+03  0.18253714721E+03 0.  0.
        -24    2    3    3    0    0  0.82806462438E+01  0.39687757458E+02  0.13681380848E+03  0.16364403536E+03  0.80110329704E+02 0.  0.
          6    2    1    2  501    0 -0.68885763897E+01  0.49966688967E+02  0.21076570193E+03  0.27778643196E+03  0.17377858953E+03 0.  0.
         24    2    5    5    0    0  0.29913855388E+02 -0.14497903246E+02  0.23528922972E+02  0.76317317626E+02  0.64542194034E+02 0.  0.
          5    1    5    5  501    0 -0.36802431778E+02  0.64464592214E+02  0.18723677896E+03  0.20146911433E+03  0.47000000000E+01 0. -1.
        -11    1    6    6    0    0  0.27512362936E+02 -0.36272694904E+01  0.44575498809E+02  0.52507735548E+02  0.00000000000E+00 0.  1.
         12    1    6    6    0    0  0.24014924527E+01 -0.10870633756E+02 -0.21046575838E+02  0.23809582079E+02  0.00000000000E+00 0. -1.
         -5    1    3    3    0  503 -0.13920698541E+01 -0.89654446426E+02  0.51907409832E+02  0.10371271290E+03  0.47000000000E+01 0.  1.
         13    1    4    4    0    0 -0.26994737017E+01  0.32149265163E+00 -0.10458586017E+02  0.10806134242E+02  0.00000000000E+00 0. -1.
        -14    1    4    4    0    0  0.10980119946E+02  0.39366264807E+02  0.14727239449E+03  0.15283790112E+03  0.00000000000E+00 0.  1.
<mgrwt>
<rscale>  2 0.18723487E+03</rscale>
<asrwt>0</asrwt>
<pdfrwt beam="1">  1       21 0.72663852E-01 0.18937775E+03</pdfrwt>
<pdfrwt beam="2">  1       21 0.11204328E-01 0.18937775E+03</pdfrwt>
<totfact> 0.11328913E+05</totfact>
</mgrwt>
</event>
<event>
12    1  0.1029207E-001  0.1960117E+03  0.7546771E-02  0.1153235E+00
         21   -1    0    0  501  502  0.00000000000E+00  0.00000000000E+00  0.44809431357E+03  0.44809431357E+03  0.00000000000E+00 0. -1.
         21   -1    0    0  502  503 -0.00000000000E+00 -0.00000000000E+00 -0.12251264606E+03  0.12251264606E+03  0.00000000000E+00 0.  1.
         -6    2    1    2    0  503 -0.61794895767E+01 -0.92661695202E+02  0.31934841145E+03  0.37449621814E+03  0.17216164979E+03 0.  0.
        -24    2    3    3    0    0  0.30996913459E+02  0.11856969384E+02  0.10682194149E+03  0.13471334423E+03  0.75069045299E+02 0.  0.
          6    2    1    2  501    0  0.61794895767E+01  0.92661695202E+02  0.62332560563E+01  0.19611074148E+03  0.17261573971E+03 0.  0.
         24    2    5    5    0    0  0.71152154943E+02  0.59517527079E+02  0.44721163237E+01  0.12300003954E+03  0.80647657868E+02 0.  0.
          5    1    5    5  501    0 -0.64972665366E+02  0.33144168124E+02  0.17611397326E+01  0.73110701943E+02  0.47000000000E+01 0. -1.
        -13    1    6    6    0    0  0.47893025908E+02  0.74752750458E+02 -0.13633910185E+02  0.89819814844E+02  0.00000000000E+00 0.  1.
         14    1    6    6    0    0  0.23259129035E+02 -0.15235223379E+02  0.18106026509E+02  0.33180224695E+02  0.00000000000E+00 0. -1.
         -5    1    3    3    0  503 -0.37176403035E+02 -0.10451866459E+03  0.21252646996E+03  0.23978287392E+03  0.47000000000E+01 0.  1.
         11    1    4    4    0    0 -0.15156516331E+02 -0.11272920093E+02  0.66721632748E+02  0.69343889358E+02  0.00000000000E+00 0. -1.
        -12    1    4    4    0    0  0.46153429790E+02  0.23129889478E+02  0.40100308740E+02  0.65369454867E+02  0.00000000000E+00 0.  1.
<mgrwt>
<rscale>  2 0.19591164E+03</rscale>
<asrwt>0</asrwt>
<pdfrwt beam="1">  1       21 0.68937586E-01 0.19601166E+03</pdfrwt>
<pdfrwt beam="2">  1       21 0.18848100E-01 0.19601166E+03</pdfrwt>
<totfact> 0.49323201E+04</totfact>
</mgrwt>
</event>
<event>
12    1  0.1029207E-001  0.1837177E+03  0.7546771E-02  0.1164366E+00
         21   -1    0    0  501  502  0.00000000000E+00  0.00000000000E+00  0.11042176958E+03  0.11042176958E+03  0.00000000000E+00 0. -1.
         21   -1    0    0  502  503 -0.00000000000E+00 -0.00000000000E+00 -0.93423850019E+03  0.93423850019E+03  0.00000000000E+00 0. -1.
         -6    2    1    2    0  503  0.84815231354E+01  0.62403572779E+02 -0.84044773853E+03  0.86019131921E+03  0.17207719867E+03 0.  0.
        -24    2    3    3    0    0  0.70111121107E+02  0.45902512310E+02 -0.61661181986E+03  0.62739290677E+03  0.79931928160E+02 0.  0.
          6    2    1    2  501    0 -0.84815231354E+01 -0.62403572779E+02  0.16631007932E+02  0.18446895056E+03  0.17258638755E+03 0.  0.
         24    2    5    5    0    0 -0.41217743818E+02 -0.17920349749E+01 -0.37562596234E+02  0.96693923406E+02  0.78972478706E+02 0.  0.
          5    1    5    5  501    0  0.32736220683E+02 -0.60611537804E+02  0.54193604166E+02  0.87775027155E+02  0.47000000000E+01 0. -1.
        -13    1    6    6    0    0 -0.47446128847E+02 -0.13148053028E+02  0.75042850518E+01  0.49802818546E+02  0.00000000000E+00 0.  1.
         14    1    6    6    0    0  0.62283850292E+01  0.11356018053E+02 -0.45066881286E+02  0.46891104860E+02  0.00000000000E+00 0. -1.
         -5    1    3    3    0  503 -0.61629597972E+02  0.16501060469E+02 -0.22383591868E+03  0.23279841244E+03  0.47000000000E+01 0.  1.
         13    1    4    4    0    0  0.15181683860E+01  0.34046589341E+02 -0.90650024226E+02  0.96844731262E+02  0.00000000000E+00 0. -1.
        -14    1    4    4    0    0  0.68592952721E+02  0.11855922970E+02 -0.52596179563E+03  0.53054817551E+03  0.00000000000E+00 0.  1.
<mgrwt>
<rscale>  2 0.18359805E+03</rscale>
<asrwt>0</asrwt>
<pdfrwt beam="1">  1       21 0.16987965E-01 0.18371773E+03</pdfrwt>
<pdfrwt beam="2">  1       21 0.14372900E+00 0.18371773E+03</pdfrwt>
<totfact> 0.10511033E+04</totfact>
</mgrwt>
</event>
<event>
12    1  0.1029207E-001  0.2527659E+03  0.7546771E-02  0.1111745E+00
         21   -1    0    0  501  502  0.00000000000E+00  0.00000000000E+00  0.97416626025E+02  0.97416626025E+02  0.00000000000E+00 0. -1.
         21   -1    0    0  502  503 -0.00000000000E+00 -0.00000000000E+00 -0.66448107034E+03  0.66448107034E+03  0.00000000000E+00 0.  1.
         -6    2    1    2    0  503 -0.18221638729E+03  0.19521806341E+02 -0.33313063814E+03  0.41749149218E+03  0.17245060527E+03 0.  0.
        -24    2    3    3    0    0 -0.46432742393E+02  0.58717619790E+02 -0.14801846934E+03  0.18454919235E+03  0.80902278653E+02 0.  0.
          6    2    1    2  501    0  0.18221638729E+03 -0.19521806341E+02 -0.23393380617E+03  0.34440620418E+03  0.17408818194E+03 0.  0.
         24    2    5    5    0    0  0.52079876122E+02  0.33514674180E+01 -0.17506566156E+03  0.19967802227E+03  0.80621218601E+02 0.  0.
          5    1    5    5  501    0  0.13013651116E+03 -0.22873273759E+02 -0.58868144615E+02  0.14472818192E+03  0.47000000000E+01 0. -1.
        -11    1    6    6    0    0  0.47203864084E+02  0.36623719487E+02 -0.13315393660E+03  0.14594338781E+03  0.00000000000E+00 0.  1.
         12    1    6    6    0    0  0.48760120379E+01 -0.33272252068E+02 -0.41911724955E+02  0.53734634453E+02  0.00000000000E+00 0. -1.
         -5    1    3    3    0  503 -0.13578364489E+03 -0.39195813448E+02 -0.18511216880E+03  0.23294229983E+03  0.47000000000E+01 0.  1.
         13    1    4    4    0    0 -0.38292578411E+02  0.44118088612E+02 -0.30601364565E+02  0.65948243474E+02  0.00000000000E+00 0. -1.
        -14    1    4    4    0    0 -0.81401639824E+01  0.14599531178E+02 -0.11741710478E+03  0.11860094888E+03  0.00000000000E+00 0.  1.
<mgrwt>
<rscale>  2 0.25248418E+03</rscale>
<asrwt>0</asrwt>
<pdfrwt beam="1">  1       21 0.14987173E-01 0.25276592E+03</pdfrwt>
<pdfrwt beam="2">  1       21 0.10222786E+00 0.25276592E+03</pdfrwt>
<totfact> 0.29661894E+04</totfact>
</mgrwt>
</event>
<event>
12    1  0.1029207E-001  0.2506265E+03  0.7546771E-02  0.1112917E+00
         21   -1    0    0  503  502  0.00000000000E+00  0.00000000000E+00  0.43675003440E+03  0.43675003440E+03  0.00000000000E+00 0. -1.
         21   -1    0    0  501  503 -0.00000000000E+00 -0.00000000000E+00 -0.19386511098E+03  0.19386511098E+03  0.00000000000E+00 0.  1.
          6    2    1    2  501    0 -0.18166133411E+03 -0.83906346951E+01  0.28169568452E+03  0.37704921394E+03  0.17245987358E+03 0.  0.
         24    2    3    3    0    0 -0.11532788377E+03 -0.60192329158E+02  0.95958792544E+02  0.17307905626E+03  0.61843613944E+02 0.  0.
         -6    2    1    2    0  502  0.18166133411E+03  0.83906346951E+01 -0.38810761101E+02  0.25356593144E+03  0.17238956857E+03 0.  0.
        -24    2    5    5    0    0  0.19771668429E+03 -0.20602721755E+02 -0.25995179815E+02  0.21772296684E+03  0.84918675973E+02 0.  0.
          5    1    3    3  501    0 -0.66333450337E+02  0.51801694463E+02  0.18573689197E+03  0.20397015768E+03  0.47000000000E+01 0. -1.
        -11    1    4    4    0    0 -0.19768070432E+02 -0.39557811659E+02  0.43933132837E+02  0.62335521436E+02  0.00000000000E+00 0.  1.
         12    1    4    4    0    0 -0.95559813341E+02 -0.20634517500E+02  0.52025659707E+02  0.11074353483E+03  0.00000000000E+00 0. -1.
         -5    1    5    5    0  502 -0.16055350177E+02  0.28993356450E+02 -0.12815581286E+02  0.35842964599E+02  0.47000000000E+01 0.  1.
         13    1    6    6    0    0  0.68329537711E+01 -0.55655967951E+01  0.19077267439E+02  0.21014453546E+02  0.00000000000E+00 0. -1.
        -14    1    6    6    0    0  0.19088373052E+03 -0.15037124960E+02 -0.45072447253E+02  0.19670851330E+03  0.00000000000E+00 0.  1.
<mgrwt>
<rscale>  2 0.25061442E+03</rscale>
<asrwt>0</asrwt>
<pdfrwt beam="1">  1       21 0.67192313E-01 0.25062652E+03</pdfrwt>
<pdfrwt beam="2">  1       21 0.29825402E-01 0.25062652E+03</pdfrwt>
<totfact> 0.21175268E+04</totfact>
</mgrwt>
</event>
<event>
12    1  0.1029207E-001  0.1789868E+03  0.7546771E-02  0.1168808E+00
         21   -1    0    0  501  502  0.00000000000E+00  0.00000000000E+00  0.13609329403E+02  0.13609329403E+02  0.00000000000E+00 0. -1.
         21   -1    0    0  502  503 -0.00000000000E+00 -0.00000000000E+00 -0.27210198944E+04  0.27210198944E+04  0.00000000000E+00 0. -1.
         -6    2    1    2    0  503  0.99851334357E+01 -0.45798434107E+02 -0.18569210068E+04  0.18655272417E+04  0.17273987510E+03 0.  0.
        -24    2    3    3    0    0  0.62200658033E+02 -0.28152467888E+02 -0.15659627603E+04  0.15693573034E+04  0.77340130248E+02 0.  0.
          6    2    1    2  501    0 -0.99851334357E+01  0.45798434107E+02 -0.85048955823E+03  0.86910198216E+03  0.17265157773E+03 0.  0.
         24    2    5    5    0    0  0.27874721411E+02  0.66338195952E+02 -0.77670789626E+03  0.78353870694E+03  0.74026973563E+02 0.  0.
          5    1    5    5  501    0 -0.37859854846E+02 -0.20539761846E+02 -0.73781661963E+02  0.85563275228E+02  0.47000000000E+01 0. -1.
        -11    1    6    6    0    0  0.40588191932E+02  0.27399218063E+02 -0.60639698976E+03  0.60837112658E+03  0.00000000000E+00 0.  1.
         12    1    6    6    0    0 -0.12713470521E+02  0.38938977889E+02 -0.17031090651E+03  0.17516758035E+03  0.00000000000E+00 0. -1.
         -5    1    3    3    0  503 -0.52215524597E+02 -0.17645966219E+02 -0.29095824646E+03  0.29616993824E+03  0.47000000000E+01 0.  1.
         11    1    4    4    0    0  0.63700786767E+02  0.47695869180E+01 -0.74509794699E+03  0.74783119072E+03  0.00000000000E+00 0. -1.
        -12    1    4    4    0    0 -0.15001287339E+01 -0.32922054806E+02 -0.82086481334E+03  0.82152611271E+03  0.00000000000E+00 0.  1.
<mgrwt>
<rscale>  2 0.17896546E+03</rscale>
<asrwt>0</asrwt>
<pdfrwt beam="1">  1       21 0.20937432E-02 0.17898677E+03</pdfrwt>
<pdfrwt beam="2">  1       21 0.41861840E+00 0.17898677E+03</pdfrwt>
<totfact> 0.77467020E+03</totfact>
</mgrwt>
</event>
<event>
12    1  0.1029207E-001  0.1849465E+03  0.7546771E-02  0.1163656E+00
         21   -1    0    0  503  502  0.00000000000E+00  0.00000000000E+00  0.58413152995E+03  0.58413152995E+03  0.00000000000E+00 0.  1.
         21   -1    0    0  501  503 -0.00000000000E+00 -0.00000000000E+00 -0.16073854871E+03  0.16073854871E+03  0.00000000000E+00 0.  1.
          6    2    1    2  501    0  0.47905710771E+02 -0.29265022015E+02 -0.85838737247E+02  0.20389580019E+03  0.17622091217E+03 0.  0.
         24    2    3    3    0    0  0.13237503289E+02 -0.46309534824E+02  0.14911318407E+02  0.95890875578E+02  0.81565360867E+02 0.  0.
         -6    2    1    2    0  502 -0.47905710771E+02  0.29265022015E+02  0.50923171849E+03  0.54097427847E+03  0.17373781455E+03 0.  0.
        -24    2    5    5    0    0 -0.95740569666E+02  0.47942946115E+01  0.35090790959E+03  0.37371547095E+03  0.85660085662E+02 0.  0.
          5    1    3    3  501    0  0.34668207481E+02  0.17044512809E+02 -0.10075005565E+03  0.10800492462E+03  0.47000000000E+01 0. -1.
        -13    1    4    4    0    0  0.44443596685E+02 -0.18300424589E+02  0.22841168628E+02  0.53215202816E+02  0.00000000000E+00 0.  1.
         14    1    4    4    0    0 -0.31206093396E+02 -0.28009110235E+02 -0.79298502206E+01  0.42675672762E+02  0.00000000000E+00 0. -1.
         -5    1    5    5    0  502  0.47834858895E+02  0.24470727404E+02  0.15832380891E+03  0.16725880752E+03  0.47000000000E+01 0.  1.
         11    1    6    6    0    0 -0.82199041876E+01  0.13446269193E+02  0.46039321440E+01  0.16418439976E+02  0.00000000000E+00 0. -1.
        -12    1    6    6    0    0 -0.87520665478E+02 -0.86519745811E+01  0.34630397744E+03  0.35729703097E+03  0.00000000000E+00 0.  1.
<mgrwt>
<rscale>  2 0.18435255E+03</rscale>
<asrwt>0</asrwt>
<pdfrwt beam="1">  1       21 0.89866389E-01 0.18494650E+03</pdfrwt>
<pdfrwt beam="2">  1       21 0.24729008E-01 0.18494650E+03</pdfrwt>
<totfact> 0.16383031E+04</totfact>
</mgrwt>
</event>
<event>
12    1  0.1029207E-001  0.2060193E+03  0.7546771E-02  0.1145200E+00
         21   -1    0    0  503  502  0.00000000000E+00  0.00000000000E+00  0.12895712979E+02  0.12895712979E+02  0.00000000000E+00 0. -1.
         21   -1    0    0  501  503 -0.00000000000E+00 -0.00000000000E+00 -0.32697082693E+04  0.32697082693E+04  0.00000000000E+00 0.  1.
          6    2    1    2  501    0  0.96982147693E+02  0.47983314886E+02 -0.17229727055E+04  0.17349901333E+04  0.17276539898E+03 0.  0.
         24    2    3    3    0    0  0.64806687174E+02  0.92887921059E+02 -0.95404428799E+03  0.96406556808E+03  0.79961512856E+02 0.  0.
         -6    2    1    2    0  502 -0.96982147693E+02 -0.47983314886E+02 -0.15338398508E+04  0.15476138490E+04  0.17531686250E+03 0.  0.
        -24    2    5    5    0    0 -0.35799279954E+02 -0.93728313241E+02 -0.95270315729E+03  0.96145866928E+03  0.81810034118E+02 0.  0.
          5    1    3    3  501    0  0.32175460519E+02 -0.44904606173E+02 -0.76892841752E+03  0.77092456517E+03  0.47000000000E+01 0. -1.
        -11    1    4    4    0    0  0.66387672730E+02  0.37773152526E+02 -0.69708924247E+03  0.70126139642E+03  0.00000000000E+00 0.  1.
         12    1    4    4    0    0 -0.15809855555E+01  0.55114768533E+02 -0.25695504553E+03  0.26280417167E+03  0.00000000000E+00 0. -1.
         -5    1    5    5    0  502 -0.61182867739E+02  0.45744998355E+02 -0.58113669354E+03  0.58615517976E+03  0.47000000000E+01 0.  1.
         13    1    6    6    0    0 -0.61963691580E+02 -0.68176986252E+02 -0.63262737901E+03  0.63930039981E+03  0.00000000000E+00 0. -1.
        -14    1    6    6    0    0  0.26164411625E+02 -0.25551326990E+02 -0.32007577828E+03  0.32215826947E+03  0.00000000000E+00 0.  1.
<mgrwt>
<rscale>  2 0.20547541E+03</rscale>
<asrwt>0</asrwt>
<pdfrwt beam="1">  1       21 0.19839557E-02 0.20601927E+03</pdfrwt>
<pdfrwt beam="2">  1       21 0.50303208E+00 0.20601927E+03</pdfrwt>
<totfact> 0.22044560E+03</totfact>
</mgrwt>
</event>
<event>
12    1  0.1029207E-001  0.1727769E+03  0.7546771E-02  0.1175196E+00
         21   -1    0    0  503  502  0.00000000000E+00  0.00000000000E+00  0.37197839788E+03  0.37197839788E+03  0.00000000000E+00 0.  1.
         21   -1    0    0  501  503 -0.00000000000E+00 -0.00000000000E+00 -0.15089703614E+03  0.15089703614E+03  0.00000000000E+00 0.  1.
          6    2    1    2  501    0 -0.15067100927E+01  0.19258537011E+01 -0.68972310982E+02  0.18526174350E+03  0.17192659723E+03 0.  0.
         24    2    3    3    0    0 -0.43627311931E+01  0.62126438991E+02 -0.65596506363E+02  0.12471627808E+03  0.85863382917E+02 0.  0.
         -6    2    1    2    0  502  0.15067100927E+01 -0.19258537011E+01  0.29005367272E+03  0.33761369052E+03  0.17275963614E+03 0.  0.
        -24    2    5    5    0    0  0.38146149802E+02 -0.46450050421E+02  0.24262576664E+03  0.26280494163E+03  0.81156877568E+02 0.  0.
          5    1    3    3  501    0  0.28560211004E+01 -0.60200585290E+02 -0.33758046190E+01  0.60545465417E+02  0.47000000000E+01 0. -1.
        -13    1    4    4    0    0  0.29863529289E+02 -0.21784490088E+01 -0.58642551150E+01  0.30511727413E+02  0.00000000000E+00 0.  1.
         14    1    4    4    0    0 -0.34226260482E+02  0.64304888000E+02 -0.59732251248E+02  0.94204550667E+02  0.00000000000E+00 0. -1.
         -5    1    5    5    0  502 -0.36639439709E+02  0.44524196720E+02  0.47427906081E+02  0.74808748893E+02  0.47000000000E+01 0.  1.
         11    1    6    6    0    0 -0.18961266936E+02 -0.26809358877E+02  0.42152634327E+02  0.53433285019E+02  0.00000000000E+00 0. -1.
        -12    1    6    6    0    0  0.57107416738E+02 -0.19640691543E+02  0.20047313232E+03  0.20937165661E+03  0.00000000000E+00 0.  1.
<mgrwt>
<rscale>  2 0.17256832E+03</rscale>
<asrwt>0</asrwt>
<pdfrwt beam="1">  1       21 0.57227446E-01 0.17277694E+03</pdfrwt>
<pdfrwt beam="2">  1       21 0.23214929E-01 0.17277694E+03</pdfrwt>
<totfact> 0.50477692E+04</totfact>
</mgrwt>
</event>
<event>
12    1  0.1029207E-001  0.3602674E+03  0.7546771E-02  0.1058483E+00
         21   -1    0    0  503  502  0.00000000000E+00  0.00000000000E+00  0.20691708746E+03  0.20691708746E+03  0.00000000000E+00 0. -1.
         21   -1    0    0  501  503 -0.00000000000E+00 -0.00000000000E+00 -0.67686293864E+03  0.67686293864E+03  0.00000000000E+00 0.  1.
          6    2    1    2  501    0 -0.31679832111E+03  0.76208882166E+01 -0.35468101175E+03  0.50552274161E+03  0.17127570754E+03 0.  0.
         24    2    3    3    0    0 -0.12052843918E+03  0.45152825318E+02 -0.12341644561E+03  0.19984987332E+03  0.90235638934E+02 0.  0.
         -6    2    1    2    0  502  0.31679832111E+03 -0.76208882166E+01 -0.11526483942E+03  0.37825728449E+03  0.17138651016E+03 0.  0.
        -24    2    5    5    0    0  0.32589927408E+03 -0.27588374264E+01 -0.85825322441E+02  0.34670982749E+03  0.81386549729E+02 0.  0.
          5    1    3    3  501    0 -0.19626988193E+03 -0.37531937102E+02 -0.23126456615E+03  0.30567286829E+03  0.47000000000E+01 0. -1.
        -11    1    4    4    0    0 -0.74528203920E+02 -0.98495104070E+01 -0.27397987186E+02  0.80013222261E+02  0.00000000000E+00 0.  1.
         12    1    4    4    0    0 -0.46000235263E+02  0.55002335725E+02 -0.96018458423E+02  0.11983665106E+03  0.00000000000E+00 0. -1.
         -5    1    5    5    0  502 -0.91009529707E+01 -0.48620507902E+01 -0.29439516982E+02  0.31547456997E+02  0.47000000000E+01 0.  1.
         11    1    6    6    0    0  0.12967506473E+03  0.32119215436E+02 -0.57361074263E+02  0.14538761726E+03  0.00000000000E+00 0. -1.
        -12    1    6    6    0    0  0.19622420935E+03 -0.34878052862E+02 -0.28464248178E+02  0.20132221023E+03  0.00000000000E+00 0.  1.
<mgrwt>
<rscale>  2 0.36025421E+03</rscale>
<asrwt>0</asrwt>
<pdfrwt beam="1">  1       21 0.31833398E-01 0.36026739E+03</pdfrwt>
<pdfrwt beam="2">  1       21 0.10413276E+00 0.36026739E+03</pdfrwt>
<totfact> 0.64407813E+03</totfact>
</mgrwt>
</event>
<event>
12    1  0.1029207E-001  0.1786873E+03  0.7546771E-02  0.1172861E+00
         21   -1    0    0  501  502  0.00000000000E+00  0.00000000000E+00  0.13366787168E+03  0.13366787168E+03  0.00000000000E+00 0. -1.
         21   -1    0    0  502  503 -0.00000000000E+00 -0.00000000000E+00 -0.29340766914E+03  0.29340766914E+03  0.00000000000E+00 0. -1.
         -6    2    1    2    0  503  0.45273880729E+02 -0.10629263425E+02 -0.18437777513E+03  0.24669766592E+03  0.15716828207E+03 0.  0.
        -24    2    3    3    0    0  0.66341133184E+02 -0.49829111336E+02 -0.11817294557E+03  0.16678754979E+03  0.83481467470E+02 0.  0.
          6    2    1    2  501    0 -0.45273880729E+02  0.10629263425E+02  0.24637977676E+02  0.18037787491E+03  0.17252954036E+03 0.  0.
         24    2    5    5    0    0 -0.79142852243E+02  0.50310102918E+02  0.32353629888E+01  0.12379308747E+03  0.80743813476E+02 0.  0.
          5    1    5    5  501    0  0.33868971514E+02 -0.39680839493E+02  0.21402614687E+02  0.56584787441E+02  0.47000000000E+01 0. -1.
        -11    1    6    6    0    0  0.43589194570E+01  0.44792003631E+01 -0.23938041671E+02  0.24740518462E+02  0.00000000000E+00 0.  1.
         12    1    6    6    0    0 -0.83501771700E+02  0.45830902555E+02  0.27173404660E+02  0.99052569007E+02  0.00000000000E+00 0. -1.
         -5    1    3    3    0  503 -0.21067252455E+02  0.39199847911E+02 -0.66204829562E+02  0.79910116128E+02  0.47000000000E+01 0.  1.
         13    1    4    4    0    0 -0.13197945154E+02 -0.54058348080E+01 -0.52704611043E+02  0.54600227394E+02  0.00000000000E+00 0. -1.
        -14    1    4    4    0    0  0.79539078338E+02 -0.44423276528E+02 -0.65468334530E+02  0.11218732240E+03  0.00000000000E+00 0.  1.
<mgrwt>
<rscale>  2 0.17487098E+03</rscale>
<asrwt>0</asrwt>
<pdfrwt beam="1">  1       21 0.20564288E-01 0.17868729E+03</pdfrwt>
<pdfrwt beam="2">  1       21 0.45139641E-01 0.17868729E+03</pdfrwt>
<totfact> 0.10371675E+05</totfact>
</mgrwt>
</event>
<event>
12    1  0.1029207E-001  0.1869953E+03  0.7546771E-02  0.1161730E+00
         21   -1    0    0  503  502  0.00000000000E+00  0.00000000000E+00  0.27171359042E+03  0.27171359042E+03  0.00000000000E+00 0. -1.
         21   -1    0    0  501  503 -0.00000000000E+00 -0.00000000000E+00 -0.20121716357E+03  0.20121716357E+03  0.00000000000E+00 0. -1.
          6    2    1    2  501    0 -0.28967772775E+02 -0.64737427840E+02 -0.10810720324E+03  0.21599629584E+03  0.17302359954E+03 0.  0.
         24    2    3    3    0    0 -0.74264291011E+02 -0.47327856599E+01 -0.51309863111E+02  0.12165457922E+03  0.81422051152E+02 0.  0.
         -6    2    1    2    0  502  0.28967772775E+02  0.64737427840E+02  0.17860363010E+03  0.25693445815E+03  0.17054615996E+03 0.  0.
        -24    2    5    5    0    0  0.46405735517E+02  0.66909751033E+02  0.47704615420E+02  0.12477756814E+03  0.81629064104E+02 0.  0.
          5    1    3    3  501    0  0.45296518237E+02 -0.60004642180E+02 -0.56797340133E+02  0.94341716614E+02  0.47000000000E+01 0. -1.
        -13    1    4    4    0    0 -0.10997169796E+02  0.18091201611E+02  0.15971963914E+02  0.26520425157E+02  0.00000000000E+00 0.  1.
         14    1    4    4    0    0 -0.63267121215E+02 -0.22823987271E+02 -0.67281827025E+02  0.95134154065E+02  0.00000000000E+00 0. -1.
         -5    1    5    5    0  502 -0.17437962743E+02 -0.21723231931E+01  0.13089901468E+03  0.13215689001E+03  0.47000000000E+01 0.  1.
         11    1    6    6    0    0  0.36930848620E+02  0.46641070280E+01  0.49324132537E+02  0.61794105906E+02  0.00000000000E+00 0. -1.
        -12    1    6    6    0    0  0.94748868973E+01  0.62245644005E+02 -0.16195171172E+01  0.62983462234E+02  0.00000000000E+00 0.  1.
<mgrwt>
<rscale>  2 0.18642014E+03</rscale>
<asrwt>0</asrwt>
<pdfrwt beam="1">  1       21 0.41802091E-01 0.18699527E+03</pdfrwt>
<pdfrwt beam="2">  1       21 0.30956487E-01 0.18699527E+03</pdfrwt>
<totfact> 0.55356458E+04</totfact>
</mgrwt>
</event>
<event>
12    1  0.1029207E-001  0.2179566E+03  0.7546771E-02  0.1136907E+00
         21   -1    0    0  503  502  0.00000000000E+00  0.00000000000E+00  0.31306511547E+03  0.31306511547E+03  0.00000000000E+00 0.  1.
         21   -1    0    0  501  503 -0.00000000000E+00 -0.00000000000E+00 -0.30082043503E+03  0.30082043503E+03  0.00000000000E+00 0.  1.
          6    2    1    2  501    0  0.83705574818E+02 -0.10272491028E+03 -0.21372630066E+03  0.30526058253E+03  0.17304930282E+03 0.  0.
         24    2    3    3    0    0  0.24742215262E+01 -0.59995193382E+02 -0.18241567383E+03  0.20816883821E+03  0.80332074158E+02 0.  0.
         -6    2    1    2    0  502 -0.83705574818E+02  0.10272491028E+03  0.22597098111E+03  0.30862496797E+03  0.16317921469E+03 0.  0.
        -24    2    5    5    0    0 -0.22064139280E+02  0.19062287314E+01  0.54714973939E+02  0.10050292898E+03  0.81342795685E+02 0.  0.
          5    1    3    3  501    0  0.81231353291E+02 -0.42729716897E+02 -0.31310626828E+02  0.97091744325E+02  0.47000000000E+01 0. -1.
        -13    1    4    4    0    0  0.28846506802E+02 -0.43531320232E+02 -0.50522361329E+02  0.72660895880E+02  0.00000000000E+00 0.  1.
         14    1    4    4    0    0 -0.26372285276E+02 -0.16463873150E+02 -0.13189331251E+03  0.13550794233E+03  0.00000000000E+00 0. -1.
         -5    1    5    5    0  502 -0.61641435538E+02  0.10081868155E+03  0.17125600717E+03  0.20812203899E+03  0.47000000000E+01 0.  1.
         11    1    6    6    0    0 -0.50722078796E+02 -0.88519174904E+01  0.45015918663E+02  0.68392387396E+02  0.00000000000E+00 0. -1.
        -12    1    6    6    0    0  0.28657939516E+02  0.10758146222E+02  0.96990552762E+01  0.32110541582E+02  0.00000000000E+00 0.  1.
<mgrwt>
<rscale>  2 0.21599254E+03</rscale>
<asrwt>0</asrwt>
<pdfrwt beam="1">  1       21 0.48163864E-01 0.21795663E+03</pdfrwt>
<pdfrwt beam="2">  1       21 0.46280067E-01 0.21795663E+03</pdfrwt>
<totfact> 0.18146555E+04</totfact>
</mgrwt>
</event>
<event>
12    1  0.1029207E-001  0.1916791E+03  0.7546771E-02  0.1157185E+00
         21   -1    0    0  501  502  0.00000000000E+00  0.00000000000E+00  0.12530968536E+03  0.12530968536E+03  0.00000000000E+00 0. -1.
         21   -1    0    0  502  503 -0.00000000000E+00 -0.00000000000E+00 -0.32133690962E+03  0.32133690962E+03  0.00000000000E+00 0. -1.
         -6    2    1    2    0  503  0.44595260674E+01 -0.82863955947E+02 -0.16614946660E+03  0.25366620130E+03  0.17278476166E+03 0.  0.
        -24    2    3    3    0    0 -0.54821032035E+02 -0.62800450251E+02 -0.15052355613E+03  0.18899017864E+03  0.78170995678E+02 0.  0.
          6    2    1    2  501    0 -0.44595260674E+01  0.82863955947E+02 -0.29877757666E+02  0.19298039369E+03  0.17164623322E+03 0.  0.
         24    2    5    5    0    0  0.49460798187E+02  0.93580581159E+02 -0.36477200559E+02  0.13741160686E+03  0.79672252449E+02 0.  0.
          5    1    5    5  501    0 -0.53920324255E+02 -0.10716625212E+02  0.65994428934E+01  0.55568786834E+02  0.47000000000E+01 0. -1.
        -11    1    6    6    0    0  0.53230877908E+00  0.66071072423E+02 -0.45958027532E+02  0.80484844899E+02  0.00000000000E+00 0.  1.
         12    1    6    6    0    0  0.48928489408E+02  0.27509508736E+02  0.94808269730E+01  0.56926761956E+02  0.00000000000E+00 0. -1.
         -5    1    3    3    0  503  0.59280558102E+02 -0.20063505697E+02 -0.15625910464E+02  0.64676022663E+02  0.47000000000E+01 0.  1.
         11    1    4    4    0    0 -0.65244443105E+02 -0.21215177178E+02 -0.11205532383E+03  0.13138994138E+03  0.00000000000E+00 0. -1.
        -12    1    4    4    0    0  0.10423411071E+02 -0.41585273072E+02 -0.38468232304E+02  0.57600237252E+02  0.00000000000E+00 0.  1.
<mgrwt>
<rscale>  2 0.19142222E+03</rscale>
<asrwt>0</asrwt>
<pdfrwt beam="1">  1       21 0.19278414E-01 0.19167915E+03</pdfrwt>
<pdfrwt beam="2">  1       21 0.49436447E-01 0.19167915E+03</pdfrwt>
<totfact> 0.96485936E+04</totfact>
</mgrwt>
</event>
<event>
12    1  0.1029207E-001  0.3001131E+03  0.7546771E-02  0.1085449E+00
         21   -1    0    0  501  502  0.00000000000E+00  0.00000000000E+00  0.28902691052E+03  0.28902691052E+03  0.00000000000E+00 0. -1.
         21   -1    0    0  502  503 -0.00000000000E+00 -0.00000000000E+00 -0.38123190699E+03  0.38123190699E+03  0.00000000000E+00 0.  1.
         -6    2    1    2    0  503 -0.24440684016E+03  0.13407035714E+02  0.99462674684E+02  0.31416282850E+03  0.16997354804E+03 0.  0.
        -24    2    3    3    0    0 -0.62335792915E+02  0.46020228801E+02  0.22726334273E+02  0.11385296218E+03  0.80264551264E+02 0.  0.
          6    2    1    2  501    0  0.24440684016E+03 -0.13407035714E+02 -0.19166767115E+03  0.35609598901E+03  0.17364735846E+03 0.  0.
         24    2    5    5    0    0  0.25452545818E+03  0.16233371436E+02 -0.17249273571E+03  0.31907291085E+03  0.83708108085E+02 0.  0.
          5    1    5    5  501    0 -0.10118618021E+02 -0.29640407151E+02 -0.19174935447E+02  0.37023078156E+02  0.47000000000E+01 0. -1.
        -11    1    6    6    0    0  0.12591221030E+03  0.29780311498E+02 -0.43727781704E+02  0.13657551225E+03  0.00000000000E+00 0.  1.
         12    1    6    6    0    0  0.12861324788E+03 -0.13546940062E+02 -0.12876495400E+03  0.18249739860E+03  0.00000000000E+00 0. -1.
         -5    1    3    3    0  503 -0.18207104724E+03 -0.32613193087E+02  0.76736340411E+02  0.20030986632E+03  0.47000000000E+01 0.  1.
         13    1    4    4    0    0  0.48542500506E+01  0.17935175534E+02  0.35357295168E+02  0.39942115450E+02  0.00000000000E+00 0. -1.
        -14    1    4    4    0    0 -0.67190042965E+02  0.28085053268E+02 -0.12630960895E+02  0.73910846726E+02  0.00000000000E+00 0.  1.
<mgrwt>
<rscale>  2 0.29958402E+03</rscale>
<asrwt>0</asrwt>
<pdfrwt beam="1">  1       21 0.44465679E-01 0.30011307E+03</pdfrwt>
<pdfrwt beam="2">  1       21 0.58651062E-01 0.30011307E+03</pdfrwt>
<totfact> 0.12467147E+04</totfact>
</mgrwt>
</event>
<event>
12    1  0.1029207E-001  0.2952890E+03  0.7546771E-02  0.1087635E+00
         21   -1    0    0  503  502  0.00000000000E+00  0.00000000000E+00  0.14684198381E+04  0.14684198381E+04  0.00000000000E+00 0. -1.
         21   -1    0    0  501  503 -0.00000000000E+00 -0.00000000000E+00 -0.89529116417E+02  0.89529116417E+02  0.00000000000E+00 0.  1.
          6    2    1    2  501    0  0.21995124629E+03  0.93874272416E+02  0.23713649633E+03  0.37862784541E+03  0.17301559948E+03 0.  0.
         24    2    3    3    0    0  0.23190259679E+03  0.10906659871E+03  0.23816328269E+03  0.35870836130E+03  0.79218696625E+02 0.  0.
         -6    2    1    2    0  502 -0.21995124629E+03 -0.93874272416E+02  0.11417542254E+04  0.11793211091E+04  0.17321846757E+03 0.  0.
        -24    2    5    5    0    0 -0.67824798534E+02 -0.90319804727E+02  0.65132936100E+03  0.66580993306E+03  0.79467352039E+02 0.  0.
          5    1    3    3  501    0 -0.11951350498E+02 -0.15192326293E+02 -0.10267863635E+01  0.19919484109E+02  0.47000000000E+01 0. -1.
        -13    1    4    4    0    0  0.17695572300E+03  0.47039485086E+02  0.14161125546E+03  0.23147308425E+03  0.00000000000E+00 0.  1.
         14    1    4    4    0    0  0.54946873785E+02  0.62027113623E+02  0.96552027238E+02  0.12723527705E+03  0.00000000000E+00 0. -1.
         -5    1    5    5    0  502 -0.15212644776E+03 -0.35544676889E+01  0.49042486436E+03  0.51351117605E+03  0.47000000000E+01 0.  1.
         11    1    6    6    0    0 -0.56182441525E+02 -0.75218877609E+02  0.63096698524E+03  0.63791353862E+03  0.00000000000E+00 0. -1.
        -12    1    6    6    0    0 -0.11642357008E+02 -0.15100927118E+02  0.20362375760E+02  0.27896394446E+02  0.00000000000E+00 0.  1.
<mgrwt>
<rscale>  2 0.29525921E+03</rscale>
<asrwt>0</asrwt>
<pdfrwt beam="1">  1       21 0.22591073E+00 0.29528896E+03</pdfrwt>
<pdfrwt beam="2">  1       21 0.13773711E-01 0.29528896E+03</pdfrwt>
<totfact> 0.38978703E+03</totfact>
</mgrwt>
</event>
<event>
12    1  0.1029207E-001  0.1936826E+03  0.7546771E-02  0.1155555E+00
         21   -1    0    0  503  502  0.00000000000E+00  0.00000000000E+00  0.23471575336E+03  0.23471575336E+03  0.00000000000E+00 0. -1.
         21   -1    0    0  501  503 -0.00000000000E+00 -0.00000000000E+00 -0.16049047472E+03  0.16049047472E+03  0.00000000000E+00 0. -1.
          6    2    1    2  501    0 -0.24901133157E+02 -0.80913235636E+02  0.14554973114E+02  0.19254023674E+03  0.17231621336E+03 0.  0.
         24    2    3    3    0    0 -0.44113452569E+02 -0.81402500212E+02 -0.44336834613E+02  0.13041385253E+03  0.80434161214E+02 0.  0.
         -6    2    1    2    0  502  0.24901133157E+02  0.80913235636E+02  0.59670305523E+02  0.20266599135E+03  0.17420086267E+03 0.  0.
        -24    2    5    5    0    0  0.37162133258E+02  0.12130527910E+03  0.34591568588E+02  0.15334173419E+03  0.78874051123E+02 0.  0.
          5    1    3    3  501    0  0.19212319413E+02  0.48926457562E+00  0.58891807727E+02  0.62126384205E+02  0.47000000000E+01 0. -1.
        -11    1    4    4    0    0  0.92751942384E+01  0.33989296758E+01 -0.26956955173E+02  0.28709917856E+02  0.00000000000E+00 0.  1.
         12    1    4    4    0    0 -0.53388646808E+02 -0.84801429888E+02 -0.17379879440E+02  0.10170393467E+03  0.00000000000E+00 0. -1.
         -5    1    5    5    0  502 -0.12261000101E+02 -0.40392043461E+02  0.25078736935E+02  0.49324257163E+02  0.47000000000E+01 0.  1.
         11    1    6    6    0    0  0.53940025744E+02  0.64417179201E+02  0.41358543251E+02  0.93646294392E+02  0.00000000000E+00 0. -1.
        -12    1    6    6    0    0 -0.16777892486E+02  0.56888099896E+02 -0.67669746632E+01  0.59695439794E+02  0.00000000000E+00 0.  1.
<mgrwt>
<rscale>  2 0.19325790E+03</rscale>
<asrwt>0</asrwt>
<pdfrwt beam="1">  1       21 0.36110116E-01 0.19368262E+03</pdfrwt>
<pdfrwt beam="2">  1       21 0.24690842E-01 0.19368262E+03</pdfrwt>
<totfact> 0.11467311E+05</totfact>
</mgrwt>
</event>
<event>
12    1  0.1029207E-001  0.1810775E+03  0.7546771E-02  0.1166876E+00
         21   -1    0    0  501  502  0.00000000000E+00  0.00000000000E+00  0.29430309892E+02  0.29430309892E+02  0.00000000000E+00 0. -1.
         21   -1    0    0  502  503 -0.00000000000E+00 -0.00000000000E+00 -0.14546803991E+04  0.14546803991E+04  0.00000000000E+00 0.  1.
         -6    2    1    2    0  503 -0.49588613118E+02 -0.22820671388E+02 -0.10724681680E+04  0.10875705087E+04  0.17216801807E+03 0.  0.
        -24    2    3    3    0    0 -0.84515098766E+02 -0.20501214629E+02 -0.50035590321E+03  0.51436917165E+03  0.81587457063E+02 0.  0.
          6    2    1    2  501    0  0.49588613118E+02  0.22820671388E+02 -0.35278192118E+03  0.39654020026E+03  0.17265350536E+03 0.  0.
         24    2    5    5    0    0  0.81147428603E+02  0.17620211550E+02 -0.34450195790E+03  0.36316878421E+03  0.79464393276E+02 0.  0.
          5    1    5    5  501    0 -0.31558815485E+02  0.52004598378E+01 -0.82799632808E+01  0.33371416051E+02  0.47000000000E+01 0. -1.
        -11    1    6    6    0    0 -0.50114608933E+00  0.30828419273E+02 -0.70301583344E+02  0.76765586059E+02  0.00000000000E+00 0.  1.
         12    1    6    6    0    0  0.81648574692E+02 -0.13208207723E+02 -0.27420037456E+03  0.28640319815E+03  0.00000000000E+00 0. -1.
         -5    1    3    3    0  503  0.34926485648E+02 -0.23194567593E+01 -0.57211226477E+03  0.57320133704E+03  0.47000000000E+01 0.  1.
         13    1    4    4    0    0 -0.63107267266E+02 -0.11259599845E+02 -0.47727306144E+03  0.48155880321E+03  0.00000000000E+00 0. -1.
        -14    1    4    4    0    0 -0.21407831500E+02 -0.92416147835E+01 -0.23082841767E+02  0.32810368443E+02  0.00000000000E+00 0.  1.
<mgrwt>
<rscale>  2 0.18096164E+03</rscale>
<asrwt>0</asrwt>
<pdfrwt beam="1">  1       21 0.45277394E-02 0.18107746E+03</pdfrwt>
<pdfrwt beam="2">  1       21 0.22379701E+00 0.18107746E+03</pdfrwt>
<totfact> 0.30610631E+04</totfact>
</mgrwt>
</event>
<event>
12    1  0.1029207E-001  0.2235811E+03  0.7546771E-02  0.1131470E+00
         21   -1    0    0  503  502  0.00000000000E+00  0.00000000000E+00  0.25474685171E+04  0.25474685171E+04  0.00000000000E+00 0. -1.
         21   -1    0    0  501  503 -0.00000000000E+00 -0.00000000000E+00 -0.25102509676E+02  0.25102509676E+02  0.00000000000E+00 0.  1.
          6    2    1    2  501    0  0.23995367872E+02  0.13736550774E+03  0.65149664443E+03  0.68838933052E+03  0.17316735338E+03 0.  0.
         24    2    3    3    0    0  0.28430535852E+02  0.12103815938E+03  0.27994984406E+03  0.31642781654E+03  0.79348071794E+02 0.  0.
         -6    2    1    2    0  502 -0.23995367872E+02 -0.13736550774E+03  0.18708693630E+04  0.18841816962E+04  0.17476678948E+03 0.  0.
        -24    2    5    5    0    0 -0.94605597515E+01 -0.16137645337E+03  0.17747340610E+04  0.17839226695E+04  0.81038519037E+02 0.  0.
          5    1    3    3  501    0 -0.44351679797E+01  0.16327348369E+02  0.37154680037E+03  0.37196151398E+03  0.47000000000E+01 0. -1.
        -13    1    4    4    0    0  0.32307402760E+02  0.60658767383E+02  0.70669519675E+02  0.98577052830E+02  0.00000000000E+00 0.  1.
         14    1    4    4    0    0 -0.38768669084E+01  0.60379391993E+02  0.20928032439E+03  0.21785076371E+03  0.00000000000E+00 0. -1.
         -5    1    5    5    0  502 -0.14534808120E+02  0.24010945621E+02  0.96135301945E+02  0.10025902671E+03  0.47000000000E+01 0.  1.
         13    1    6    6    0    0 -0.77594209357E+01 -0.15383769993E+03  0.12953168744E+04  0.13044431960E+04  0.00000000000E+00 0. -1.
        -14    1    6    6    0    0 -0.17011388158E+01 -0.75387534374E+01  0.47941718663E+03  0.47947947351E+03  0.00000000000E+00 0.  1.
<mgrwt>
<rscale>  2 0.22326841E+03</rscale>
<asrwt>0</asrwt>
<pdfrwt beam="1">  1       21 0.39191803E+00 0.22358106E+03</pdfrwt>
<pdfrwt beam="2">  1       21 0.38619266E-02 0.22358106E+03</pdfrwt>
<totfact> 0.39046107E+03</totfact>
</mgrwt>
</event>
<event>
12    1  0.1029207E-001  0.1963544E+03  0.7546771E-02  0.1153671E+00
         21   -1    0    0  503  502  0.00000000000E+00  0.00000000000E+00  0.86688410416E+03  0.86688410416E+03  0.00000000000E+00 0.  1.
         21   -1    0    0  501  503 -0.00000000000E+00 -0.00000000000E+00 -0.43631026487E+02  0.43631026487E+02  0.00000000000E+00 0. -1.
          6    2    1    2  501    0 -0.54431361600E+02 -0.64637977811E+02  0.40481876434E+03  0.44830052772E+03  0.17307307672E+03 0.  0.
         24    2    3    3    0    0  0.15452264657E+02  0.17693672252E+02  0.15334057848E+03  0.17457513652E+03  0.80070636075E+02 0.  0.
         -6    2    1    2    0  502  0.54431361600E+02  0.64637977811E+02  0.41843431332E+03  0.46221460293E+03  0.17724058026E+03 0.  0.
        -24    2    5    5    0    0  0.55789416581E+01  0.89090882268E+02  0.16908190519E+03  0.20690456217E+03  0.79072734170E+02 0.  0.
          5    1    3    3  501    0 -0.69883626257E+02 -0.82331650063E+02  0.25147818587E+03  0.27372539120E+03  0.47000000000E+01 0. -1.
        -13    1    4    4    0    0 -0.73464593016E+01 -0.71758243449E+01  0.13646649132E+03  0.13685235173E+03  0.00000000000E+00 0.  1.
         14    1    4    4    0    0  0.22798723959E+02  0.24869496597E+02  0.16874087157E+02  0.37722784793E+02  0.00000000000E+00 0. -1.
         -5    1    5    5    0  502  0.48852419942E+02 -0.24452904457E+02  0.24935240813E+03  0.25531004076E+03  0.47000000000E+01 0.  1.
         11    1    6    6    0    0  0.40033439354E+02  0.61070630765E+02  0.12198784810E+03  0.14217360266E+03  0.00000000000E+00 0. -1.
        -12    1    6    6    0    0 -0.34454497696E+02  0.28020251503E+02  0.47094057092E+02  0.64730959510E+02  0.00000000000E+00 0.  1.
<mgrwt>
<rscale>  2 0.19540927E+03</rscale>
<asrwt>0</asrwt>
<pdfrwt beam="1">  1       21 0.13336677E+00 0.19635444E+03</pdfrwt>
<pdfrwt beam="2">  1       21 0.67124662E-02 0.19635444E+03</pdfrwt>
<totfact> 0.65763678E+04</totfact>
</mgrwt>
</event>
<event>
12    1  0.1029207E-001  0.2110073E+03  0.7546771E-02  0.1141511E+00
         21   -1    0    0  501  502  0.00000000000E+00  0.00000000000E+00  0.99161845249E+02  0.99161845249E+02  0.00000000000E+00 0. -1.
         21   -1    0    0  502  503 -0.00000000000E+00 -0.00000000000E+00 -0.46998276044E+03  0.46998276044E+03  0.00000000000E+00 0. -1.
         -6    2    1    2    0  503  0.11233129198E+03 -0.41923016539E+02 -0.25439203870E+03  0.32814718179E+03  0.16908401783E+03 0.  0.
        -24    2    3    3    0    0  0.53005476034E+02 -0.29418246863E+02 -0.24827575156E+03  0.26702909387E+03  0.77386526098E+02 0.  0.
          6    2    1    2  501    0 -0.11233129198E+03  0.41923016539E+02 -0.11642887649E+03  0.24099742390E+03  0.17363241798E+03 0.  0.
         24    2    5    5    0    0 -0.23663562952E+02  0.23679644605E+02 -0.12321278218E+03  0.15009693893E+03  0.78911416184E+02 0.  0.
          5    1    5    5  501    0 -0.88667729032E+02  0.18243371935E+02  0.67839056908E+01  0.90900484969E+02  0.47000000000E+01 0. -1.
        -13    1    6    6    0    0 -0.49603594655E+02  0.25022428039E+02 -0.60085443812E+02  0.81834583556E+02  0.00000000000E+00 0.  1.
         14    1    6    6    0    0  0.25940031703E+02 -0.13427834344E+01 -0.63127338368E+02  0.68262355377E+02  0.00000000000E+00 0. -1.
         -5    1    3    3    0  503  0.59325815949E+02 -0.12504769677E+02 -0.61162871445E+01  0.61118087921E+02  0.47000000000E+01 0.  1.
         11    1    4    4    0    0  0.48699071530E+02 -0.52145806212E+02 -0.15053025531E+03  0.16658374001E+03  0.00000000000E+00 0. -1.
        -12    1    4    4    0    0  0.43064045046E+01  0.22727559350E+02 -0.97745496253E+02  0.10044535386E+03  0.00000000000E+00 0.  1.
<mgrwt>
<rscale>  2 0.21006939E+03</rscale>
<asrwt>0</asrwt>
<pdfrwt beam="1">  1       21 0.15255668E-01 0.21100729E+03</pdfrwt>
<pdfrwt beam="2">  1       21 0.72305040E-01 0.21100729E+03</pdfrwt>
<totfact> 0.65058164E+04</totfact>
</mgrwt>
</event>
<event>
12    1  0.1029207E-001  0.1814198E+03  0.7546771E-02  0.1166844E+00
         21   -1    0    0  501  502  0.00000000000E+00  0.00000000000E+00  0.30213775714E+03  0.30213775714E+03  0.00000000000E+00 0. -1.
         21   -1    0    0  502  503 -0.00000000000E+00 -0.00000000000E+00 -0.14060545618E+03  0.14060545618E+03  0.00000000000E+00 0. -1.
         -6    2    1    2    0  503 -0.40861490284E+02  0.34712287282E+02 -0.26258658117E+02  0.18163293886E+03  0.17154125765E+03 0.  0.
        -24    2    3    3    0    0  0.18512850080E+02  0.58716888504E+02  0.20178110550E+02  0.10238650892E+03  0.79280782348E+02 0.  0.
          6    2    1    2  501    0  0.40861490284E+02 -0.34712287282E+02  0.18779095908E+03  0.26111027447E+03  0.17331626249E+03 0.  0.
         24    2    5    5    0    0  0.55223816341E+02 -0.80979607257E+02  0.16245649915E+03  0.20623891430E+03  0.80839402332E+02 0.  0.
          5    1    5    5  501    0 -0.14362326057E+02  0.46267319974E+02  0.25334459920E+02  0.54871360169E+02  0.47000000000E+01 0. -1.
        -11    1    6    6    0    0 -0.21041051373E+02 -0.20414400123E+02  0.31391034969E+02  0.42951957484E+02  0.00000000000E+00 0.  1.
         12    1    6    6    0    0  0.76264867714E+02 -0.60565207134E+02  0.13106546419E+03  0.16328695681E+03  0.00000000000E+00 0. -1.
         -5    1    3    3    0  503 -0.59374340365E+02 -0.24004601222E+02 -0.46436768667E+02  0.79246429937E+02  0.47000000000E+01 0.  1.
         11    1    4    4    0    0 -0.18092828141E+02  0.18845212726E+02  0.37368878191E+02  0.45595235827E+02  0.00000000000E+00 0. -1.
        -12    1    4    4    0    0  0.36605678221E+02  0.39871675778E+02 -0.17190767641E+02  0.56791273093E+02  0.00000000000E+00 0.  1.
<mgrwt>
<rscale>  2 0.18099453E+03</rscale>
<asrwt>0</asrwt>
<pdfrwt beam="1">  1       21 0.46482732E-01 0.18141976E+03</pdfrwt>
<pdfrwt beam="2">  1       21 0.21631609E-01 0.18141976E+03</pdfrwt>
<totfact> 0.88722010E+04</totfact>
</mgrwt>
</event>
<event>
12    1  0.1029207E-001  0.2289556E+03  0.7546771E-02  0.1127483E+00
         21   -1    0    0  501  502  0.00000000000E+00  0.00000000000E+00  0.18244840746E+03  0.18244840746E+03  0.00000000000E+00 0.  1.
         21   -1    0    0  502  503 -0.00000000000E+00 -0.00000000000E+00 -0.84783215444E+03  0.84783215444E+03  0.00000000000E+00 0.  1.
         -6    2    1    2    0  503  0.11707145537E+03 -0.96788729381E+02 -0.75168017216E+03  0.78560175127E+03  0.17050878742E+03 0.  0.
        -24    2    3    3    0    0  0.10021299298E+03 -0.87342986295E+02 -0.34443747926E+03  0.37787374053E+03  0.80498108374E+02 0.  0.
          6    2    1    2  501    0 -0.11707145537E+03  0.96788729381E+02  0.86296425179E+02  0.24467881063E+03  0.17130926296E+03 0.  0.
         24    2    5    5    0    0 -0.44104654662E+01  0.14531523411E+02  0.14226085438E+02  0.87596123967E+02  0.85088671684E+02 0.  0.
          5    1    5    5  501    0 -0.11266098990E+03  0.82257205970E+02  0.72070339741E+02  0.15708268666E+03  0.47000000000E+01 0. -1.
        -13    1    6    6    0    0 -0.36193213830E+02 -0.26785550275E+01  0.31019195240E+02  0.47742160171E+02  0.00000000000E+00 0.  1.
         14    1    6    6    0    0  0.31782748364E+02  0.17210078439E+02 -0.16793109803E+02  0.39853963796E+02  0.00000000000E+00 0. -1.
         -5    1    3    3    0  503  0.16858462384E+02 -0.94457430856E+01 -0.40724269290E+03  0.40772801074E+03  0.47000000000E+01 0.  1.
         11    1    4    4    0    0  0.16900701396E+02 -0.60014683887E+02 -0.96503115946E+02  0.11489232950E+03  0.00000000000E+00 0. -1.
        -12    1    4    4    0    0  0.83312291586E+02 -0.27328302408E+02 -0.24793436331E+03  0.26298141104E+03  0.00000000000E+00 0.  1.
<mgrwt>
<rscale>  2 0.22880583E+03</rscale>
<asrwt>0</asrwt>
<pdfrwt beam="1">  1       21 0.28068986E-01 0.22895556E+03</pdfrwt>
<pdfrwt beam="2">  1       21 0.13043571E+00 0.22895556E+03</pdfrwt>
<totfact> 0.50535327E+03</totfact>
</mgrwt>
</event>
<event>
12    1  0.1029207E-001  0.2010280E+03  0.7546771E-02  0.1148975E+00
         21   -1    0    0  501  502  0.00000000000E+00  0.00000000000E+00  0.27560103580E+03  0.27560103580E+03  0.00000000000E+00 0. -1.
         21   -1    0    0  502  503 -0.00000000000E+00 -0.00000000000E+00 -0.15080171830E+03  0.15080171830E+03  0.00000000000E+00 0.  1.
         -6    2    1    2    0  503 -0.66253757638E+02  0.76779523849E+02  0.99233994489E+02  0.22375570493E+03  0.17301610949E+03 0.  0.
        -24    2    3    3    0    0 -0.10427092223E+03  0.90274657052E+02  0.86684322479E+02  0.18124679185E+03  0.79462499738E+02 0.  0.
          6    2    1    2  501    0  0.66253757638E+02 -0.76779523849E+02  0.25565323014E+02  0.20264704917E+03  0.17357299650E+03 0.  0.
         24    2    5    5    0    0 -0.12676320005E+02 -0.11433422554E+02  0.51093408009E+02  0.96940648064E+02  0.80594917116E+02 0.  0.
          5    1    5    5  501    0  0.78930077643E+02 -0.65346101295E+02 -0.25528084995E+02  0.10570640111E+03  0.47000000000E+01 0. -1.
        -13    1    6    6    0    0 -0.40369320659E+02 -0.28203651268E+02  0.24290519307E+02  0.54910448218E+02  0.00000000000E+00 0.  1.
         14    1    6    6    0    0  0.27693000654E+02  0.16770228713E+02  0.26802888702E+02  0.42030199846E+02  0.00000000000E+00 0. -1.
         -5    1    3    3    0  503  0.38017164589E+02 -0.13495133202E+02  0.12549672010E+02  0.42508913078E+02  0.47000000000E+01 0.  1.
         13    1    4    4    0    0 -0.20728712330E+02 -0.14249340163E+02  0.17209555916E+02  0.30477729980E+02  0.00000000000E+00 0. -1.
        -14    1    4    4    0    0 -0.83542209897E+02  0.10452399721E+03  0.69474766563E+02  0.15076906187E+03  0.00000000000E+00 0.  1.
<mgrwt>
<rscale>  2 0.20090769E+03</rscale>
<asrwt>0</asrwt>
<pdfrwt beam="1">  1       21 0.42400159E-01 0.20102796E+03</pdfrwt>
<pdfrwt beam="2">  1       21 0.23200264E-01 0.20102796E+03</pdfrwt>
<totfact> 0.93119578E+04</totfact>
</mgrwt>
</event>
<event>
12    1  0.1029207E-001  0.2030540E+03  0.7546771E-02  0.1147561E+00
         21   -1    0    0  501  502  0.00000000000E+00  0.00000000000E+00  0.12193023008E+03  0.12193023008E+03  0.00000000000E+00 0. -1.
         21   -1    0    0  502  503 -0.00000000000E+00 -0.00000000000E+00 -0.12583745775E+04  0.12583745775E+04  0.00000000000E+00 0. -1.
         -6    2    1    2    0  503  0.52687198023E+02  0.89634521156E+02 -0.11586877792E+04  0.11760361168E+04  0.17231741079E+03 0.  0.
        -24    2    3    3    0    0  0.42310219811E+01  0.77358248829E+02 -0.10541430644E+04  0.10600602777E+04  0.80672125879E+02 0.  0.
          6    2    1    2  501    0 -0.52687198023E+02 -0.89634521156E+02  0.22243431833E+02  0.20426869075E+03  0.17441513565E+03 0.  0.
         24    2    5    5    0    0  0.27568897879E+02 -0.84871042859E+02 -0.23220213309E+00  0.12065663554E+03  0.81208569347E+02 0.  0.
          5    1    5    5  501    0 -0.80256095902E+02 -0.47634782972E+01  0.22475633966E+02  0.83612055214E+02  0.47000000000E+01 0. -1.
        -11    1    6    6    0    0 -0.44225021718E+01  0.14752274595E+02  0.40857833442E+01  0.15933667397E+02  0.00000000000E+00 0.  1.
         12    1    6    6    0    0  0.31991400051E+02 -0.99623317454E+02 -0.43179854773E+01  0.10472296814E+03  0.00000000000E+00 0. -1.
         -5    1    3    3    0  503  0.48456176042E+02  0.12276272327E+02 -0.10454471480E+03  0.11597583908E+03  0.47000000000E+01 0.  1.
         11    1    4    4    0    0 -0.30848525413E+02  0.59078407058E+01 -0.36029978647E+03  0.36166624149E+03  0.00000000000E+00 0. -1.
        -12    1    4    4    0    0  0.35079547394E+02  0.71450408123E+02 -0.69384327797E+03  0.69839403623E+03  0.00000000000E+00 0.  1.
<mgrwt>
<rscale>  2 0.20260275E+03</rscale>
<asrwt>0</asrwt>
<pdfrwt beam="1">  1       21 0.18758497E-01 0.20305400E+03</pdfrwt>
<pdfrwt beam="2">  1       21 0.19359609E+00 0.20305400E+03</pdfrwt>
<totfact> 0.38048629E+03</totfact>
</mgrwt>
</event>
<event>
12    1  0.1029207E-001  0.1789778E+03  0.7546771E-02  0.1168830E+00
         21   -1    0    0  501  502  0.00000000000E+00  0.00000000000E+00  0.68217243410E+03  0.68217243410E+03  0.00000000000E+00 0. -1.
         21   -1    0    0  502  503 -0.00000000000E+00 -0.00000000000E+00 -0.13043106797E+03  0.13043106797E+03  0.00000000000E+00 0. -1.
         -6    2    1    2    0  503 -0.29557329821E+02  0.29546734805E+02 -0.49198915549E+02  0.18561676461E+03  0.17402989608E+03 0.  0.
        -24    2    3    3    0    0  0.25153857783E+02 -0.13955085958E+02  0.11488859814E+02  0.92930096001E+02  0.87615910984E+02 0.  0.
          6    2    1    2  501    0  0.29557329821E+02 -0.29546734805E+02  0.60094028168E+03  0.62698673746E+03  0.17388646157E+03 0.  0.
         24    2    5    5    0    0 -0.16451319029E+02  0.36549161489E+02  0.40761649657E+03  0.41750728938E+03  0.80960739311E+02 0.  0.
          5    1    5    5  501    0  0.46008648850E+02 -0.66095896294E+02  0.19332378512E+03  0.20947944808E+03  0.47000000000E+01 0. -1.
        -13    1    6    6    0    0 -0.18635087184E+02  0.13644146345E+01  0.16870264719E+02  0.25174072641E+02  0.00000000000E+00 0.  1.
         14    1    6    6    0    0  0.21837681550E+01  0.35184746855E+02  0.39074623185E+03  0.39233321674E+03  0.00000000000E+00 0. -1.
         -5    1    3    3    0  503 -0.54711187604E+02  0.43501820763E+02 -0.60687775363E+02  0.92686668606E+02  0.47000000000E+01 0.  1.
         13    1    4    4    0    0  0.79885888458E+01  0.16051637154E+02 -0.32418970760E+02  0.37046757918E+02  0.00000000000E+00 0. -1.
        -14    1    4    4    0    0  0.17165268937E+02 -0.30006723112E+02  0.43907830574E+02  0.55883338084E+02  0.00000000000E+00 0.  1.
<mgrwt>
<rscale>  2 0.17894292E+03</rscale>
<asrwt>0</asrwt>
<pdfrwt beam="1">  1       21 0.10494960E+00 0.17897779E+03</pdfrwt>
<pdfrwt beam="2">  1       21 0.20066319E-01 0.17897779E+03</pdfrwt>
<totfact> 0.16929268E+04</totfact>
</mgrwt>
</event>
<event>
12    1  0.1029207E-001  0.1935932E+03  0.7546771E-02  0.1155395E+00
         21   -1    0    0  503  502  0.00000000000E+00  0.00000000000E+00  0.16550489025E+03  0.16550489025E+03  0.00000000000E+00 0. -1.
         21   -1    0    0  501  503 -0.00000000000E+00 -0.00000000000E+00 -0.33478072285E+03  0.33478072285E+03  0.00000000000E+00 0. -1.
          6    2    1    2  501    0  0.61520963412E+02  0.61047758940E+02 -0.22749190196E+03  0.29871538532E+03  0.17310880439E+03 0.  0.
         24    2    3    3    0    0  0.36488021415E+02  0.68122944098E+02 -0.54155083331E+02  0.12337443425E+03  0.79475573328E+02 0.  0.
         -6    2    1    2    0  502 -0.61520963412E+02 -0.61047758940E+02  0.58216069361E+02  0.20157022778E+03  0.17242328202E+03 0.  0.
        -24    2    5    5    0    0 -0.39392912011E+02 -0.10762161344E+03  0.31828112888E+02  0.14345664220E+03  0.80203280652E+02 0.  0.
          5    1    3    3  501    0  0.25032941997E+02 -0.70751851574E+01 -0.17333681863E+03  0.17534095107E+03  0.47000000000E+01 0. -1.
        -13    1    4    4    0    0 -0.66971477288E+01 -0.10245491338E+01  0.15006397605E+02  0.16464915964E+02  0.00000000000E+00 0.  1.
         14    1    4    4    0    0  0.43185169144E+02  0.69147493231E+02 -0.69161480936E+02  0.10690951828E+03  0.00000000000E+00 0. -1.
         -5    1    5    5    0  502 -0.22128051401E+02  0.46573854496E+02  0.26387956474E+02  0.58113585574E+02  0.47000000000E+01 0.  1.
         11    1    6    6    0    0 -0.41804390962E+02 -0.42874889108E+02  0.47921353915E+02  0.76696280097E+02  0.00000000000E+00 0. -1.
        -12    1    6    6    0    0  0.24114789511E+01 -0.64746724328E+02 -0.16093241027E+02  0.66760362107E+02  0.00000000000E+00 0.  1.
<mgrwt>
<rscale>  2 0.19343980E+03</rscale>
<asrwt>0</asrwt>
<pdfrwt beam="1">  1       21 0.25462291E-01 0.19359317E+03</pdfrwt>
<pdfrwt beam="2">  1       21 0.51504726E-01 0.19359317E+03</pdfrwt>
<totfact> 0.52361240E+04</totfact>
</mgrwt>
</event>
<event>
12    1  0.1029207E-001  0.2200674E+03  0.7546771E-02  0.1134077E+00
         21   -1    0    0  501  502  0.00000000000E+00  0.00000000000E+00  0.99644334264E+03  0.99644334264E+03  0.00000000000E+00 0.  1.
         21   -1    0    0  502  503 -0.00000000000E+00 -0.00000000000E+00 -0.70554370229E+02  0.70554370229E+02  0.00000000000E+00 0.  1.
         -6    2    1    2    0  503 -0.10711381397E+03  0.83237381528E+02  0.16436157018E+03  0.27467141523E+03  0.17328539974E+03 0.  0.
        -24    2    3    3    0    0 -0.10726620400E+03  0.43337213306E+02  0.18210641840E+03  0.23075084732E+03  0.81847744860E+02 0.  0.
          6    2    1    2  501    0  0.10711381397E+03 -0.83237381528E+02  0.76152740222E+03  0.79232629764E+03  0.17162501789E+03 0.  0.
         24    2    5    5    0    0  0.34638074232E+02 -0.10544071510E+03  0.39559381837E+03  0.41859484504E+03  0.80060193427E+02 0.  0.
          5    1    5    5  501    0  0.72475739734E+02  0.22203333569E+02  0.36593358385E+03  0.37373145260E+03  0.47000000000E+01 0. -1.
        -13    1    6    6    0    0  0.20263473643E+02 -0.19257427976E+00  0.20803886706E+02  0.29042161611E+02  0.00000000000E+00 0.  1.
         14    1    6    6    0    0  0.14374600590E+02 -0.10524814082E+03  0.37478993166E+03  0.38955268342E+03  0.00000000000E+00 0. -1.
         -5    1    3    3    0  503  0.15239003183E+00  0.39900168221E+02 -0.17744848221E+02  0.43920567906E+02  0.47000000000E+01 0.  1.
         11    1    4    4    0    0  0.79775409358E+01 -0.11022930244E+02  0.11519389571E+02  0.17828137498E+02  0.00000000000E+00 0. -1.
        -12    1    4    4    0    0 -0.11524374493E+03  0.54360143550E+02  0.17058702883E+03  0.21292270982E+03  0.00000000000E+00 0.  1.
<mgrwt>
<rscale>  2 0.21974042E+03</rscale>
<asrwt>0</asrwt>
<pdfrwt beam="1">  1       21 0.15329897E+00 0.22006740E+03</pdfrwt>
<pdfrwt beam="2">  1       21 0.10854519E-01 0.22006740E+03</pdfrwt>
<totfact> 0.19449071E+04</totfact>
</mgrwt>
</event>
<event>
12    1  0.1029207E-001  0.1811892E+03  0.7546771E-02  0.1167200E+00
         21   -1    0    0  501  502  0.00000000000E+00  0.00000000000E+00  0.23005206317E+02  0.23005206317E+02  0.00000000000E+00 0. -1.
         21   -1    0    0  502  503 -0.00000000000E+00 -0.00000000000E+00 -0.21272040620E+04  0.21272040620E+04  0.00000000000E+00 0. -1.
         -6    2    1    2    0  503  0.35853784434E+02 -0.40555152915E+02 -0.16722625708E+04  0.16818093514E+04  0.17055900619E+03 0.  0.
        -24    2    3    3    0    0  0.33142013089E+02  0.41384170285E+02 -0.10693186627E+04  0.10732989960E+04  0.75612761997E+02 0.  0.
          6    2    1    2  501    0 -0.35853784434E+02  0.40555152915E+02 -0.43193628488E+03  0.46839991688E+03  0.17291418001E+03 0.  0.
         24    2    5    5    0    0 -0.44426001494E+02 -0.39081361762E+02 -0.21788630877E+03  0.23980652317E+03  0.80818949255E+02 0.  0.
          5    1    5    5  501    0  0.85722170600E+01  0.79636514677E+02 -0.21404997611E+03  0.22859339371E+03  0.47000000000E+01 0. -1.
        -13    1    6    6    0    0  0.15421986986E+02 -0.14470385690E+02 -0.12723330138E+02  0.24680212203E+02  0.00000000000E+00 0.  1.
         14    1    6    6    0    0 -0.59847988480E+02 -0.24610976072E+02 -0.20516297863E+03  0.21512631096E+03  0.00000000000E+00 0. -1.
         -5    1    3    3    0  503  0.27117713450E+01 -0.81939323200E+02 -0.60294390807E+03  0.60851035543E+03  0.47000000000E+01 0.  1.
         11    1    4    4    0    0  0.36273477349E+02  0.37479446007E+02 -0.10660405811E+04  0.10673157896E+04  0.00000000000E+00 0. -1.
        -12    1    4    4    0    0 -0.31314642599E+01  0.39047242785E+01 -0.32780815551E+01  0.59832063965E+01  0.00000000000E+00 0.  1.
<mgrwt>
<rscale>  2 0.18062502E+03</rscale>
<asrwt>0</asrwt>
<pdfrwt beam="1">  1       21 0.35392620E-02 0.18118920E+03</pdfrwt>
<pdfrwt beam="2">  1       21 0.32726221E+00 0.18118920E+03</pdfrwt>
<totfact> 0.11574802E+04</totfact>
</mgrwt>
</event>
<event>
12    1  0.1029207E-001  0.1852185E+03  0.7546771E-02  0.1163186E+00
         21   -1    0    0  501  502  0.00000000000E+00  0.00000000000E+00  0.21587302087E+03  0.21587302087E+03  0.00000000000E+00 0. -1.
         21   -1    0    0  502  503 -0.00000000000E+00 -0.00000000000E+00 -0.24526273152E+03  0.24526273152E+03  0.00000000000E+00 0. -1.
         -6    2    1    2    0  503  0.59428773985E+02  0.24361005682E+02 -0.15251710544E+03  0.23993197717E+03  0.17372578519E+03 0.  0.
        -24    2    3    3    0    0  0.99018769177E+02 -0.78880840041E+01 -0.94538786701E+02  0.16253076950E+03  0.87245230956E+02 0.  0.
          6    2    1    2  501    0 -0.59428773985E+02 -0.24361005682E+02  0.12312739479E+03  0.22120377522E+03  0.17217873576E+03 0.  0.
         24    2    5    5    0    0 -0.37036058196E+02 -0.82989475234E+02  0.69236438439E+02  0.13834813969E+03  0.78023078262E+02 0.  0.
          5    1    5    5  501    0 -0.22392715789E+02  0.58628469552E+02  0.53890956351E+02  0.82855635529E+02  0.47000000000E+01 0. -1.
        -13    1    6    6    0    0  0.11727614327E+02  0.73922968512E+01 -0.10482413840E+01  0.13902582513E+02  0.00000000000E+00 0.  1.
         14    1    6    6    0    0 -0.48763672523E+02 -0.90381772085E+02  0.70284679823E+02  0.12444555718E+03  0.00000000000E+00 0. -1.
         -5    1    3    3    0  503 -0.39589995192E+02  0.32249089686E+02 -0.57978318743E+02  0.77401207672E+02  0.47000000000E+01 0.  1.
         11    1    4    4    0    0 -0.40821098751E+01  0.18803745892E+02 -0.36454686803E+02  0.41221216266E+02  0.00000000000E+00 0. -1.
        -12    1    4    4    0    0  0.10310087905E+03 -0.26691829896E+02 -0.58084099899E+02  0.12130955323E+03  0.00000000000E+00 0.  1.
<mgrwt>
<rscale>  2 0.18485484E+03</rscale>
<asrwt>0</asrwt>
<pdfrwt beam="1">  1       21 0.33211234E-01 0.18521848E+03</pdfrwt>
<pdfrwt beam="2">  1       21 0.37732728E-01 0.18521848E+03</pdfrwt>
<totfact> 0.59330893E+04</totfact>
</mgrwt>
</event>
<event>
11    1  0.1029207E-001  0.2117045E+03  0.7546771E-02  0.1140554E+00
         21   -1    0    0  501  502  0.00000000000E+00  0.00000000000E+00  0.13338288122E+04  0.13338288122E+04  0.00000000000E+00 0.  1.
         21   -1    0    0  502  503 -0.00000000000E+00 -0.00000000000E+00 -0.48023114032E+02  0.48023114032E+02  0.00000000000E+00 0. -1.
         -6    2    1    2    0  503 -0.95530927145E+02  0.74070838615E+02  0.25902571916E+03  0.33347417314E+03  0.17174997465E+03 0.  0.
        -24    2    3    3    0    0 -0.92629834352E+02 -0.12134085896E+02  0.14419235796E+03  0.18977832701E+03  0.80603071021E+02 0.  0.
          6    2    1    2  501    0  0.95530927145E+02 -0.74070838615E+02  0.10267799790E+04  0.10483777531E+04  0.17379913899E+03 0.  0.
          5    1    5    5  501    0  0.45114362501E+02 -0.14507333523E+02  0.11350613571E+03  0.12309143461E+03  0.47000000000E+01 0. -1.
        -11    1    5    5    0    0  0.81955793099E+02 -0.39628280254E+02  0.81665967736E+03  0.82171782337E+03  0.00000000000E+00 0.  1.
         12    1    5    5    0    0 -0.31539228455E+02 -0.19935224838E+02  0.96614165972E+02  0.10356849515E+03  0.00000000000E+00 0. -1.
         -5    1    3    3    0  503 -0.29010927933E+01  0.86204924511E+02  0.11483336121E+03  0.14369584613E+03  0.47000000000E+01 0.  1.
         11    1    4    4    0    0  0.35892032248E+01 -0.21830412104E+01 -0.82368963633E+01  0.92463241569E+01  0.00000000000E+00 0. -1.
        -12    1    4    4    0    0 -0.96219037577E+02 -0.99510446853E+01  0.15242925432E+03  0.18053200286E+03  0.00000000000E+00 0.  1.
<mgrwt>
<rscale>  2 0.21128348E+03</rscale>
<asrwt>0</asrwt>
<pdfrwt beam="1">  1       21 0.20520440E+00 0.21170448E+03</pdfrwt>
<pdfrwt beam="2">  1       21 0.73881724E-02 0.21170448E+03</pdfrwt>
<totfact> 0.16888565E+04</totfact>
</mgrwt>
</event>
<event>
12    1  0.1029207E-001  0.1803794E+03  0.7546771E-02  0.1167529E+00
         21   -1    0    0  501  502  0.00000000000E+00  0.00000000000E+00  0.48211552018E+02  0.48211552018E+02  0.00000000000E+00 0.  1.
         21   -1    0    0  502  503 -0.00000000000E+00 -0.00000000000E+00 -0.67457049188E+03  0.67457049188E+03  0.00000000000E+00 0. -1.
         -6    2    1    2    0  503  0.32965574655E+01  0.51762301102E+02 -0.29803610784E+03  0.34817209492E+03  0.17236032895E+03 0.  0.
        -24    2    3    3    0    0 -0.28258909077E+00  0.74251739035E+02 -0.97892515673E+02  0.14668231206E+03  0.80120880179E+02 0.  0.
          6    2    1    2  501    0 -0.32965574655E+01 -0.51762301102E+02 -0.32832283202E+03  0.37460994898E+03  0.17276147934E+03 0.  0.
         24    2    5    5    0    0  0.69920582081E+02 -0.62164410992E+01 -0.11931146865E+03  0.14846173452E+03  0.53648188474E+02 0.  0.
          5    1    5    5  501    0 -0.73217139547E+02 -0.45545860003E+02 -0.20901136336E+03  0.22614821446E+03  0.47000000000E+01 0. -1.
        -13    1    6    6    0    0  0.49585093469E+02 -0.18156365688E+02 -0.11191566825E+03  0.12374753294E+03  0.00000000000E+00 0.  1.
         14    1    6    6    0    0  0.20335488612E+02  0.11939924588E+02 -0.73958004072E+01  0.24714201584E+02  0.00000000000E+00 0. -1.
         -5    1    3    3    0  503  0.35791465563E+01 -0.22489437933E+02 -0.20014359217E+03  0.20148978285E+03  0.47000000000E+01 0.  1.
         13    1    4    4    0    0 -0.15382246224E+02  0.78919623946E+02 -0.10244954101E+03  0.13023374753E+03  0.00000000000E+00 0. -1.
        -14    1    4    4    0    0  0.15099657133E+02 -0.46678849110E+01  0.45570253405E+01  0.16448564528E+02  0.00000000000E+00 0.  1.
<mgrwt>
<rscale>  2 0.18028329E+03</rscale>
<asrwt>0</asrwt>
<pdfrwt beam="1">  1       21 0.74171620E-02 0.18037941E+03</pdfrwt>
<pdfrwt beam="2">  1       21 0.10378007E+00 0.18037941E+03</pdfrwt>
<totfact> 0.10334702E+05</totfact>
</mgrwt>
</event>
<event>
12    1  0.1029207E-001  0.2387344E+03  0.7546771E-02  0.1120720E+00
         21   -1    0    0  503  502  0.00000000000E+00  0.00000000000E+00  0.54628572347E+02  0.54628572347E+02  0.00000000000E+00 0. -1.
         21   -1    0    0  501  503 -0.00000000000E+00 -0.00000000000E+00 -0.10801358739E+04  0.10801358739E+04  0.00000000000E+00 0. -1.
          6    2    1    2  501    0 -0.15883647337E+03 -0.39831089802E+02 -0.40449897574E+03  0.46944837255E+03  0.17305147246E+03 0.  0.
         24    2    3    3    0    0 -0.50836416870E+02 -0.64789334583E+02 -0.13405684145E+03  0.17713353510E+03  0.81382144007E+02 0.  0.
         -6    2    1    2    0  502  0.15883647337E+03  0.39831089802E+02 -0.62100832582E+03  0.66531607371E+03  0.17371987858E+03 0.  0.
        -24    2    5    5    0    0  0.17338954093E+03 -0.51377995988E+01 -0.48592385455E+03  0.52212425423E+03  0.80008840404E+02 0.  0.
          5    1    3    3  501    0 -0.10800005650E+03  0.24958244781E+02 -0.27044213430E+03  0.29231483744E+03  0.47000000000E+01 0. -1.
        -13    1    4    4    0    0  0.19567454501E+02 -0.23944709996E+01 -0.37262866201E+02  0.42156137922E+02  0.00000000000E+00 0.  1.
         14    1    4    4    0    0 -0.70403871370E+02 -0.62394863583E+02 -0.96793975247E+02  0.13497739718E+03  0.00000000000E+00 0. -1.
         -5    1    5    5    0  502 -0.14553067556E+02  0.44968889401E+02 -0.13508447127E+03  0.14319181948E+03  0.47000000000E+01 0.  1.
         13    1    6    6    0    0  0.43427040819E+02  0.20125227457E+01 -0.23974273330E+03  0.24365249084E+03  0.00000000000E+00 0. -1.
        -14    1    6    6    0    0  0.12996250011E+03 -0.71503223444E+01 -0.24618112125E+03  0.27847176339E+03  0.00000000000E+00 0.  1.
<mgrwt>
<rscale>  2 0.23861287E+03</rscale>
<asrwt>0</asrwt>
<pdfrwt beam="1">  1       21 0.84043961E-02 0.23873445E+03</pdfrwt>
<pdfrwt beam="2">  1       21 0.16617474E+00 0.23873445E+03</pdfrwt>
<totfact> 0.24294335E+04</totfact>
</mgrwt>
</event>
<event>
12    1  0.1029207E-001  0.2027538E+03  0.7546771E-02  0.1149342E+00
         21   -1    0    0  503  502  0.00000000000E+00  0.00000000000E+00  0.22166950296E+03  0.22166950296E+03  0.00000000000E+00 0. -1.
         21   -1    0    0  501  503 -0.00000000000E+00 -0.00000000000E+00 -0.18836621792E+03  0.18836621792E+03  0.00000000000E+00 0. -1.
          6    2    1    2  501    0  0.46532919850E+02 -0.91680678554E+02  0.65907771176E+02  0.20467715342E+03  0.16425055063E+03 0.  0.
         24    2    3    3    0    0  0.22765831373E+02 -0.21177512437E+02 -0.21954121797E+02  0.89449669012E+02  0.80947450308E+02 0.  0.
         -6    2    1    2    0  502 -0.46532919850E+02  0.91680678554E+02 -0.32604486137E+02  0.20535856746E+03  0.17475247999E+03 0.  0.
        -24    2    5    5    0    0 -0.11262383931E+02  0.10106604405E+03 -0.74396377942E+02  0.14967420690E+03  0.80785893631E+02 0.  0.
          5    1    3    3  501    0  0.23767088477E+02 -0.70503166117E+02  0.87861892973E+02  0.11522748441E+03  0.47000000000E+01 0. -1.
        -13    1    4    4    0    0 -0.97384475858E+01  0.26939861956E+02 -0.73763202771E+01  0.29580460179E+02  0.00000000000E+00 0.  1.
         14    1    4    4    0    0  0.32504278959E+02 -0.48117374393E+02 -0.14577801520E+02  0.59869208833E+02  0.00000000000E+00 0. -1.
         -5    1    5    5    0  502 -0.35270535920E+02 -0.93853654954E+01  0.41791891805E+02  0.55684360553E+02  0.47000000000E+01 0.  1.
         13    1    6    6    0    0 -0.35535269433E+02  0.16792334018E+02 -0.91185802976E+01  0.40347073774E+02  0.00000000000E+00 0. -1.
        -14    1    6    6    0    0  0.24272885503E+02  0.84273710031E+02 -0.65277797644E+02  0.10932713313E+03  0.00000000000E+00 0.  1.
<mgrwt>
<rscale>  2 0.20047090E+03</rscale>
<asrwt>0</asrwt>
<pdfrwt beam="1">  1       21 0.34103000E-01 0.20275376E+03</pdfrwt>
<pdfrwt beam="2">  1       21 0.28979418E-01 0.20275376E+03</pdfrwt>
<totfact> 0.94043319E+04</totfact>
</mgrwt>
</event>
<event>
12    1  0.1029207E-001  0.1852340E+03  0.7546771E-02  0.1162940E+00
         21   -1    0    0  501  502  0.00000000000E+00  0.00000000000E+00  0.49503189622E+03  0.49503189622E+03  0.00000000000E+00 0. -1.
         21   -1    0    0  502  503 -0.00000000000E+00 -0.00000000000E+00 -0.76530538649E+02  0.76530538649E+02  0.00000000000E+00 0. -1.
         -6    2    1    2    0  503  0.55504147520E+02 -0.36871121225E+02  0.29783329444E+03  0.35049140522E+03  0.17233503382E+03 0.  0.
        -24    2    3    3    0    0 -0.13779318296E+02 -0.51523496204E+02  0.24451800067E+03  0.26172485027E+03  0.76591803224E+02 0.  0.
          6    2    1    2  501    0 -0.55504147520E+02  0.36871121225E+02  0.12066806313E+03  0.22107102965E+03  0.17283352892E+03 0.  0.
         24    2    5    5    0    0 -0.92155842979E+02  0.65430727559E+02  0.93591073452E+02  0.16708722408E+03  0.79906019281E+02 0.  0.
          5    1    5    5  501    0  0.36651695459E+02 -0.28559606334E+02  0.27076989680E+02  0.53983805572E+02  0.47000000000E+01 0. -1.
        -11    1    6    6    0    0 -0.20010048519E+01  0.11901525676E+02 -0.12884491125E+02  0.17653907369E+02  0.00000000000E+00 0.  1.
         12    1    6    6    0    0 -0.90154838127E+02  0.53529201882E+02  0.10647556458E+03  0.14943331671E+03  0.00000000000E+00 0. -1.
         -5    1    3    3    0  503  0.69283465816E+02  0.14652374979E+02  0.53315293769E+02  0.88766554950E+02  0.47000000000E+01 0.  1.
         13    1    4    4    0    0  0.18118746940E+02 -0.12505625067E+02  0.14762222321E+02  0.26506656840E+02  0.00000000000E+00 0. -1.
        -14    1    4    4    0    0 -0.31898065235E+02 -0.39017871137E+02  0.22975577835E+03  0.23521819343E+03  0.00000000000E+00 0.  1.
<mgrwt>
<rscale>  2 0.18511759E+03</rscale>
<asrwt>0</asrwt>
<pdfrwt beam="1">  1       21 0.76158751E-01 0.18523396E+03</pdfrwt>
<pdfrwt beam="2">  1       21 0.11773929E-01 0.18523396E+03</pdfrwt>
<totfact> 0.93549873E+04</totfact>
</mgrwt>
</event>
<event>
12    1  0.1029207E-001  0.1965603E+03  0.7546771E-02  0.1152930E+00
         21   -1    0    0  501  502  0.00000000000E+00  0.00000000000E+00  0.61283453260E+03  0.61283453260E+03  0.00000000000E+00 0. -1.
         21   -1    0    0  502  503 -0.00000000000E+00 -0.00000000000E+00 -0.75197809310E+02  0.75197809310E+02  0.00000000000E+00 0.  1.
         -6    2    1    2    0  503 -0.35298134411E+02 -0.83655025573E+02  0.12770603717E+03  0.23341258002E+03  0.17299849417E+03 0.  0.
        -24    2    3    3    0    0  0.52737926641E+02 -0.54637843531E+02  0.48273775121E+02  0.11124908648E+03  0.65417268565E+02 0.  0.
          6    2    1    2  501    0  0.35298134411E+02  0.83655025573E+02  0.40993068613E+03  0.45461976190E+03  0.17433255256E+03 0.  0.
         24    2    5    5    0    0 -0.21012806525E+02 -0.24270653327E+02  0.18144454730E+03  0.19568563925E+03  0.65879761779E+02 0.  0.
          5    1    5    5  501    0  0.56310940936E+02  0.10792567890E+03  0.22848613883E+03  0.25893412265E+03  0.47000000000E+01 0. -1.
        -13    1    6    6    0    0 -0.25449994089E+02 -0.88991622002E+01  0.20300191035E+02  0.33749000623E+02  0.00000000000E+00 0.  1.
         14    1    6    6    0    0  0.44371875641E+01 -0.15371491127E+02  0.16114435627E+03  0.16193663863E+03  0.00000000000E+00 0. -1.
         -5    1    3    3    0  503 -0.88036061052E+02 -0.29017182042E+02  0.79432262045E+02  0.12216349354E+03  0.47000000000E+01 0.  1.
         11    1    4    4    0    0  0.20032713725E+01 -0.38413723280E+02  0.43044428425E+02  0.57727376961E+02  0.00000000000E+00 0. -1.
        -12    1    4    4    0    0  0.50734655269E+02 -0.16224120251E+02  0.52293466967E+01  0.53521709521E+02  0.00000000000E+00 0.  1.
<mgrwt>
<rscale>  2 0.19626410E+03</rscale>
<asrwt>0</asrwt>
<pdfrwt beam="1">  1       21 0.94282233E-01 0.19656032E+03</pdfrwt>
<pdfrwt beam="2">  1       21 0.11568894E-01 0.19656032E+03</pdfrwt>
<totfact> 0.58959060E+04</totfact>
</mgrwt>
</event>
<event>
12    1  0.1029207E-001  0.1749705E+03  0.7546771E-02  0.1172780E+00
         21   -1    0    0  503  502  0.00000000000E+00  0.00000000000E+00  0.37401009055E+03  0.37401009055E+03  0.00000000000E+00 0. -1.
         21   -1    0    0  501  503 -0.00000000000E+00 -0.00000000000E+00 -0.10675687593E+03  0.10675687593E+03  0.00000000000E+00 0. -1.
          6    2    1    2  501    0  0.22645801818E+02  0.17028713197E+02  0.17425494448E+02  0.17576112197E+03  0.17258480445E+03 0.  0.
         24    2    3    3    0    0  0.35125508035E+02  0.60185907907E+02 -0.28685090729E+02  0.11121220573E+03  0.81787379517E+02 0.  0.
         -6    2    1    2    0  502 -0.22645801818E+02 -0.17028713197E+02  0.24982772017E+03  0.30500584450E+03  0.17266113055E+03 0.  0.
        -24    2    5    5    0    0 -0.45431442711E+02  0.17910338098E+02  0.24573791633E+03  0.26283074247E+03  0.79423418888E+02 0.  0.
          5    1    3    3  501    0 -0.12479706218E+02 -0.43157194710E+02  0.46110585177E+02  0.64548916240E+02  0.47000000000E+01 0. -1.
        -11    1    4    4    0    0  0.29662031925E+02  0.71862689831E+02  0.21681411405E+01  0.77773923417E+02  0.00000000000E+00 0.  1.
         12    1    4    4    0    0  0.54634761104E+01 -0.11676781925E+02 -0.30853231869E+02  0.33438282314E+02  0.00000000000E+00 0. -1.
         -5    1    5    5    0  502  0.22785640893E+02 -0.34939051295E+02  0.40898038422E+01  0.42175102037E+02  0.47000000000E+01 0.  1.
         13    1    6    6    0    0 -0.52344179522E+02  0.22337786975E+01  0.76459031300E+02  0.92687034500E+02  0.00000000000E+00 0. -1.
        -14    1    6    6    0    0  0.69127368116E+01  0.15676559401E+02  0.16927888503E+03  0.17014370797E+03  0.00000000000E+00 0.  1.
<mgrwt>
<rscale>  2 0.17495167E+03</rscale>
<asrwt>0</asrwt>
<pdfrwt beam="1">  1       21 0.57540013E-01 0.17497050E+03</pdfrwt>
<pdfrwt beam="2">  1       21 0.16424135E-01 0.17497050E+03</pdfrwt>
<totfact> 0.94848165E+04</totfact>
</mgrwt>
</event>
<event>
12    1  0.1029207E-001  0.2642522E+03  0.7546771E-02  0.1104656E+00
         21   -1    0    0  501  502  0.00000000000E+00  0.00000000000E+00  0.15586425197E+03  0.15586425197E+03  0.00000000000E+00 0.  1.
         21   -1    0    0  502  503 -0.00000000000E+00 -0.00000000000E+00 -0.15813241586E+04  0.15813241586E+04  0.00000000000E+00 0. -1.
         -6    2    1    2    0  503  0.10342934214E+03 -0.17051663793E+03 -0.14481050858E+04  0.14719676836E+04  0.17293631563E+03 0.  0.
        -24    2    3    3    0    0  0.12800664771E+03 -0.87661543732E+02 -0.10611097089E+04  0.10754118586E+04  0.80539450698E+02 0.  0.
          6    2    1    2  501    0 -0.10342934214E+03  0.17051663793E+03  0.22645179177E+02  0.26522072702E+03  0.17336573270E+03 0.  0.
         24    2    5    5    0    0 -0.22404310366E+01  0.14563274598E+03  0.95928231809E+00  0.15868072547E+03  0.62966151055E+02 0.  0.
          5    1    5    5  501    0 -0.10118891110E+03  0.24883891951E+02  0.21685896859E+02  0.10654000156E+03  0.47000000000E+01 0. -1.
        -11    1    6    6    0    0 -0.25378343953E+02  0.11169729239E+03 -0.13048537843E+02  0.11528490712E+03  0.00000000000E+00 0.  1.
         12    1    6    6    0    0  0.23137912916E+02  0.33935453591E+02  0.14007820161E+02  0.43395818349E+02  0.00000000000E+00 0. -1.
         -5    1    3    3    0  503 -0.24577305571E+02 -0.82855094201E+02 -0.38699537694E+03  0.39655582502E+03  0.47000000000E+01 0.  1.
         13    1    4    4    0    0  0.67184000925E+02 -0.82727739334E+02 -0.51553553207E+03  0.52643561207E+03  0.00000000000E+00 0. -1.
        -14    1    4    4    0    0  0.60822646787E+02 -0.49338043972E+01 -0.54557417683E+03  0.54897624650E+03  0.00000000000E+00 0.  1.
<mgrwt>
<rscale>  2 0.26418180E+03</rscale>
<asrwt>0</asrwt>
<pdfrwt beam="1">  1       21 0.23979117E-01 0.26425221E+03</pdfrwt>
<pdfrwt beam="2">  1       21 0.24328063E+00 0.26425221E+03</pdfrwt>
<totfact> 0.11094455E+03</totfact>
</mgrwt>
</event>
<event>
12    1  0.1029207E-001  0.2453977E+03  0.7546771E-02  0.1117058E+00
         21   -1    0    0  503  502  0.00000000000E+00  0.00000000000E+00  0.31542781093E+03  0.31542781093E+03  0.00000000000E+00 0. -1.
         21   -1    0    0  501  503 -0.00000000000E+00 -0.00000000000E+00 -0.25131410498E+03  0.25131410498E+03  0.00000000000E+00 0. -1.
          6    2    1    2  501    0 -0.16363508198E+03  0.63040756089E+02 -0.11143619129E+03  0.26501723806E+03  0.16451606231E+03 0.  0.
         24    2    3    3    0    0 -0.87228642304E+02  0.10038842817E+03 -0.68209338925E+02  0.16950052016E+03  0.79945230440E+02 0.  0.
         -6    2    1    2    0  502  0.16363508198E+03 -0.63040756089E+02  0.17554989724E+03  0.30172467785E+03  0.17166664737E+03 0.  0.
        -24    2    5    5    0    0  0.18718293642E+03 -0.64923227972E+02  0.17699425416E+03  0.27759541520E+03  0.80497026754E+02 0.  0.
          5    1    3    3  501    0 -0.76406439673E+02 -0.37347672078E+02 -0.43226852369E+02  0.95516717903E+02  0.47000000000E+01 0. -1.
        -11    1    4    4    0    0  0.11113384065E+02 -0.24371834340E+01 -0.11948061030E+02  0.16498585723E+02  0.00000000000E+00 0.  1.
         12    1    4    4    0    0 -0.98342026369E+02  0.10282561160E+03 -0.56261277894E+02  0.15300193444E+03  0.00000000000E+00 0. -1.
         -5    1    5    5    0  502 -0.23547854440E+02  0.18824718829E+01 -0.14443569242E+01  0.24129262650E+02  0.47000000000E+01 0.  1.
         11    1    6    6    0    0  0.11864440427E+03 -0.13452822081E+02  0.14063985189E+03  0.18449130339E+03  0.00000000000E+00 0. -1.
        -12    1    6    6    0    0  0.68538532142E+02 -0.51470405890E+02  0.36354402275E+02  0.93104111808E+02  0.00000000000E+00 0.  1.
<mgrwt>
<rscale>  2 0.24415124E+03</rscale>
<asrwt>0</asrwt>
<pdfrwt beam="1">  1       21 0.48527355E-01 0.24539767E+03</pdfrwt>
<pdfrwt beam="2">  1       21 0.38663709E-01 0.24539767E+03</pdfrwt>
<totfact> 0.25443862E+04</totfact>
</mgrwt>
</event>
<event>
11    1  0.1029207E-001  0.2409852E+03  0.7546771E-02  0.1119344E+00
         21   -1    0    0  501  502  0.00000000000E+00  0.00000000000E+00  0.23987880135E+03  0.23987880135E+03  0.00000000000E+00 0.  1.
         21   -1    0    0  502  503 -0.00000000000E+00 -0.00000000000E+00 -0.24127517723E+03  0.24127517723E+03  0.00000000000E+00 0.  1.
         -6    2    1    2    0  503 -0.15096061117E+03 -0.70948060914E+02  0.93832138766E+01  0.24116779994E+03  0.17392851852E+03 0.  0.
          6    2    1    2  501    0  0.15096061117E+03  0.70948060914E+02 -0.10779589750E+02  0.23998617864E+03  0.17220462512E+03 0.  0.
         24    2    4    4    0    0  0.41663022829E+02  0.74960946674E+02 -0.45596208959E+02  0.12511079816E+03  0.78859029581E+02 0.  0.
          5    1    4    4  501    0  0.10929758834E+03 -0.40128857597E+01  0.34816619209E+02  0.11487538049E+03  0.47000000000E+01 0. -1.
        -13    1    5    5    0    0  0.49350416012E+02  0.13133939949E+02 -0.35005335275E+02  0.61913951876E+02  0.00000000000E+00 0.  1.
         14    1    5    5    0    0 -0.76873931822E+01  0.61827006725E+02 -0.10590873683E+02  0.63196846281E+02  0.00000000000E+00 0. -1.
         -5    1    3    3    0  503 -0.13583490976E+03  0.10845588027E+02  0.48509522683E+02  0.14472046600E+03  0.47000000000E+01 0.  1.
         13    1    3    3    0    0 -0.19218818642E+02 -0.36160392718E+02 -0.99905935833E+01  0.42151499993E+02  0.00000000000E+00 0. -1.
        -14    1    3    3    0    0  0.40931172320E+01 -0.45633256223E+02 -0.29135715223E+02  0.54295833945E+02  0.00000000000E+00 0.  1.
<mgrwt>
<rscale>  2 0.24067428E+03</rscale>
<asrwt>0</asrwt>
<pdfrwt beam="1">  1       21 0.36904431E-01 0.24098519E+03</pdfrwt>
<pdfrwt beam="2">  1       21 0.37119258E-01 0.24098519E+03</pdfrwt>
<totfact> 0.48487976E+04</totfact>
</mgrwt>
</event>
<event>
12    1  0.1029207E-001  0.1913305E+03  0.7546771E-02  0.1157267E+00
         21   -1    0    0  501  502  0.00000000000E+00  0.00000000000E+00  0.18717344260E+04  0.18717344260E+04  0.00000000000E+00 0. -1.
         21   -1    0    0  502  503 -0.00000000000E+00 -0.00000000000E+00 -0.22554724524E+02  0.22554724524E+02  0.00000000000E+00 0.  1.
         -6    2    1    2    0  503  0.70568115100E+02  0.37306193183E+02  0.57934759978E+03  0.61012375025E+03  0.17388426706E+03 0.  0.
        -24    2    3    3    0    0 -0.13025212419E+02  0.38031973750E+02  0.41962721610E+03  0.42978778012E+03  0.83752302993E+02 0.  0.
          6    2    1    2  501    0 -0.70568115100E+02 -0.37306193183E+02  0.12698321017E+04  0.12841654003E+04  0.17388386307E+03 0.  0.
         24    2    5    5    0    0  0.47090422752E+00  0.37143902485E+02  0.57338661340E+03  0.58014283872E+03  0.80085040072E+02 0.  0.
          5    1    5    5  501    0 -0.71039019328E+02 -0.74450095668E+02  0.69644548831E+03  0.70402256157E+03  0.47000000000E+01 0. -1.
        -11    1    6    6    0    0  0.39737265837E+02  0.16538271543E+02  0.32369610844E+03  0.32654515054E+03  0.00000000000E+00 0.  1.
         12    1    6    6    0    0 -0.39266361610E+02  0.20605630942E+02  0.24969050496E+03  0.25359768818E+03  0.00000000000E+00 0. -1.
         -5    1    3    3    0  503  0.83593327519E+02 -0.72578056776E+00  0.15972038367E+03  0.18033597013E+03  0.47000000000E+01 0.  1.
         13    1    4    4    0    0  0.74885326624E+01  0.16655645188E+02  0.37934135308E+03  0.37978066142E+03  0.00000000000E+00 0. -1.
        -14    1    4    4    0    0 -0.20513745081E+02  0.21376328562E+02  0.40285863027E+02  0.50007118692E+02  0.00000000000E+00 0.  1.
<mgrwt>
<rscale>  2 0.19133038E+03</rscale>
<asrwt>0</asrwt>
<pdfrwt beam="1">  1       21 0.28795902E+00 0.19133047E+03</pdfrwt>
<pdfrwt beam="2">  1       21 0.34699591E-02 0.19133047E+03</pdfrwt>
<totfact> 0.19922757E+04</totfact>
</mgrwt>
</event>
<event>
12    1  0.1029207E-001  0.2002315E+03  0.7546771E-02  0.1149895E+00
         21   -1    0    0  501  502  0.00000000000E+00  0.00000000000E+00  0.14149195659E+03  0.14149195659E+03  0.00000000000E+00 0.  1.
         21   -1    0    0  502  503 -0.00000000000E+00 -0.00000000000E+00 -0.31060579202E+03  0.31060579202E+03  0.00000000000E+00 0. -1.
         -6    2    1    2    0  503  0.97959868684E+02 -0.37174881358E+01 -0.15401403846E+03  0.25129771390E+03  0.17268544055E+03 0.  0.
        -24    2    3    3    0    0  0.13039673331E+03 -0.26619489020E+02 -0.13827868013E+03  0.20832861648E+03  0.81042666628E+02 0.  0.
          6    2    1    2  501    0 -0.97959868684E+02  0.37174881358E+01 -0.15099796968E+02  0.20080003471E+03  0.17459293938E+03 0.  0.
         24    2    5    5    0    0 -0.63275709994E+02  0.58639591584E+02  0.29560175638E+02  0.12183148740E+03  0.80787933266E+02 0.  0.
          5    1    5    5  501    0 -0.34684158690E+02 -0.54922103448E+02 -0.44659972606E+02  0.78968547311E+02  0.47000000000E+01 0. -1.
        -11    1    6    6    0    0 -0.33499565165E+02 -0.15910079789E+02  0.16121088412E+02  0.40438113170E+02  0.00000000000E+00 0.  1.
         12    1    6    6    0    0 -0.29776144829E+02  0.74549671373E+02  0.13439087226E+02  0.81393374228E+02  0.00000000000E+00 0. -1.
         -5    1    3    3    0  503 -0.32436864626E+02  0.22902000884E+02 -0.15735358336E+02  0.42969097421E+02  0.47000000000E+01 0.  1.
         11    1    4    4    0    0  0.16588266469E+02 -0.26019949090E+02 -0.67724843996E+02  0.74423536797E+02  0.00000000000E+00 0. -1.
        -12    1    4    4    0    0  0.11380846684E+03 -0.59953993024E+00 -0.70553836132E+02  0.13390507969E+03  0.00000000000E+00 0.  1.
<mgrwt>
<rscale>  2 0.19981493E+03</rscale>
<asrwt>0</asrwt>
<pdfrwt beam="1">  1       21 0.21767994E-01 0.20023149E+03</pdfrwt>
<pdfrwt beam="2">  1       21 0.47785506E-01 0.20023149E+03</pdfrwt>
<totfact> 0.82177161E+04</totfact>
</mgrwt>
</event>
<event>
12    1  0.1029207E-001  0.1811137E+03  0.7546771E-02  0.1167471E+00
         21   -1    0    0  503  502  0.00000000000E+00  0.00000000000E+00  0.55419865719E+03  0.55419865719E+03  0.00000000000E+00 0. -1.
         21   -1    0    0  501  503 -0.00000000000E+00 -0.00000000000E+00 -0.90039677398E+02  0.90039677398E+02  0.00000000000E+00 0.  1.
          6    2    1    2  501    0 -0.14751635208E+02  0.41260462880E+02  0.41787827189E+02  0.18587195039E+03  0.17573310133E+03 0.  0.
         24    2    3    3    0    0  0.54811845218E+01  0.86422625483E+02 -0.12816001891E+01  0.12009920908E+03  0.83206153273E+02 0.  0.
         -6    2    1    2    0  502  0.14751635208E+02 -0.41260462880E+02  0.42237115260E+03  0.45836638420E+03  0.17257553440E+03 0.  0.
        -24    2    5    5    0    0  0.19339787352E+02  0.40200802751E+02  0.27423519548E+03  0.28918204470E+03  0.80194642096E+02 0.  0.
          5    1    3    3  501    0 -0.20232819730E+02 -0.45162162603E+02  0.43069427379E+02  0.65772741314E+02  0.47000000000E+01 0. -1.
        -11    1    4    4    0    0  0.26985303682E+02  0.27188187797E+02  0.31014816272E+02  0.49288162868E+02  0.00000000000E+00 0.  1.
         12    1    4    4    0    0 -0.21504119160E+02  0.59234437686E+02 -0.32296416461E+02  0.70811046208E+02  0.00000000000E+00 0. -1.
         -5    1    5    5    0  502 -0.45881521441E+01 -0.81461265631E+02  0.14813595712E+03  0.16918433949E+03  0.47000000000E+01 0.  1.
         11    1    6    6    0    0 -0.89795317950E+01 -0.57399442964E+01  0.18204807954E+03  0.18235976041E+03  0.00000000000E+00 0. -1.
        -12    1    6    6    0    0  0.28319319147E+02  0.45940747047E+02  0.92187115938E+02  0.10682228429E+03  0.00000000000E+00 0.  1.
<mgrwt>
<rscale>  2 0.18034323E+03</rscale>
<asrwt>0</asrwt>
<pdfrwt beam="1">  1       21 0.85261330E-01 0.18111366E+03</pdfrwt>
<pdfrwt beam="2">  1       21 0.13852258E-01 0.18111366E+03</pdfrwt>
<totfact> 0.54229309E+04</totfact>
</mgrwt>
</event>
<event>
12    1  0.1029207E-001  0.2299670E+03  0.7546771E-02  0.1127258E+00
         21   -1    0    0  503  502  0.00000000000E+00  0.00000000000E+00  0.18335529285E+03  0.18335529285E+03  0.00000000000E+00 0. -1.
         21   -1    0    0  501  503 -0.00000000000E+00 -0.00000000000E+00 -0.36487113494E+03  0.36487113494E+03  0.00000000000E+00 0.  1.
          6    2    1    2  501    0  0.49270807445E+02 -0.13752397944E+03 -0.22013782030E+03  0.31834806443E+03  0.17760735574E+03 0.  0.
         24    2    3    3    0    0  0.64128168901E+02 -0.15380071945E+03 -0.13024141825E+03  0.22567052371E+03  0.78722772381E+02 0.  0.
         -6    2    1    2    0  502 -0.49270807445E+02  0.13752397944E+03  0.38621978208E+02  0.22987836335E+03  0.17323956635E+03 0.  0.
        -24    2    5    5    0    0 -0.65850867884E+02  0.24873179828E+02  0.45758211630E+02  0.11569378959E+03  0.79600421747E+02 0.  0.
          5    1    3    3  501    0 -0.14857361456E+02  0.16276740004E+02 -0.89896402044E+02  0.92677540726E+02  0.47000000000E+01 0. -1.
        -13    1    4    4    0    0  0.81129183103E+02 -0.13548377095E+03 -0.10216905742E+03  0.18808591876E+03  0.00000000000E+00 0.  1.
         14    1    4    4    0    0 -0.17001014202E+02 -0.18316948501E+02 -0.28072360832E+02  0.37584604947E+02  0.00000000000E+00 0. -1.
         -5    1    5    5    0  502  0.16580060438E+02  0.11265079962E+03 -0.71362334218E+01  0.11418457377E+03  0.47000000000E+01 0.  1.
         11    1    6    6    0    0  0.10795356491E+02  0.12535875507E+02  0.33143259531E+02  0.37042725991E+02  0.00000000000E+00 0. -1.
        -12    1    6    6    0    0 -0.76646224374E+02  0.12337304321E+02  0.12614952099E+02  0.78651063599E+02  0.00000000000E+00 0.  1.
<mgrwt>
<rscale>  2 0.22912331E+03</rscale>
<asrwt>0</asrwt>
<pdfrwt beam="1">  1       21 0.28208507E-01 0.22996702E+03</pdfrwt>
<pdfrwt beam="2">  1       21 0.56134021E-01 0.22996702E+03</pdfrwt>
<totfact> 0.35204659E+04</totfact>
</mgrwt>
</event>
<event>
12    1  0.1029207E-001  0.2368950E+03  0.7546771E-02  0.1122788E+00
         21   -1    0    0  501  502  0.00000000000E+00  0.00000000000E+00  0.13496821611E+04  0.13496821611E+04  0.00000000000E+00 0. -1.
         21   -1    0    0  502  503 -0.00000000000E+00 -0.00000000000E+00 -0.40714395058E+02  0.40714395058E+02  0.00000000000E+00 0.  1.
         -6    2    1    2    0  503 -0.18813115225E+02 -0.15400875812E+03  0.63499280192E+03  0.67774266135E+03  0.17901571338E+03 0.  0.
        -24    2    3    3    0    0  0.31830496735E+02 -0.16455690130E+03  0.49100644424E+03  0.52467339613E+03  0.78119716036E+02 0.  0.
          6    2    1    2  501    0  0.18813115225E+02  0.15400875812E+03  0.67397496414E+03  0.71265389483E+03  0.17193222689E+03 0.  0.
         24    2    5    5    0    0 -0.51130837340E+02  0.59781453083E+02  0.34004243132E+03  0.35867088960E+03  0.82630304897E+02 0.  0.
          5    1    5    5  501    0  0.69943952565E+02  0.94227305041E+02  0.33393253282E+03  0.35398300523E+03  0.47000000000E+01 0. -1.
        -13    1    6    6    0    0  0.20310821883E+02  0.30814444951E+02  0.11686808178E+03  0.12255695836E+03  0.00000000000E+00 0.  1.
         14    1    6    6    0    0 -0.71441659223E+02  0.28967008131E+02  0.22317434954E+03  0.23611393124E+03  0.00000000000E+00 0. -1.
         -5    1    3    3    0  503 -0.50643611960E+02  0.10548143173E+02  0.14398635768E+03  0.15306926522E+03  0.47000000000E+01 0.  1.
         13    1    4    4    0    0  0.11726055261E+02 -0.35376488959E+02  0.22734000251E+03  0.23037463638E+03  0.00000000000E+00 0. -1.
        -14    1    4    4    0    0  0.20104441474E+02 -0.12918041234E+03  0.26366644173E+03  0.29429875975E+03  0.00000000000E+00 0.  1.
<mgrwt>
<rscale>  2 0.23555716E+03</rscale>
<asrwt>0</asrwt>
<pdfrwt beam="1">  1       21 0.20764337E+00 0.23689503E+03</pdfrwt>
<pdfrwt beam="2">  1       21 0.62637541E-02 0.23689503E+03</pdfrwt>
<totfact> 0.21305420E+04</totfact>
</mgrwt>
</event>
<event>
12    1  0.1029207E-001  0.2363551E+03  0.7546771E-02  0.1122258E+00
         21   -1    0    0  503  502  0.00000000000E+00  0.00000000000E+00  0.67848984513E+03  0.67848984513E+03  0.00000000000E+00 0. -1.
         21   -1    0    0  501  503 -0.00000000000E+00 -0.00000000000E+00 -0.83518621276E+02  0.83518621276E+02  0.00000000000E+00 0.  1.
          6    2    1    2  501    0 -0.77577947395E+02  0.14095482605E+03  0.34338802852E+03  0.41686819864E+03  0.17313912325E+03 0.  0.
         24    2    3    3    0    0 -0.89682792659E+02  0.11023087091E+03  0.34671219611E+03  0.38334762602E+03  0.80945705539E+02 0.  0.
         -6    2    1    2    0  502  0.77577947395E+02 -0.14095482605E+03  0.25158319534E+03  0.34514026777E+03  0.17303496569E+03 0.  0.
        -24    2    5    5    0    0  0.84339077861E+02 -0.14937398810E+03  0.26604073012E+03  0.32649340512E+03  0.79966274920E+02 0.  0.
          5    1    3    3  501    0  0.12104845264E+02  0.30723955137E+02 -0.33241675945E+01  0.33520572613E+02  0.47000000000E+01 0. -1.
        -11    1    4    4    0    0 -0.39934853310E+02 -0.91832239278E+00  0.62877321799E+02  0.74492908532E+02  0.00000000000E+00 0.  1.
         12    1    4    4    0    0 -0.49747939349E+02  0.11114919330E+03  0.28383487431E+03  0.30885471749E+03  0.00000000000E+00 0. -1.
         -5    1    5    5    0  502 -0.67611304659E+01  0.84191620547E+01 -0.14457534782E+02  0.18646862655E+02  0.47000000000E+01 0.  1.
         11    1    6    6    0    0  0.20124158331E+02  0.32909824773E+01  0.52018608470E+02  0.55872604569E+02  0.00000000000E+00 0. -1.
        -12    1    6    6    0    0  0.64214919530E+02 -0.15266497058E+03  0.21402212165E+03  0.27062080055E+03  0.00000000000E+00 0.  1.
<mgrwt>
<rscale>  2 0.23633608E+03</rscale>
<asrwt>0</asrwt>
<pdfrwt beam="1">  1       21 0.10438305E+00 0.23635515E+03</pdfrwt>
<pdfrwt beam="2">  1       21 0.12849019E-01 0.23635515E+03</pdfrwt>
<totfact> 0.37608850E+04</totfact>
</mgrwt>
</event>
<event>
12    1  0.1029207E-001  0.2226736E+03  0.7546771E-02  0.1132136E+00
         21   -1    0    0  501  502  0.00000000000E+00  0.00000000000E+00  0.25921699424E+03  0.25921699424E+03  0.00000000000E+00 0. -1.
         21   -1    0    0  502  503 -0.00000000000E+00 -0.00000000000E+00 -0.24575836021E+03  0.24575836021E+03  0.00000000000E+00 0.  1.
         -6    2    1    2    0  503 -0.13920381747E+03 -0.14982452530E+02 -0.11329712610E+03  0.24983949808E+03  0.17315126144E+03 0.  0.
        -24    2    3    3    0    0 -0.13730095904E+03  0.44035749549E+02 -0.81535243513E+02  0.18262583703E+03  0.76899283649E+02 0.  0.
          6    2    1    2  501    0  0.13920381747E+03  0.14982452530E+02  0.12675576013E+03  0.25513585637E+03  0.17153747636E+03 0.  0.
         24    2    5    5    0    0  0.28701225816E+02  0.37430729826E+02  0.10363317710E+03  0.13993389561E+03  0.81343960109E+02 0.  0.
          5    1    5    5  501    0  0.11050259166E+03 -0.22448277297E+02  0.23122583030E+02  0.11520196076E+03  0.47000000000E+01 0. -1.
        -11    1    6    6    0    0  0.34433825387E+02  0.15271630273E+02  0.42017525981E+01  0.37902054652E+02  0.00000000000E+00 0.  1.
         12    1    6    6    0    0 -0.57325995704E+01  0.22159099553E+02  0.99431424502E+02  0.10203184096E+03  0.00000000000E+00 0. -1.
         -5    1    3    3    0  503 -0.19028584367E+01 -0.59018202079E+02 -0.31761882585E+02  0.67213661053E+02  0.47000000000E+01 0.  1.
         11    1    4    4    0    0 -0.42895264996E+02 -0.21854263612E+02 -0.20541038289E+02  0.52340680652E+02  0.00000000000E+00 0. -1.
        -12    1    4    4    0    0 -0.94405694039E+02  0.65890013161E+02 -0.60994205224E+02  0.13028515638E+03  0.00000000000E+00 0.  1.
<mgrwt>
<rscale>  2 0.22235981E+03</rscale>
<asrwt>0</asrwt>
<pdfrwt beam="1">  1       21 0.39879537E-01 0.22267361E+03</pdfrwt>
<pdfrwt beam="2">  1       21 0.37808979E-01 0.22267361E+03</pdfrwt>
<totfact> 0.40281665E+04</totfact>
</mgrwt>
</event>
<event>
12    1  0.1029207E-001  0.2211533E+03  0.7546771E-02  0.1133030E+00
         21   -1    0    0  501  502  0.00000000000E+00  0.00000000000E+00  0.34120130411E+03  0.34120130411E+03  0.00000000000E+00 0.  1.
         21   -1    0    0  502  503 -0.00000000000E+00 -0.00000000000E+00 -0.34164295588E+03  0.34164295588E+03  0.00000000000E+00 0.  1.
         -6    2    1    2    0  503 -0.10571117094E+02  0.13750290459E+03 -0.26034493765E+03  0.34159663945E+03  0.17288718933E+03 0.  0.
        -24    2    3    3    0    0 -0.59874098817E+02  0.60786295171E+02 -0.90766430194E+02  0.14899554298E+03  0.81738886637E+02 0.  0.
          6    2    1    2  501    0  0.10571117094E+02 -0.13750290459E+03  0.25990328588E+03  0.34124762054E+03  0.17286244018E+03 0.  0.
         24    2    5    5    0    0  0.18016578256E+02 -0.79783066457E+02  0.53225030431E+02  0.12648029090E+03  0.80463813827E+02 0.  0.
          5    1    5    5  501    0 -0.74454611617E+01 -0.57719838136E+02  0.20667825545E+03  0.21476732964E+03  0.47000000000E+01 0. -1.
        -13    1    6    6    0    0 -0.39241156074E+01 -0.54671362654E+02  0.70198249417E+02  0.89062622906E+02  0.00000000000E+00 0.  1.
         14    1    6    6    0    0  0.21940693863E+02 -0.25111703803E+02 -0.16973218986E+02  0.37417667990E+02  0.00000000000E+00 0. -1.
         -5    1    3    3    0  503  0.49302981723E+02  0.76716609421E+02 -0.16957850746E+03  0.19260109646E+03  0.47000000000E+01 0.  1.
         13    1    4    4    0    0 -0.29474650472E+02 -0.91534961674E+01 -0.58595668309E+02  0.66226836381E+02  0.00000000000E+00 0. -1.
        -14    1    4    4    0    0 -0.30399448345E+02  0.69939791338E+02 -0.32170761885E+02  0.82768706601E+02  0.00000000000E+00 0.  1.
<mgrwt>
<rscale>  2 0.22114845E+03</rscale>
<asrwt>0</asrwt>
<pdfrwt beam="1">  1       21 0.52492508E-01 0.22115329E+03</pdfrwt>
<pdfrwt beam="2">  1       21 0.52560455E-01 0.22115329E+03</pdfrwt>
<totfact> 0.11596742E+04</totfact>
</mgrwt>
</event>
<event>
12    1  0.1029207E-001  0.2079404E+03  0.7546771E-02  0.1143459E+00
         21   -1    0    0  501  502  0.00000000000E+00  0.00000000000E+00  0.10042087842E+03  0.10042087842E+03  0.00000000000E+00 0. -1.
         21   -1    0    0  502  503 -0.00000000000E+00 -0.00000000000E+00 -0.13288459404E+04  0.13288459404E+04  0.00000000000E+00 0. -1.
         -6    2    1    2    0  503  0.10970318285E+03  0.26596877933E+02 -0.12032062597E+04  0.12210423918E+04  0.17463400874E+03 0.  0.
        -24    2    3    3    0    0  0.14036752136E+03  0.29392947562E+01 -0.80587895385E+03  0.82180429135E+03  0.78801805249E+02 0.  0.
          6    2    1    2  501    0 -0.10970318285E+03 -0.26596877933E+02 -0.25218802333E+02  0.20822442704E+03  0.17314514657E+03 0.  0.
         24    2    5    5    0    0 -0.27790233948E+02  0.36210671004E+02  0.22401605466E+02  0.94451351841E+02  0.79597211884E+02 0.  0.
          5    1    5    5  501    0 -0.81912948900E+02 -0.62807548938E+02 -0.47620407798E+02  0.11377307520E+03  0.47000000000E+01 0. -1.
        -13    1    6    6    0    0 -0.10848979552E+02  0.11413882336E+02 -0.30098312426E+02  0.33968889858E+02  0.00000000000E+00 0.  1.
         14    1    6    6    0    0 -0.16941254396E+02  0.24796788668E+02  0.52499917892E+02  0.60482461982E+02  0.00000000000E+00 0. -1.
         -5    1    3    3    0  503 -0.30664338517E+02  0.23657583177E+02 -0.39732730585E+03  0.39923810048E+03  0.47000000000E+01 0.  1.
         11    1    4    4    0    0  0.38805704603E+02  0.35699163650E+02 -0.32285909627E+03  0.32713652966E+03  0.00000000000E+00 0. -1.
        -12    1    4    4    0    0  0.10156181676E+03 -0.32759868894E+02 -0.48301985758E+03  0.49466776168E+03  0.00000000000E+00 0.  1.
<mgrwt>
<rscale>  2 0.20762752E+03</rscale>
<asrwt>0</asrwt>
<pdfrwt beam="1">  1       21 0.15449366E-01 0.20794042E+03</pdfrwt>
<pdfrwt beam="2">  1       21 0.20443784E+00 0.20794042E+03</pdfrwt>
<totfact> 0.46103501E+03</totfact>
</mgrwt>
</event>
<event>
12    1  0.1029207E-001  0.1880279E+03  0.7546771E-02  0.1160315E+00
         21   -1    0    0  503  502  0.00000000000E+00  0.00000000000E+00  0.11658145431E+03  0.11658145431E+03  0.00000000000E+00 0. -1.
         21   -1    0    0  501  503 -0.00000000000E+00 -0.00000000000E+00 -0.30530504385E+03  0.30530504385E+03  0.00000000000E+00 0. -1.
          6    2    1    2  501    0  0.60502685437E+02 -0.38217581224E+02 -0.75242485865E+02  0.20226765409E+03  0.17357884017E+03 0.  0.
         24    2    3    3    0    0 -0.87796673939E+01  0.29723917503E+02 -0.13363185201E+02  0.87084193851E+02  0.80277570147E+02 0.  0.
         -6    2    1    2    0  502 -0.60502685437E+02  0.38217581224E+02 -0.11348110368E+03  0.21961884407E+03  0.17387730537E+03 0.  0.
        -24    2    5    5    0    0 -0.59933891453E+02  0.75782754774E+02 -0.31133963871E+02  0.12898437368E+03  0.79577306314E+02 0.  0.
          5    1    3    3  501    0  0.69282352831E+02 -0.67941498727E+02 -0.61879300664E+02  0.11518346024E+03  0.47000000000E+01 0. -1.
        -13    1    4    4    0    0  0.14158998236E+02  0.48946068305E+02 -0.22633281803E+02  0.55753567408E+02  0.00000000000E+00 0.  1.
         14    1    4    4    0    0 -0.22938665630E+02 -0.19222150802E+02  0.92700966020E+01  0.31330626443E+02  0.00000000000E+00 0. -1.
         -5    1    5    5    0  502 -0.56879398320E+00 -0.37565173550E+02 -0.82347139805E+02  0.90634470399E+02  0.47000000000E+01 0.  1.
         11    1    6    6    0    0 -0.47499945433E+02  0.47541514044E+02  0.19245570404E+02  0.69905882112E+02  0.00000000000E+00 0. -1.
        -12    1    6    6    0    0 -0.12433946021E+02  0.28241240730E+02 -0.50379534275E+02  0.59078491563E+02  0.00000000000E+00 0.  1.
<mgrwt>
<rscale>  2 0.18795883E+03</rscale>
<asrwt>0</asrwt>
<pdfrwt beam="1">  1       21 0.17935608E-01 0.18802786E+03</pdfrwt>
<pdfrwt beam="2">  1       21 0.46970007E-01 0.18802786E+03</pdfrwt>
<totfact> 0.12281152E+05</totfact>
</mgrwt>
</event>
<event>
12    1  0.1029207E-001  0.2147759E+03  0.7546771E-02  0.1138269E+00
         21   -1    0    0  503  502  0.00000000000E+00  0.00000000000E+00  0.26820216185E+02  0.26820216185E+02  0.00000000000E+00 0. -1.
         21   -1    0    0  501  503 -0.00000000000E+00 -0.00000000000E+00 -0.17116030753E+04  0.17116030753E+04  0.00000000000E+00 0. -1.
          6    2    1    2  501    0  0.30799307062E+02  0.12071540818E+03 -0.91137607211E+03  0.93634129628E+03  0.17495105380E+03 0.  0.
         24    2    3    3    0    0 -0.28091091512E+02  0.93098242695E+02 -0.36952209444E+03  0.39057705232E+03  0.80916397004E+02 0.  0.
         -6    2    1    2    0  502 -0.30799307062E+02 -0.12071540818E+03 -0.77340678699E+03  0.80208199518E+03  0.17221109649E+03 0.  0.
        -24    2    5    5    0    0  0.26897566021E+02 -0.34155437914E+02 -0.25877838671E+03  0.27702386699E+03  0.88802570088E+02 0.  0.
          5    1    3    3  501    0  0.58890398574E+02  0.27617165483E+02 -0.54185397767E+03  0.54576424396E+03  0.47000000000E+01 0. -1.
        -11    1    4    4    0    0 -0.48518822906E+02  0.53096506575E+02 -0.29433293685E+03  0.30299371760E+03  0.00000000000E+00 0.  1.
         12    1    4    4    0    0  0.20427731394E+02  0.40001736119E+02 -0.75189157587E+02  0.87583334723E+02  0.00000000000E+00 0. -1.
         -5    1    5    5    0  502 -0.57696873083E+02 -0.86559970264E+02 -0.51462840027E+03  0.52505812819E+03  0.47000000000E+01 0.  1.
         11    1    6    6    0    0  0.22043702767E+02 -0.64297772693E+02 -0.16710153832E+03  0.18039693044E+03  0.00000000000E+00 0. -1.
        -12    1    6    6    0    0  0.48538632538E+01  0.30142334779E+02 -0.91676848394E+02  0.96626936544E+02  0.00000000000E+00 0.  1.
<mgrwt>
<rscale>  2 0.21421721E+03</rscale>
<asrwt>0</asrwt>
<pdfrwt beam="1">  1       21 0.41261870E-02 0.21477588E+03</pdfrwt>
<pdfrwt beam="2">  1       21 0.26332356E+00 0.21477588E+03</pdfrwt>
<totfact> 0.20277175E+04</totfact>
</mgrwt>
</event>
<event>
12    1  0.1029207E-001  0.1928096E+03  0.7546771E-02  0.1156895E+00
         21   -1    0    0  503  502  0.00000000000E+00  0.00000000000E+00  0.36115073567E+02  0.36115073567E+02  0.00000000000E+00 0. -1.
         21   -1    0    0  501  503 -0.00000000000E+00 -0.00000000000E+00 -0.28952357836E+04  0.28952357836E+04  0.00000000000E+00 0. -1.
          6    2    1    2  501    0  0.23622539557E+01 -0.72408239026E+02 -0.26186833424E+04  0.26257718861E+04  0.17868132703E+03 0.  0.
         24    2    3    3    0    0 -0.47530423045E+02 -0.25496818261E+02 -0.81585818922E+03  0.82164035441E+03  0.80988012830E+02 0.  0.
         -6    2    1    2    0  502 -0.23622539557E+01  0.72408239026E+02 -0.24043736764E+03  0.30557897110E+03  0.17412595010E+03 0.  0.
        -24    2    5    5    0    0  0.85365085574E+01 -0.24022191550E+02 -0.65738518055E+02  0.10568052435E+03  0.78720282049E+02 0.  0.
          5    1    3    3  501    0  0.49892677000E+02 -0.46911420765E+02 -0.18028251532E+04  0.18041315316E+04  0.47000000000E+01 0. -1.
        -11    1    4    4    0    0 -0.37554479048E+02 -0.52878492698E+02 -0.45381150913E+03  0.45842268672E+03  0.00000000000E+00 0.  1.
         12    1    4    4    0    0 -0.99759439964E+01  0.27381674438E+02 -0.36204668010E+03  0.36321766769E+03  0.00000000000E+00 0. -1.
         -5    1    5    5    0  502 -0.10898762513E+02  0.96430430576E+02 -0.17469884959E+03  0.19989844675E+03  0.47000000000E+01 0.  1.
         11    1    6    6    0    0 -0.19826359506E+00 -0.51406193003E+02 -0.54218208500E+02  0.74714457239E+02  0.00000000000E+00 0. -1.
        -12    1    6    6    0    0  0.87347721524E+01  0.27384001453E+02 -0.11520309555E+02  0.30966067112E+02  0.00000000000E+00 0.  1.
<mgrwt>
<rscale>  2 0.19174742E+03</rscale>
<asrwt>0</asrwt>
<pdfrwt beam="1">  1       21 0.55561641E-02 0.19280962E+03</pdfrwt>
<pdfrwt beam="2">  1       21 0.44542097E+00 0.19280962E+03</pdfrwt>
<totfact> 0.10025864E+03</totfact>
</mgrwt>
</event>
<event>
12    1  0.1029207E-001  0.2560201E+03  0.7546771E-02  0.1109640E+00
         21   -1    0    0  503  502  0.00000000000E+00  0.00000000000E+00  0.66867715567E+02  0.66867715567E+02  0.00000000000E+00 0. -1.
         21   -1    0    0  501  503 -0.00000000000E+00 -0.00000000000E+00 -0.10072302500E+04  0.10072302500E+04  0.00000000000E+00 0.  1.
          6    2    1    2  501    0 -0.16990049556E+03 -0.81273400946E+02 -0.56183836386E+03  0.61742097265E+03  0.17342077807E+03 0.  0.
         24    2    3    3    0    0 -0.12779000364E+03  0.47402673393E+01 -0.41067078439E+03  0.43840876149E+03  0.84846884631E+02 0.  0.
         -6    2    1    2    0  502  0.16990049556E+03  0.81273400946E+02 -0.37852417056E+03  0.45667699291E+03  0.17263193233E+03 0.  0.
        -24    2    5    5    0    0  0.13632959926E+03  0.73776355652E+02 -0.16575836497E+03  0.24109733525E+03  0.81384145992E+02 0.  0.
          5    1    3    3  501    0 -0.42110491921E+02 -0.86013668286E+02 -0.15116757947E+03  0.17901221116E+03  0.47000000000E+01 0. -1.
        -11    1    4    4    0    0 -0.99280928074E+02 -0.14078073572E+02 -0.18740977714E+03  0.21254956928E+03  0.00000000000E+00 0.  1.
         12    1    4    4    0    0 -0.28509075569E+02  0.18818340912E+02 -0.22326100726E+03  0.22585919221E+03  0.00000000000E+00 0. -1.
         -5    1    5    5    0  502  0.33570896304E+02  0.74970452940E+01 -0.21276580560E+03  0.21557965766E+03  0.47000000000E+01 0.  1.
         13    1    6    6    0    0  0.77592037580E+02  0.39634293759E+02 -0.35299165125E+02  0.94007619883E+02  0.00000000000E+00 0. -1.
        -14    1    6    6    0    0  0.58737561681E+02  0.34142061893E+02 -0.13045919984E+03  0.14708971536E+03  0.00000000000E+00 0.  1.
<mgrwt>
<rscale>  2 0.25588661E+03</rscale>
<asrwt>0</asrwt>
<pdfrwt beam="1">  1       21 0.10287342E-01 0.25602014E+03</pdfrwt>
<pdfrwt beam="2">  1       21 0.15495848E+00 0.25602014E+03</pdfrwt>
<totfact> 0.20368705E+04</totfact>
</mgrwt>
</event>
<event>
12    1  0.1029207E-001  0.1851750E+03  0.7546771E-02  0.1163938E+00
         21   -1    0    0  501  502  0.00000000000E+00  0.00000000000E+00  0.11798079636E+03  0.11798079636E+03  0.00000000000E+00 0.  1.
         21   -1    0    0  502  503 -0.00000000000E+00 -0.00000000000E+00 -0.55340999783E+03  0.55340999783E+03  0.00000000000E+00 0.  1.
         -6    2    1    2    0  503 -0.48847048796E+02  0.21360233592E+02 -0.45341842514E+03  0.48977346675E+03  0.17733439238E+03 0.  0.
        -24    2    3    3    0    0 -0.20792758943E+02 -0.39153960208E+02 -0.37850471970E+03  0.38935850724E+03  0.79805093201E+02 0.  0.
          6    2    1    2  501    0  0.48847048796E+02 -0.21360233592E+02  0.17989223673E+02  0.18161732744E+03  0.17268163684E+03 0.  0.
         24    2    5    5    0    0  0.76239224397E+02  0.58892924934E+01  0.58410476066E+02  0.12550284088E+03  0.80573421505E+02 0.  0.
          5    1    5    5  501    0 -0.27392175602E+02 -0.27249526085E+02 -0.40421252393E+02  0.56114486552E+02  0.47000000000E+01 0. -1.
        -11    1    6    6    0    0 -0.10553162528E+02  0.20236280197E+02  0.84578095206E+01  0.24339490904E+02  0.00000000000E+00 0.  1.
         12    1    6    6    0    0  0.86792386925E+02 -0.14346987704E+02  0.49952666545E+02  0.10116334998E+03  0.00000000000E+00 0. -1.
         -5    1    3    3    0  503 -0.28054289853E+02  0.60514193800E+02 -0.74913705434E+02  0.10041495950E+03  0.47000000000E+01 0.  1.
         13    1    4    4    0    0 -0.25512540238E+02 -0.47779593263E+02 -0.13231014977E+03  0.14296767108E+03  0.00000000000E+00 0. -1.
        -14    1    4    4    0    0  0.47197812951E+01  0.86256330546E+01 -0.24619456993E+03  0.24639083616E+03  0.00000000000E+00 0.  1.
<mgrwt>
<rscale>  2 0.18405213E+03</rscale>
<asrwt>0</asrwt>
<pdfrwt beam="1">  1       21 0.18150892E-01 0.18517500E+03</pdfrwt>
<pdfrwt beam="2">  1       21 0.85139998E-01 0.18517500E+03</pdfrwt>
<totfact> 0.33134801E+04</totfact>
</mgrwt>
</event>
<event>
12    1  0.1029207E-001  0.2057889E+03  0.7546771E-02  0.1145014E+00
         21   -1    0    0  503  502  0.00000000000E+00  0.00000000000E+00  0.91571020763E+03  0.91571020763E+03  0.00000000000E+00 0.  1.
         21   -1    0    0  501  503 -0.00000000000E+00 -0.00000000000E+00 -0.47609121249E+02  0.47609121249E+02  0.00000000000E+00 0. -1.
          6    2    1    2  501    0  0.88014464491E+02 -0.67285499057E+02  0.35069393654E+03  0.40661444015E+03  0.17342197516E+03 0.  0.
         24    2    3    3    0    0 -0.17219990834E+02 -0.91536368341E+01  0.18310544174E+03  0.20030981688E+03  0.78842265264E+02 0.  0.
         -6    2    1    2    0  502 -0.88014464491E+02  0.67285499057E+02  0.51740714985E+03  0.55670488874E+03  0.17302106833E+03 0.  0.
        -24    2    5    5    0    0 -0.10138187306E+03  0.10170635819E+03  0.37371959123E+03  0.40827413836E+03  0.79993572903E+02 0.  0.
          5    1    3    3  501    0  0.10523445533E+03 -0.58131862223E+02  0.16758849480E+03  0.20630462327E+03  0.47000000000E+01 0. -1.
        -13    1    4    4    0    0 -0.12430478202E+02 -0.42779168384E+02  0.77672016956E+02  0.89540584396E+02  0.00000000000E+00 0.  1.
         14    1    4    4    0    0 -0.47895126322E+01  0.33625531550E+02  0.10543342478E+03  0.11076923248E+03  0.00000000000E+00 0. -1.
         -5    1    5    5    0  502  0.13367408569E+02 -0.34420859128E+02  0.14368755862E+03  0.14843075037E+03  0.47000000000E+01 0.  1.
         13    1    6    6    0    0 -0.41485749765E+02  0.10134879600E+02  0.45988645942E+02  0.62759371998E+02  0.00000000000E+00 0. -1.
        -14    1    6    6    0    0 -0.59896123295E+02  0.91571478585E+02  0.32773094529E+03  0.34551476636E+03  0.00000000000E+00 0.  1.
<mgrwt>
<rscale>  2 0.20570440E+03</rscale>
<asrwt>0</asrwt>
<pdfrwt beam="1">  1       21 0.14087848E+00 0.20578889E+03</pdfrwt>
<pdfrwt beam="2">  1       21 0.73244809E-02 0.20578889E+03</pdfrwt>
<totfact> 0.48885876E+04</totfact>
</mgrwt>
</event>
<event>
12    1  0.1029207E-001  0.1952899E+03  0.7546771E-02  0.1153879E+00
         21   -1    0    0  501  502  0.00000000000E+00  0.00000000000E+00  0.25617789905E+02  0.25617789905E+02  0.00000000000E+00 0. -1.
         21   -1    0    0  502  503 -0.00000000000E+00 -0.00000000000E+00 -0.22361351203E+04  0.22361351203E+04  0.00000000000E+00 0. -1.
         -6    2    1    2    0  503 -0.82832909162E+02  0.37548981475E+02 -0.17597486050E+04  0.17704988299E+04  0.17227808011E+03 0.  0.
        -24    2    3    3    0    0 -0.11484080945E+03  0.53719700251E+02 -0.11376281778E+04  0.11473279755E+04  0.78034573456E+02 0.  0.
          6    2    1    2  501    0  0.82832909162E+02 -0.37548981475E+02 -0.45076872535E+03  0.49125408030E+03  0.17282045830E+03 0.  0.
         24    2    5    5    0    0 -0.21978103818E+02 -0.64448944915E+01 -0.15535812903E+03  0.17622658454E+03  0.79969288662E+02 0.  0.
          5    1    5    5  501    0  0.10481101298E+03 -0.31104086983E+02 -0.29541059632E+03  0.31502749577E+03  0.47000000000E+01 0. -1.
        -11    1    6    6    0    0 -0.26419753985E+02 -0.40157605432E+02 -0.10478626458E+03  0.11528572296E+03  0.00000000000E+00 0.  1.
         12    1    6    6    0    0  0.44416501666E+01  0.33712710941E+02 -0.50571864451E+02  0.60940861573E+02  0.00000000000E+00 0. -1.
         -5    1    3    3    0  503  0.32007900287E+02 -0.16170718776E+02 -0.62212042716E+03  0.62317085435E+03  0.47000000000E+01 0.  1.
         11    1    4    4    0    0 -0.69449864256E+02  0.16044235528E+01 -0.77970546511E+03  0.78279401514E+03  0.00000000000E+00 0. -1.
        -12    1    4    4    0    0 -0.45390945193E+02  0.52115276698E+02 -0.35792271272E+03  0.36453396036E+03  0.00000000000E+00 0.  1.
<mgrwt>
<rscale>  2 0.19516979E+03</rscale>
<asrwt>0</asrwt>
<pdfrwt beam="1">  1       21 0.39412002E-02 0.19528986E+03</pdfrwt>
<pdfrwt beam="2">  1       21 0.34402063E+00 0.19528986E+03</pdfrwt>
<totfact> 0.75931037E+03</totfact>
</mgrwt>
</event>
<event>
12    1  0.1029207E-001  0.2700595E+03  0.7546771E-02  0.1101304E+00
         21   -1    0    0  503  502  0.00000000000E+00  0.00000000000E+00  0.85052896274E+03  0.85052896274E+03  0.00000000000E+00 0.  1.
         21   -1    0    0  501  503 -0.00000000000E+00 -0.00000000000E+00 -0.86148410991E+02  0.86148410991E+02  0.00000000000E+00 0. -1.
          6    2    1    2  501    0 -0.15262035794E+03  0.13885602779E+03  0.34580494743E+03  0.43876327073E+03  0.17423597781E+03 0.  0.
         24    2    3    3    0    0 -0.20395885872E+02  0.92033721589E+02  0.20700691316E+03  0.24137374799E+03  0.80766490899E+02 0.  0.
         -6    2    1    2    0  502  0.15262035794E+03 -0.13885602779E+03  0.41857560431E+03  0.49791410300E+03  0.17360572377E+03 0.  0.
        -24    2    5    5    0    0  0.17001523227E+03 -0.10632719542E+03  0.27682908356E+03  0.35137102833E+03  0.81342524877E+02 0.  0.
          5    1    3    3  501    0 -0.13222447207E+03  0.46822306201E+02  0.13879803427E+03  0.19738952274E+03  0.47000000000E+01 0. -1.
        -11    1    4    4    0    0 -0.32782382155E+02  0.24762396817E+02  0.13889441466E+03  0.14484308510E+03  0.00000000000E+00 0.  1.
         12    1    4    4    0    0  0.12386496284E+02  0.67271324772E+02  0.68112498495E+02  0.96530662890E+02  0.00000000000E+00 0. -1.
         -5    1    5    5    0  502 -0.17394874330E+02 -0.32528832367E+02  0.14174652075E+03  0.14654307466E+03  0.47000000000E+01 0.  1.
         11    1    6    6    0    0  0.70018524836E+02 -0.68952111228E+02  0.77111131773E+02  0.12491242575E+03  0.00000000000E+00 0. -1.
        -12    1    6    6    0    0  0.99996707432E+02 -0.37375084195E+02  0.19971795179E+03  0.22645860258E+03  0.00000000000E+00 0.  1.
<mgrwt>
<rscale>  2 0.26995792E+03</rscale>
<asrwt>0</asrwt>
<pdfrwt beam="1">  1       21 0.13085060E+00 0.27005952E+03</pdfrwt>
<pdfrwt beam="2">  1       21 0.13253602E-01 0.27005952E+03</pdfrwt>
<totfact> 0.19979235E+04</totfact>
</mgrwt>
</event>
<event>
12    1  0.1029207E-001  0.2410881E+03  0.7546771E-02  0.1121084E+00
         21   -1    0    0  503  502  0.00000000000E+00  0.00000000000E+00  0.71087728546E+02  0.71087728546E+02  0.00000000000E+00 0.  1.
         21   -1    0    0  501  503 -0.00000000000E+00 -0.00000000000E+00 -0.78315916170E+03  0.78315916170E+03  0.00000000000E+00 0. -1.
          6    2    1    2  501    0 -0.20255370463E+02 -0.16305238189E+03 -0.39973610781E+03  0.46681091814E+03  0.17642879056E+03 0.  0.
         24    2    3    3    0    0 -0.39581383538E+01 -0.89589433032E+02 -0.98375741446E+02  0.15616229825E+03  0.81651353441E+02 0.  0.
         -6    2    1    2    0  502  0.20255370463E+02  0.16305238189E+03 -0.31233532535E+03  0.38743597210E+03  0.15986531126E+03 0.  0.
        -24    2    5    5    0    0  0.49136763958E+02  0.93025587915E+02 -0.12223713958E+03  0.18274767982E+03  0.85945416447E+02 0.  0.
          5    1    3    3  501    0 -0.16297232110E+02 -0.73462948862E+02 -0.30136036636E+03  0.31064861990E+03  0.47000000000E+01 0. -1.
        -13    1    4    4    0    0 -0.17903978044E+02 -0.56963388599E+01  0.76129746663E+01  0.20272101259E+02  0.00000000000E+00 0.  1.
         14    1    4    4    0    0  0.13945839690E+02 -0.83893094172E+02 -0.10598871611E+03  0.13589019699E+03  0.00000000000E+00 0. -1.
         -5    1    5    5    0  502 -0.28881393494E+02  0.70026793980E+02 -0.19009818577E+03  0.20468829228E+03  0.47000000000E+01 0.  1.
         11    1    6    6    0    0  0.74408158146E+01  0.45574338463E+02 -0.10876134591E+03  0.11815843783E+03  0.00000000000E+00 0. -1.
        -12    1    6    6    0    0  0.41695948143E+02  0.47451249452E+02 -0.13475793672E+02  0.64589241993E+02  0.00000000000E+00 0.  1.
<mgrwt>
<rscale>  2 0.23807118E+03</rscale>
<asrwt>0</asrwt>
<pdfrwt beam="1">  1       21 0.10936573E-01 0.24108811E+03</pdfrwt>
<pdfrwt beam="2">  1       21 0.12048603E+00 0.24108811E+03</pdfrwt>
<totfact> 0.35282409E+04</totfact>
</mgrwt>
</event>
<event>
12    1  0.1029207E-001  0.1939202E+03  0.7546771E-02  0.1155051E+00
         21   -1    0    0  503  502  0.00000000000E+00  0.00000000000E+00  0.17538576895E+03  0.17538576895E+03  0.00000000000E+00 0.  1.
         21   -1    0    0  501  503 -0.00000000000E+00 -0.00000000000E+00 -0.45595111023E+03  0.45595111023E+03  0.00000000000E+00 0.  1.
          6    2    1    2  501    0  0.72244396150E+02 -0.47393207526E+02 -0.37016458958E+03  0.41771793798E+03  0.17320820835E+03 0.  0.
         24    2    3    3    0    0  0.81257309181E+02 -0.87455882278E+02 -0.33006251077E+03  0.36012872689E+03  0.80623552847E+02 0.  0.
         -6    2    1    2    0  502 -0.72244396150E+02  0.47393207526E+02  0.89599248298E+02  0.21361894120E+03  0.17360777013E+03 0.  0.
        -24    2    5    5    0    0 -0.67295391693E+02  0.96280999067E+02  0.48994797438E+02  0.14970243131E+03  0.78813877199E+02 0.  0.
          5    1    3    3  501    0 -0.90129130305E+01  0.40062674752E+02 -0.40102078808E+02  0.57589211093E+02  0.47000000000E+01 0. -1.
        -11    1    4    4    0    0  0.54700627302E+01 -0.14781629067E+02 -0.15638805155E+03  0.15718028124E+03  0.00000000000E+00 0.  1.
         12    1    4    4    0    0  0.75787246451E+02 -0.72674253210E+02 -0.17367445922E+03  0.20294844565E+03  0.00000000000E+00 0. -1.
         -5    1    5    5    0  502 -0.49490044572E+01 -0.48887791541E+02  0.40604450860E+02  0.63916509890E+02  0.47000000000E+01 0.  1.
         11    1    6    6    0    0 -0.21726929677E+02  0.70768591625E+02 -0.54885167793E+01  0.74231912613E+02  0.00000000000E+00 0. -1.
        -12    1    6    6    0    0 -0.45568462016E+02  0.25512407442E+02  0.54483314217E+02  0.75470518695E+02  0.00000000000E+00 0.  1.
<mgrwt>
<rscale>  2 0.19383069E+03</rscale>
<asrwt>0</asrwt>
<pdfrwt beam="1">  1       21 0.26982426E-01 0.19392016E+03</pdfrwt>
<pdfrwt beam="2">  1       21 0.70146325E-01 0.19392016E+03</pdfrwt>
<totfact> 0.24118760E+04</totfact>
</mgrwt>
</event>
<event>
12    1  0.1029207E-001  0.2658449E+03  0.7546771E-02  0.1103733E+00
         21   -1    0    0  501  502  0.00000000000E+00  0.00000000000E+00  0.30519894245E+03  0.30519894245E+03  0.00000000000E+00 0.  1.
         21   -1    0    0  502  503 -0.00000000000E+00 -0.00000000000E+00 -0.26057052745E+03  0.26057052745E+03  0.00000000000E+00 0. -1.
         -6    2    1    2    0  503  0.90937840966E+02 -0.17961306207E+03  0.11720972126E+03  0.29053683337E+03  0.17361736607E+03 0.  0.
        -24    2    3    3    0    0  0.10966241271E+03 -0.72196364366E+02  0.46566185363E+02  0.16053085006E+03  0.79772077890E+02 0.  0.
          6    2    1    2  501    0 -0.90937840966E+02  0.17961306207E+03 -0.72581306267E+02  0.27523263653E+03  0.17307343877E+03 0.  0.
         24    2    5    5    0    0 -0.64409239099E+01  0.88513560966E+02  0.18868700821E+02  0.12088224978E+03  0.79877121040E+02 0.  0.
          5    1    5    5  501    0 -0.84496917056E+02  0.91099501105E+02 -0.91450007088E+02  0.15435038675E+03  0.47000000000E+01 0. -1.
        -13    1    6    6    0    0 -0.21544998178E+02  0.89215590059E+02 -0.57836677136E+01  0.91962270895E+02  0.00000000000E+00 0.  1.
         14    1    6    6    0    0  0.15104074268E+02 -0.70202909275E+00  0.24652368535E+02  0.28919978885E+02  0.00000000000E+00 0. -1.
         -5    1    3    3    0  503 -0.18724571749E+02 -0.10741669771E+03  0.70643535901E+02  0.13000598332E+03  0.47000000000E+01 0.  1.
         11    1    4    4    0    0 -0.92788067228E+01  0.21739351191E-01 -0.67952368259E+01  0.11500955192E+02  0.00000000000E+00 0. -1.
        -12    1    4    4    0    0  0.11894121944E+03 -0.72218103717E+02  0.53361422188E+02  0.14902989487E+03  0.00000000000E+00 0.  1.
<mgrwt>
<rscale>  2 0.26575617E+03</rscale>
<asrwt>0</asrwt>
<pdfrwt beam="1">  1       21 0.46953684E-01 0.26584494E+03</pdfrwt>
<pdfrwt beam="2">  1       21 0.40087773E-01 0.26584494E+03</pdfrwt>
<totfact> 0.25094932E+04</totfact>
</mgrwt>
</event>
<event>
12    1  0.1029207E-001  0.2444681E+03  0.7546771E-02  0.1116866E+00
         21   -1    0    0  501  502  0.00000000000E+00  0.00000000000E+00  0.52098413712E+03  0.52098413712E+03  0.00000000000E+00 0. -1.
         21   -1    0    0  502  503 -0.00000000000E+00 -0.00000000000E+00 -0.11467378117E+03  0.11467378117E+03  0.00000000000E+00 0. -1.
         -6    2    1    2    0  503 -0.32395813076E+01  0.17279835688E+03  0.20260957103E+03  0.31751422240E+03  0.17290134795E+03 0.  0.
        -24    2    3    3    0    0 -0.31067408058E+02  0.19291126884E+03  0.16087007304E+03  0.26326302093E+03  0.72445126109E+02 0.  0.
          6    2    1    2  501    0  0.32395813076E+01 -0.17279835688E+03  0.20370078493E+03  0.31814369589E+03  0.17277625540E+03 0.  0.
         24    2    5    5    0    0 -0.31978396565E+01 -0.60651174951E+02  0.17510258383E+03  0.20213344673E+03  0.80673565818E+02 0.  0.
          5    1    5    5  501    0  0.64374209642E+01 -0.11214718193E+03  0.28598201092E+02  0.11601024916E+03  0.47000000000E+01 0. -1.
        -11    1    6    6    0    0 -0.29171995062E+02  0.57016220916E+01  0.51180230286E+02  0.59185553664E+02  0.00000000000E+00 0.  1.
         12    1    6    6    0    0  0.25974155405E+02 -0.66352797042E+02  0.12392235355E+03  0.14294789307E+03  0.00000000000E+00 0. -1.
         -5    1    3    3    0  503  0.27827826751E+02 -0.20112911957E+02  0.41739497984E+02  0.54251201471E+02  0.47000000000E+01 0.  1.
         11    1    4    4    0    0 -0.39967263184E+02  0.13916418907E+03  0.14848708646E+03  0.20739447555E+03  0.00000000000E+00 0. -1.
        -12    1    4    4    0    0  0.88998551260E+01  0.53747079773E+02  0.12382986587E+02  0.55868545374E+02  0.00000000000E+00 0.  1.
<mgrwt>
<rscale>  2 0.24444596E+03</rscale>
<asrwt>0</asrwt>
<pdfrwt beam="1">  1       21 0.80151404E-01 0.24446808E+03</pdfrwt>
<pdfrwt beam="2">  1       21 0.17642121E-01 0.24446808E+03</pdfrwt>
<totfact> 0.38907171E+04</totfact>
</mgrwt>
</event>
<event>
12    1  0.1029207E-001  0.2514832E+03  0.7546771E-02  0.1112915E+00
         21   -1    0    0  503  502  0.00000000000E+00  0.00000000000E+00  0.47297357422E+03  0.47297357422E+03  0.00000000000E+00 0.  1.
         21   -1    0    0  501  503 -0.00000000000E+00 -0.00000000000E+00 -0.19631560559E+03  0.19631560559E+03  0.00000000000E+00 0.  1.
          6    2    1    2  501    0  0.28560517134E+02  0.17466763277E+03 -0.52733322531E+02  0.25695252907E+03  0.17865977110E+03 0.  0.
         24    2    3    3    0    0 -0.32139112749E+02  0.13212045176E+03 -0.80799206393E+02  0.17755170088E+03  0.80668199367E+02 0.  0.
         -6    2    1    2    0  502 -0.28560517134E+02 -0.17466763277E+03  0.32939129116E+03  0.41233665075E+03  0.17377688506E+03 0.  0.
        -24    2    5    5    0    0 -0.30196843831E+02 -0.84379851155E+02  0.72034238615E+02  0.13955596307E+03  0.79089358563E+02 0.  0.
          5    1    3    3  501    0  0.60699629883E+02  0.42547181016E+02  0.28065883863E+02  0.79400828190E+02  0.47000000000E+01 0. -1.
        -13    1    4    4    0    0 -0.57185289316E+02  0.85544061638E+02 -0.38616989553E+02  0.10990548520E+03  0.00000000000E+00 0.  1.
         14    1    4    4    0    0  0.25046176567E+02  0.46576390121E+02 -0.42182216840E+02  0.67646215673E+02  0.00000000000E+00 0. -1.
         -5    1    5    5    0  502  0.16363266972E+01 -0.90287781620E+02  0.25735705255E+03  0.27278068768E+03  0.47000000000E+01 0.  1.
         11    1    6    6    0    0 -0.20241131195E+02  0.46026104524E+01  0.38885426347E+02  0.44079063026E+02  0.00000000000E+00 0. -1.
        -12    1    6    6    0    0 -0.99557126355E+01 -0.88982461607E+02  0.33148812268E+02  0.95476900047E+02  0.00000000000E+00 0.  1.
<mgrwt>
<rscale>  2 0.25061746E+03</rscale>
<asrwt>0</asrwt>
<pdfrwt beam="1">  1       21 0.72765165E-01 0.25148320E+03</pdfrwt>
<pdfrwt beam="2">  1       21 0.30202401E-01 0.25148320E+03</pdfrwt>
<totfact> 0.17303552E+04</totfact>
</mgrwt>
</event>
<event>
12    1  0.1029207E-001  0.3345133E+03  0.7546771E-02  0.1069175E+00
         21   -1    0    0  501  502  0.00000000000E+00  0.00000000000E+00  0.13437838773E+03  0.13437838773E+03  0.00000000000E+00 0.  1.
         21   -1    0    0  502  503 -0.00000000000E+00 -0.00000000000E+00 -0.14182807036E+04  0.14182807036E+04  0.00000000000E+00 0.  1.
         -6    2    1    2    0  503  0.14515162382E+03 -0.24619681193E+03 -0.14303800644E+03  0.36381182148E+03  0.17383125744E+03 0.  0.
        -24    2    3    3    0    0  0.10381054177E+03 -0.19740609260E+03 -0.39853850988E+02  0.24232651663E+03  0.85953576110E+02 0.  0.
          6    2    1    2  501    0 -0.14515162382E+03  0.24619681193E+03 -0.11408643094E+04  0.11888472698E+04  0.17350675604E+03 0.  0.
         24    2    5    5    0    0 -0.16837323157E+03  0.23182861405E+03 -0.10995305419E+04  0.11390852510E+04  0.80335205137E+02 0.  0.
          5    1    5    5  501    0  0.23221607750E+02  0.14368197878E+02 -0.41333767538E+02  0.49762018806E+02  0.47000000000E+01 0. -1.
        -13    1    6    6    0    0 -0.14468683381E+03  0.15104658804E+03 -0.69061836682E+03  0.72159758884E+03  0.00000000000E+00 0.  1.
         14    1    6    6    0    0 -0.23686397763E+02  0.80782026015E+02 -0.40891217506E+03  0.41748766219E+03  0.00000000000E+00 0. -1.
         -5    1    3    3    0  503  0.41341082055E+02 -0.48790719326E+02 -0.10318415546E+03  0.12148530485E+03  0.47000000000E+01 0.  1.
         13    1    4    4    0    0  0.35928351102E+02 -0.15199503965E+03 -0.37495504234E+02  0.16062145352E+03  0.00000000000E+00 0. -1.
        -14    1    4    4    0    0  0.67882190664E+02 -0.45411052951E+02 -0.23583467544E+01  0.81705063117E+02  0.00000000000E+00 0.  1.
<mgrwt>
<rscale>  2 0.33447120E+03</rscale>
<asrwt>0</asrwt>
<pdfrwt beam="1">  1       21 0.20673597E-01 0.33451333E+03</pdfrwt>
<pdfrwt beam="2">  1       21 0.21819704E+00 0.33451333E+03</pdfrwt>
<totfact> 0.19963508E+03</totfact>
</mgrwt>
</event>
<event>
12    1  0.1029207E-001  0.1747237E+03  0.7546771E-02  0.1174261E+00
         21   -1    0    0  501  502  0.00000000000E+00  0.00000000000E+00  0.57973633181E+03  0.57973633181E+03  0.00000000000E+00 0. -1.
         21   -1    0    0  502  503 -0.00000000000E+00 -0.00000000000E+00 -0.52395440336E+02  0.52395440336E+02  0.00000000000E+00 0. -1.
         -6    2    1    2    0  503  0.24247168595E+02 -0.39983578587E+01  0.21944829395E+03  0.28051011384E+03  0.17298687291E+03 0.  0.
        -24    2    3    3    0    0 -0.15639028627E+02 -0.48279653310E+02  0.65506922524E+02  0.11536842410E+03  0.80269622148E+02 0.  0.
          6    2    1    2  501    0 -0.24247168595E+02  0.39983578587E+01  0.30789259752E+03  0.35162165830E+03  0.16803579062E+03 0.  0.
         24    2    5    5    0    0  0.47000177191E+02  0.11801515782E+02  0.13231528624E+03  0.16192043060E+03  0.79765897738E+02 0.  0.
          5    1    5    5  501    0 -0.71247345786E+02 -0.78031579235E+01  0.17557731128E+03  0.18970122770E+03  0.47000000000E+01 0. -1.
        -11    1    6    6    0    0 -0.32343644060E+01  0.82206286867E+01 -0.85677745563E+01  0.12306364612E+02  0.00000000000E+00 0.  1.
         12    1    6    6    0    0  0.50234541597E+02  0.35808870954E+01  0.14088306080E+03  0.14961406599E+03  0.00000000000E+00 0. -1.
         -5    1    3    3    0  503  0.39886197222E+02  0.44281295452E+02  0.15394137143E+03  0.16514168975E+03  0.47000000000E+01 0.  1.
         13    1    4    4    0    0 -0.24013934983E+02 -0.63564317583E+01 -0.11435436997E+02  0.27346709443E+02  0.00000000000E+00 0. -1.
        -14    1    4    4    0    0  0.83749063553E+01 -0.41923221552E+02  0.76942359522E+02  0.88021714654E+02  0.00000000000E+00 0.  1.
<mgrwt>
<rscale>  2 0.17348549E+03</rscale>
<asrwt>0</asrwt>
<pdfrwt beam="1">  1       21 0.89190200E-01 0.17472370E+03</pdfrwt>
<pdfrwt beam="2">  1       21 0.80608374E-02 0.17472370E+03</pdfrwt>
<totfact> 0.12790252E+05</totfact>
</mgrwt>
</event>
<event>
12    1  0.1029207E-001  0.2020407E+03  0.7546771E-02  0.1150135E+00
         21   -1    0    0  501  502  0.00000000000E+00  0.00000000000E+00  0.15175160597E+04  0.15175160597E+04  0.00000000000E+00 0.  1.
         21   -1    0    0  502  503 -0.00000000000E+00 -0.00000000000E+00 -0.49019496410E+02  0.49019496410E+02  0.00000000000E+00 0.  1.
         -6    2    1    2    0  503  0.64122040828E+02  0.81288767290E+02  0.20256935501E+03  0.28610274914E+03  0.17349622380E+03 0.  0.
        -24    2    3    3    0    0  0.91556262201E+01  0.70593528848E-01  0.27984705362E+02  0.85804001330E+02  0.80593749355E+02 0.  0.
          6    2    1    2  501    0 -0.64122040828E+02 -0.81288767290E+02  0.12659272082E+04  0.12804328069E+04  0.16191657320E+03 0.  0.
         24    2    5    5    0    0 -0.92041922630E+02 -0.95491560594E+02  0.91161358380E+03  0.92470612308E+03  0.80322688078E+02 0.  0.
          5    1    5    5  501    0  0.27919881803E+02  0.14202793304E+02  0.35431362444E+03  0.35572668384E+03  0.47000000000E+01 0. -1.
        -13    1    6    6    0    0 -0.39908230587E+02 -0.29864506735E+02  0.59839592600E+03  0.60046835044E+03  0.00000000000E+00 0.  1.
         14    1    6    6    0    0 -0.52133692043E+02 -0.65627053859E+02  0.31321765781E+03  0.32423777264E+03  0.00000000000E+00 0. -1.
         -5    1    3    3    0  503  0.54966414607E+02  0.81218173762E+02  0.17458464964E+03  0.20029874781E+03  0.47000000000E+01 0.  1.
         13    1    4    4    0    0 -0.21666290476E+02 -0.20738580898E+02  0.36910022360E+02  0.47559085686E+02  0.00000000000E+00 0. -1.
        -14    1    4    4    0    0  0.30821916696E+02  0.20809174426E+02 -0.89253169984E+01  0.38244915644E+02  0.00000000000E+00 0.  1.
<mgrwt>
<rscale>  2 0.19953131E+03</rscale>
<asrwt>0</asrwt>
<pdfrwt beam="1">  1       21 0.23346397E+00 0.20204069E+03</pdfrwt>
<pdfrwt beam="2">  1       21 0.75414622E-02 0.20204069E+03</pdfrwt>
<totfact> 0.10990400E+04</totfact>
</mgrwt>
</event>
<event>
12    1  0.1029207E-001  0.1840929E+03  0.7546771E-02  0.1164061E+00
         21   -1    0    0  503  502  0.00000000000E+00  0.00000000000E+00  0.12372130584E+03  0.12372130584E+03  0.00000000000E+00 0.  1.
         21   -1    0    0  501  503 -0.00000000000E+00 -0.00000000000E+00 -0.27472639477E+03  0.27472639477E+03  0.00000000000E+00 0. -1.
          6    2    1    2  501    0 -0.61948352235E+02 -0.20828786140E+02 -0.59137556330E+02  0.19270550104E+03  0.17136721648E+03 0.  0.
         24    2    3    3    0    0 -0.10451353082E+02 -0.54146087141E+02 -0.73511094119E+02  0.12953373475E+03  0.91291171230E+02 0.  0.
         -6    2    1    2    0  502  0.61948352235E+02  0.20828786140E+02 -0.91867532595E+02  0.20574219957E+03  0.17210105306E+03 0.  0.
        -24    2    5    5    0    0  0.29430687794E+02  0.76433995901E+02 -0.79866190121E+02  0.14005003814E+03  0.80790369132E+02 0.  0.
          5    1    3    3  501    0 -0.51496999152E+02  0.33317301001E+02  0.14373537789E+02  0.63171766290E+02  0.47000000000E+01 0. -1.
        -11    1    4    4    0    0 -0.50320483314E+01  0.18902438902E+02 -0.48227885347E+02  0.52043756897E+02  0.00000000000E+00 0.  1.
         12    1    4    4    0    0 -0.54193047509E+01 -0.73048526044E+02 -0.25283208772E+02  0.77489977848E+02  0.00000000000E+00 0. -1.
         -5    1    5    5    0  502  0.32517664440E+02 -0.55605209761E+02 -0.12001342474E+02  0.65692161438E+02  0.47000000000E+01 0.  1.
         11    1    6    6    0    0  0.29531750478E+01  0.75367711047E+02 -0.25586239298E+02  0.79647151567E+02  0.00000000000E+00 0. -1.
        -12    1    6    6    0    0  0.26477512747E+02  0.10662848533E+01 -0.54279950823E+02  0.60402886570E+02  0.00000000000E+00 0.  1.
<mgrwt>
<rscale>  2 0.18392123E+03</rscale>
<asrwt>0</asrwt>
<pdfrwt beam="1">  1       21 0.19034047E-01 0.18409294E+03</pdfrwt>
<pdfrwt beam="2">  1       21 0.42265599E-01 0.18409294E+03</pdfrwt>
<totfact> 0.13674828E+05</totfact>
</mgrwt>
</event>
<event>
12    1  0.1029207E-001  0.1760654E+03  0.7546771E-02  0.1172112E+00
         21   -1    0    0  503  502  0.00000000000E+00  0.00000000000E+00  0.16733470266E+03  0.16733470266E+03  0.00000000000E+00 0.  1.
         21   -1    0    0  501  503 -0.00000000000E+00 -0.00000000000E+00 -0.30733755571E+03  0.30733755571E+03  0.00000000000E+00 0.  1.
          6    2    1    2  501    0 -0.28732003662E+02 -0.29966929644E+01 -0.22051384170E+03  0.28107205608E+03  0.17187390182E+03 0.  0.
         24    2    3    3    0    0  0.13698529778E+02 -0.38962916830E+02 -0.20120442619E+03  0.22200545847E+03  0.84246328478E+02 0.  0.
         -6    2    1    2    0  502  0.28732003662E+02  0.29966929644E+01  0.80510988649E+02  0.19360020229E+03  0.17367933334E+03 0.  0.
        -24    2    5    5    0    0 -0.37429806455E+02 -0.36264664357E+02  0.58929467287E+02  0.11355839221E+03  0.81894505515E+02 0.  0.
          5    1    3    3  501    0 -0.42430533440E+02  0.35966223866E+02 -0.19309415507E+02  0.59066597620E+02  0.47000000000E+01 0. -1.
        -13    1    4    4    0    0  0.36946108587E+01  0.22596156304E+02 -0.10417277769E+03  0.10665928952E+03  0.00000000000E+00 0.  1.
         14    1    4    4    0    0  0.10003918919E+02 -0.61559073134E+02 -0.97031648502E+02  0.11534616894E+03  0.00000000000E+00 0. -1.
         -5    1    5    5    0  502  0.66161810117E+02  0.39261357321E+02  0.21581521361E+02  0.80041810081E+02  0.47000000000E+01 0.  1.
         11    1    6    6    0    0 -0.33649344047E+01  0.22120869412E+02 -0.21182900196E+01  0.22475382081E+02  0.00000000000E+00 0. -1.
        -12    1    6    6    0    0 -0.34064872051E+02 -0.58385533769E+02  0.61047757307E+02  0.91083010125E+02  0.00000000000E+00 0.  1.
<mgrwt>
<rscale>  2 0.17561851E+03</rscale>
<asrwt>0</asrwt>
<pdfrwt beam="1">  1       21 0.25743801E-01 0.17606538E+03</pdfrwt>
<pdfrwt beam="2">  1       21 0.47282700E-01 0.17606538E+03</pdfrwt>
<totfact> 0.61738258E+04</totfact>
</mgrwt>
</event>
<event>
12    1  0.1029207E-001  0.2827887E+03  0.7546771E-02  0.1094229E+00
         21   -1    0    0  503  502  0.00000000000E+00  0.00000000000E+00  0.42296064447E+03  0.42296064447E+03  0.00000000000E+00 0.  1.
         21   -1    0    0  501  503 -0.00000000000E+00 -0.00000000000E+00 -0.23079807925E+03  0.23079807925E+03  0.00000000000E+00 0. -1.
          6    2    1    2  501    0 -0.19448964159E+03  0.11038853120E+03  0.23545485302E+03  0.36767542359E+03  0.17243659934E+03 0.  0.
         24    2    3    3    0    0 -0.22202169803E+02  0.57937952724E+02  0.73090955417E+02  0.12515086532E+03  0.80440714923E+02 0.  0.
         -6    2    1    2    0  502  0.19448964159E+03 -0.11038853120E+03 -0.43292287803E+02  0.28608330013E+03  0.17308259278E+03 0.  0.
        -24    2    5    5    0    0  0.64131772217E+02 -0.76467480288E+02 -0.55579481141E+02  0.15074344302E+03  0.98358259131E+02 0.  0.
          5    1    3    3  501    0 -0.17228747179E+03  0.52450578479E+02  0.16236389760E+03  0.24252455827E+03  0.47000000000E+01 0. -1.
        -13    1    4    4    0    0 -0.43663707592E+02  0.25156760147E+02  0.69442037650E+02  0.85799641810E+02  0.00000000000E+00 0.  1.
         14    1    4    4    0    0  0.21461537788E+02  0.32781192577E+02  0.36489177664E+01  0.39351223512E+02  0.00000000000E+00 0. -1.
         -5    1    5    5    0  502  0.13035786938E+03 -0.33921050914E+02  0.12287193338E+02  0.13533985711E+03  0.47000000000E+01 0.  1.
         13    1    6    6    0    0  0.72807522192E+02 -0.21511038304E+02 -0.57243664470E+02  0.95081529114E+02  0.00000000000E+00 0. -1.
        -14    1    6    6    0    0 -0.86757499741E+01 -0.54956441984E+02  0.16641833295E+01  0.55661913903E+02  0.00000000000E+00 0.  1.
<mgrwt>
<rscale>  2 0.28268989E+03</rscale>
<asrwt>0</asrwt>
<pdfrwt beam="1">  1       21 0.65070868E-01 0.28278867E+03</pdfrwt>
<pdfrwt beam="2">  1       21 0.35507397E-01 0.28278867E+03</pdfrwt>
<totfact> 0.15844590E+04</totfact>
</mgrwt>
</event>
<event>
12    1  0.1029207E-001  0.1828055E+03  0.7546771E-02  0.1165307E+00
         21   -1    0    0  503  502  0.00000000000E+00  0.00000000000E+00  0.21100450016E+03  0.21100450016E+03  0.00000000000E+00 0. -1.
         21   -1    0    0  501  503 -0.00000000000E+00 -0.00000000000E+00 -0.15806513389E+03  0.15806513389E+03  0.00000000000E+00 0. -1.
          6    2    1    2  501    0 -0.58110920959E+02  0.11070315514E+02  0.35574681852E+02  0.18544121456E+03  0.17211465669E+03 0.  0.
         24    2    3    3    0    0 -0.95305351658E+02 -0.16049095213E+02  0.51538758829E+02  0.13649399945E+03  0.81447435267E+02 0.  0.
         -6    2    1    2    0  502  0.58110920959E+02 -0.11070315514E+02  0.17364684415E+02  0.18362841950E+03  0.17296945731E+03 0.  0.
        -24    2    5    5    0    0  0.10720981678E+02  0.66159424438E+02  0.41842504484E+01  0.91943890171E+02  0.62802564421E+02 0.  0.
          5    1    3    3  501    0  0.37194430699E+02  0.27119410727E+02 -0.15964076977E+02  0.48947215109E+02  0.47000000000E+01 0. -1.
        -13    1    4    4    0    0 -0.73249919778E+02  0.19497951534E+02  0.56256333562E+02  0.94395423233E+02  0.00000000000E+00 0.  1.
         14    1    4    4    0    0 -0.22055431880E+02 -0.35547046747E+02 -0.47175747330E+01  0.42098576214E+02  0.00000000000E+00 0. -1.
         -5    1    5    5    0  502  0.47389939281E+02 -0.77229739952E+02  0.13180433967E+02  0.91684529326E+02  0.47000000000E+01 0.  1.
         11    1    6    6    0    0  0.21396283357E+02  0.20330730276E+02 -0.23162849197E+02  0.37518756882E+02  0.00000000000E+00 0. -1.
        -12    1    6    6    0    0 -0.10675301679E+02  0.45828694162E+02  0.27347099646E+02  0.54425133289E+02  0.00000000000E+00 0.  1.
<mgrwt>
<rscale>  2 0.18260305E+03</rscale>
<asrwt>0</asrwt>
<pdfrwt beam="1">  1       21 0.32462231E-01 0.18280554E+03</pdfrwt>
<pdfrwt beam="2">  1       21 0.24317713E-01 0.18280554E+03</pdfrwt>
<totfact> 0.14626550E+05</totfact>
</mgrwt>
</event>
<event>
12    1  0.1029207E-001  0.2069207E+03  0.7546771E-02  0.1144088E+00
         21   -1    0    0  503  502  0.00000000000E+00  0.00000000000E+00  0.33170181469E+03  0.33170181469E+03  0.00000000000E+00 0.  1.
         21   -1    0    0  501  503 -0.00000000000E+00 -0.00000000000E+00 -0.14392060853E+03  0.14392060853E+03  0.00000000000E+00 0.  1.
          6    2    1    2  501    0  0.82016305714E+02  0.76215413501E+02  0.16991777085E+02  0.20732182775E+03  0.17366103798E+03 0.  0.
         24    2    3    3    0    0  0.77797119116E+01  0.48052446803E+02  0.64630404861E+02  0.11460854170E+03  0.81169372534E+02 0.  0.
         -6    2    1    2    0  502 -0.82016305714E+02 -0.76215413501E+02  0.17078942908E+03  0.26830059547E+03  0.17401355346E+03 0.  0.
        -24    2    5    5    0    0  0.13624531790E+02 -0.73897181429E+02  0.10576773880E+03  0.15253162638E+03  0.80203872636E+02 0.  0.
          5    1    3    3  501    0  0.74236593802E+02  0.28162966698E+02 -0.47638627776E+02  0.92713286043E+02  0.47000000000E+01 0. -1.
        -13    1    4    4    0    0  0.39628554044E+02  0.94693739651E+01  0.13128553835E+02  0.42807128667E+02  0.00000000000E+00 0.  1.
         14    1    4    4    0    0 -0.31848842132E+02  0.38583072838E+02  0.51501851026E+02  0.71801413035E+02  0.00000000000E+00 0. -1.
         -5    1    5    5    0  502 -0.95640837503E+02 -0.23182320718E+01  0.65021690278E+02  0.11576896909E+03  0.47000000000E+01 0.  1.
         13    1    6    6    0    0  0.36934503884E+02 -0.56481668375E+02  0.35014025682E+02  0.76028405443E+02  0.00000000000E+00 0. -1.
        -14    1    6    6    0    0 -0.23309972094E+02 -0.17415513054E+02  0.70753713118E+02  0.76503220938E+02  0.00000000000E+00 0.  1.
<mgrwt>
<rscale>  2 0.20684658E+03</rscale>
<asrwt>0</asrwt>
<pdfrwt beam="1">  1       21 0.51031048E-01 0.20692071E+03</pdfrwt>
<pdfrwt beam="2">  1       21 0.22141632E-01 0.20692071E+03</pdfrwt>
<totfact> 0.69192460E+04</totfact>
</mgrwt>
</event>
<event>
12    1  0.1029207E-001  0.1829337E+03  0.7546771E-02  0.1165530E+00
         21   -1    0    0  503  502  0.00000000000E+00  0.00000000000E+00  0.74515160151E+02  0.74515160151E+02  0.00000000000E+00 0.  1.
         21   -1    0    0  501  503 -0.00000000000E+00 -0.00000000000E+00 -0.91019522749E+03  0.91019522749E+03  0.00000000000E+00 0.  1.
          6    2    1    2  501    0 -0.56252834823E+02  0.51995084529E+01 -0.76909640393E+03  0.79003601500E+03  0.17162811582E+03 0.  0.
         24    2    3    3    0    0  0.21637741449E+02 -0.26210945418E+02 -0.52509359530E+03  0.53194103422E+03  0.77992144118E+02 0.  0.
         -6    2    1    2    0  502  0.56252834823E+02 -0.51995084529E+01 -0.66583663412E+02  0.19467437265E+03  0.17399227230E+03 0.  0.
        -24    2    5    5    0    0 -0.31979729611E+02  0.15516974844E+02 -0.50161840808E+02  0.10244680429E+03  0.81949117278E+02 0.  0.
          5    1    3    3  501    0 -0.77890576272E+02  0.31410453871E+02 -0.24400280863E+03  0.25809498078E+03  0.47000000000E+01 0. -1.
        -13    1    4    4    0    0 -0.40847316869E+01 -0.49323438386E+02 -0.34811536002E+03  0.35161597018E+03  0.00000000000E+00 0.  1.
         14    1    4    4    0    0  0.25722473136E+02  0.23112492968E+02 -0.17697823528E+03  0.18032506403E+03  0.00000000000E+00 0. -1.
         -5    1    5    5    0  502  0.88232564433E+02 -0.20716483297E+02 -0.16421822604E+02  0.92227568353E+02  0.47000000000E+01 0.  1.
         11    1    6    6    0    0 -0.56523128999E+02 -0.41312098749E+01 -0.24000471100E+02  0.61546353425E+02  0.00000000000E+00 0. -1.
        -12    1    6    6    0    0  0.24543399389E+02  0.19648184719E+02 -0.26161369708E+02  0.40900450869E+02  0.00000000000E+00 0.  1.
<mgrwt>
<rscale>  2 0.18236928E+03</rscale>
<asrwt>0</asrwt>
<pdfrwt beam="1">  1       21 0.11463871E-01 0.18293367E+03</pdfrwt>
<pdfrwt beam="2">  1       21 0.14003004E+00 0.18293367E+03</pdfrwt>
<totfact> 0.22914233E+04</totfact>
</mgrwt>
</event>
<event>
12    1  0.1029207E-001  0.5382473E+03  0.7546771E-02  0.1004305E+00
         21   -1    0    0  501  502  0.00000000000E+00  0.00000000000E+00  0.11227314540E+04  0.11227314540E+04  0.00000000000E+00 0.  1.
         21   -1    0    0  502  503 -0.00000000000E+00 -0.00000000000E+00 -0.74993289526E+03  0.74993289526E+03  0.00000000000E+00 0. -1.
         -6    2    1    2    0  503 -0.44083000786E+03  0.25585932706E+03 -0.57230808753E+03  0.78503540792E+03  0.17014392014E+03 0.  0.
        -24    2    3    3    0    0 -0.40704727806E+03  0.20764584853E+03 -0.55512188101E+03  0.72352713173E+03  0.80789371756E+02 0.  0.
          6    2    1    2  501    0  0.44083000786E+03 -0.25585932706E+03  0.94510664631E+03  0.10876289414E+04  0.17295967777E+03 0.  0.
         24    2    5    5    0    0  0.38291695878E+03 -0.21687778368E+03  0.89827575938E+03  0.10034345001E+04  0.79498966259E+02 0.  0.
          5    1    5    5  501    0  0.57913049076E+02 -0.38981543379E+02  0.46830886931E+02  0.84194441314E+02  0.47000000000E+01 0. -1.
        -13    1    6    6    0    0  0.18966237326E+03 -0.62503993809E+02  0.41437388306E+03  0.45998291276E+03  0.00000000000E+00 0.  1.
         14    1    6    6    0    0  0.19325458553E+03 -0.15437378987E+03  0.48390187632E+03  0.54345158729E+03  0.00000000000E+00 0. -1.
         -5    1    3    3    0  503 -0.33782729798E+02  0.48213478534E+02 -0.17186206522E+02  0.61508276188E+02  0.47000000000E+01 0.  1.
         11    1    4    4    0    0 -0.22066182689E+03  0.68724381633E+02 -0.29285166476E+03  0.37306404280E+03  0.00000000000E+00 0. -1.
        -12    1    4    4    0    0 -0.18638545117E+03  0.13892146689E+03 -0.26227021625E+03  0.35046308893E+03  0.00000000000E+00 0.  1.
<mgrwt>
<rscale>  2 0.53802260E+03</rscale>
<asrwt>0</asrwt>
<pdfrwt beam="1">  1       21 0.17272792E+00 0.53824729E+03</pdfrwt>
<pdfrwt beam="2">  1       21 0.11537429E+00 0.53824729E+03</pdfrwt>
<totfact> 0.90698843E+01</totfact>
</mgrwt>
</event>
<event>
12    1  0.1029207E-001  0.2045758E+03  0.7546771E-02  0.1146006E+00
         21   -1    0    0  503  502  0.00000000000E+00  0.00000000000E+00  0.65636024744E+03  0.65636024744E+03  0.00000000000E+00 0. -1.
         21   -1    0    0  501  503 -0.00000000000E+00 -0.00000000000E+00 -0.63932881998E+02  0.63932881998E+02  0.00000000000E+00 0.  1.
          6    2    1    2  501    0  0.54878547827E+02 -0.93046943561E+02  0.27216749957E+03  0.34026993240E+03  0.17331788816E+03 0.  0.
         24    2    3    3    0    0  0.24210337484E+02 -0.29943665326E+02  0.25232377779E+03  0.26720539830E+03  0.79048545244E+02 0.  0.
         -6    2    1    2    0  502 -0.54878547827E+02  0.93046943561E+02  0.32025986588E+03  0.38002319704E+03  0.17372927180E+03 0.  0.
        -24    2    5    5    0    0 -0.49750564595E+02  0.10139877059E+02  0.22407852073E+03  0.25285079814E+03  0.10556707292E+03 0.  0.
          5    1    3    3  501    0  0.30668210343E+02 -0.63103278235E+02  0.19843721777E+02  0.73064534102E+02  0.47000000000E+01 0. -1.
        -11    1    4    4    0    0  0.11086262636E+02 -0.27861756533E+02  0.23767750392E+02  0.38263411440E+02  0.00000000000E+00 0.  1.
         12    1    4    4    0    0  0.13124074849E+02 -0.20819087932E+01  0.22855602740E+03  0.22894198686E+03  0.00000000000E+00 0. -1.
         -5    1    5    5    0  502 -0.51279832323E+01  0.82907066502E+02  0.96181345144E+02  0.12717239890E+03  0.47000000000E+01 0.  1.
         13    1    6    6    0    0 -0.55538496878E+01  0.51612522917E+02  0.13912164295E+03  0.14849083913E+03  0.00000000000E+00 0. -1.
        -14    1    6    6    0    0 -0.44196714907E+02 -0.41472645858E+02  0.84956877785E+02  0.10435995902E+03  0.00000000000E+00 0.  1.
<mgrwt>
<rscale>  2 0.20448841E+03</rscale>
<asrwt>0</asrwt>
<pdfrwt beam="1">  1       21 0.10097850E+00 0.20457578E+03</pdfrwt>
<pdfrwt beam="2">  1       21 0.98358284E-02 0.20457578E+03</pdfrwt>
<totfact> 0.66639212E+04</totfact>
</mgrwt>
</event>
<event>
12    1  0.1029207E-001  0.1813119E+03  0.7546771E-02  0.1166934E+00
         21   -1    0    0  503  502  0.00000000000E+00  0.00000000000E+00  0.44322960634E+03  0.44322960634E+03  0.00000000000E+00 0.  1.
         21   -1    0    0  501  503 -0.00000000000E+00 -0.00000000000E+00 -0.10131360720E+03  0.10131360720E+03  0.00000000000E+00 0.  1.
          6    2    1    2  501    0  0.40002015855E+01  0.52168576118E+02  0.27740411298E+02  0.18180321484E+03  0.17188751136E+03 0.  0.
         24    2    3    3    0    0 -0.80113692622E+01  0.85539635519E+02 -0.11507837207E+02  0.12869558403E+03  0.95125768063E+02 0.  0.
         -6    2    1    2    0  502 -0.40002015855E+01 -0.52168576118E+02  0.31417558784E+03  0.36273999870E+03  0.17359851588E+03 0.  0.
        -24    2    5    5    0    0 -0.65305085645E+02 -0.43055505220E+01  0.18667159339E+03  0.21331270323E+03  0.79829403154E+02 0.  0.
          5    1    3    3  501    0  0.12011570848E+02 -0.33371059401E+02  0.39248248505E+02  0.53107630812E+02  0.47000000000E+01 0. -1.
        -11    1    4    4    0    0 -0.15585769990E+02  0.48855476572E+02  0.39979567738E+02  0.65024146698E+02  0.00000000000E+00 0.  1.
         12    1    4    4    0    0  0.75744007274E+01  0.36684158947E+02 -0.51487404945E+02  0.63671437333E+02  0.00000000000E+00 0. -1.
         -5    1    5    5    0  502  0.61304884059E+02 -0.47863025596E+02  0.12750399445E+03  0.14942729547E+03  0.47000000000E+01 0.  1.
         11    1    6    6    0    0  0.31768647813E+01  0.21678711798E+02  0.14678537671E+02  0.26372684415E+02  0.00000000000E+00 0. -1.
        -12    1    6    6    0    0 -0.68481950426E+02 -0.25984262320E+02  0.17199305571E+03  0.18694001882E+03  0.00000000000E+00 0.  1.
<mgrwt>
<rscale>  2 0.18090113E+03</rscale>
<asrwt>0</asrwt>
<pdfrwt beam="1">  1       21 0.68189169E-01 0.18131190E+03</pdfrwt>
<pdfrwt beam="2">  1       21 0.15586709E-01 0.18131190E+03</pdfrwt>
<totfact> 0.72146421E+04</totfact>
</mgrwt>
</event>
<event>
12    1  0.1029207E-001  0.2272291E+03  0.7546771E-02  0.1128727E+00
         21   -1    0    0  501  502  0.00000000000E+00  0.00000000000E+00  0.26798056148E+02  0.26798056148E+02  0.00000000000E+00 0.  1.
         21   -1    0    0  502  503 -0.00000000000E+00 -0.00000000000E+00 -0.19301233610E+04  0.19301233610E+04  0.00000000000E+00 0.  1.
         -6    2    1    2    0  503 -0.42634755773E+02  0.14003123643E+03 -0.88301750241E+03  0.91161711651E+03  0.17291439494E+03 0.  0.
        -24    2    3    3    0    0 -0.58336340521E+02  0.79143566479E+02 -0.78350260071E+03  0.79380729614E+03  0.81159505560E+02 0.  0.
          6    2    1    2  501    0  0.42634755773E+02 -0.14003123643E+03 -0.10203078024E+04  0.10453043006E+04  0.17380045923E+03 0.  0.
         24    2    5    5    0    0 -0.42231188732E+02 -0.67720791845E+02 -0.45442857912E+03  0.46852668810E+03  0.81500582778E+02 0.  0.
          5    1    5    5  501    0  0.84865944505E+02 -0.72310444589E+02 -0.56587922331E+03  0.57677761252E+03  0.47000000000E+01 0. -1.
        -11    1    6    6    0    0 -0.50674305137E+02 -0.63369422159E+02 -0.22991686665E+03  0.24381413913E+03  0.00000000000E+00 0.  1.
         12    1    6    6    0    0  0.84431164055E+01 -0.43513696857E+01 -0.22451171247E+03  0.22471254898E+03  0.00000000000E+00 0. -1.
         -5    1    3    3    0  503  0.15701584748E+02  0.60887669954E+02 -0.99514901697E+02  0.11780982037E+03  0.47000000000E+01 0.  1.
         11    1    4    4    0    0 -0.58464281153E+02  0.12398471505E+02 -0.41951705364E+03  0.42375270213E+03  0.00000000000E+00 0. -1.
        -12    1    4    4    0    0  0.12794063166E+00  0.66745094975E+02 -0.36398554707E+03  0.37005459401E+03  0.00000000000E+00 0.  1.
<mgrwt>
<rscale>  2 0.22705967E+03</rscale>
<asrwt>0</asrwt>
<pdfrwt beam="1">  1       21 0.41227774E-02 0.22722911E+03</pdfrwt>
<pdfrwt beam="2">  1       21 0.29694209E+00 0.22722911E+03</pdfrwt>
<totfact> 0.12801018E+04</totfact>
</mgrwt>
</event>
<event>
12    1  0.1029207E-001  0.1965677E+03  0.7546771E-02  0.1157685E+00
         21   -1    0    0  501  502  0.00000000000E+00  0.00000000000E+00  0.53962224473E+03  0.53962224473E+03  0.00000000000E+00 0. -1.
         21   -1    0    0  502  503 -0.00000000000E+00 -0.00000000000E+00 -0.83316734025E+02  0.83316734025E+02  0.00000000000E+00 0. -1.
         -6    2    1    2    0  503  0.28823035707E+02  0.74404234290E+01  0.88155769976E+02  0.21543053297E+03  0.19430066255E+03 0.  0.
        -24    2    3    3    0    0  0.51437102453E+02 -0.91144961957E+01 -0.17792036517E+02  0.10573783002E+03  0.90194692666E+02 0.  0.
          6    2    1    2  501    0 -0.28823035707E+02 -0.74404234290E+01  0.36814974073E+03  0.40750844578E+03  0.17217077133E+03 0.  0.
         24    2    5    5    0    0 -0.31494405459E+01 -0.28115793223E+02  0.78354067203E+02  0.11580615440E+03  0.80444320781E+02 0.  0.
          5    1    5    5  501    0 -0.25673595161E+02  0.20675369794E+02  0.28979567352E+03  0.29170229138E+03  0.47000000000E+01 0. -1.
        -13    1    6    6    0    0 -0.26116645141E+02 -0.20704147744E+02 -0.51045315698E+00  0.33331688371E+02  0.00000000000E+00 0.  1.
         14    1    6    6    0    0  0.22967204595E+02 -0.74116454787E+01  0.78864520360E+02  0.82474466031E+02  0.00000000000E+00 0. -1.
         -5    1    3    3    0  503 -0.22614066746E+02  0.16554919625E+02  0.10594780649E+03  0.10969270294E+03  0.47000000000E+01 0.  1.
         13    1    4    4    0    0  0.68785066316E+02  0.14616256037E+02  0.19161996642E+01  0.70346941012E+02  0.00000000000E+00 0. -1.
        -14    1    4    4    0    0 -0.17347963863E+02 -0.23730752233E+02 -0.19708236181E+02  0.35390889012E+02  0.00000000000E+00 0.  1.
<mgrwt>
<rscale>  2 0.19086358E+03</rscale>
<asrwt>0</asrwt>
<pdfrwt beam="1">  1       21 0.83018805E-01 0.19656774E+03</pdfrwt>
<pdfrwt beam="2">  1       21 0.12817959E-01 0.19656774E+03</pdfrwt>
<totfact> 0.65808901E+04</totfact>
</mgrwt>
</event>
<event>
12    1  0.1029207E-001  0.2088772E+03  0.7546771E-02  0.1142696E+00
         21   -1    0    0  501  502  0.00000000000E+00  0.00000000000E+00  0.74650587969E+03  0.74650587969E+03  0.00000000000E+00 0. -1.
         21   -1    0    0  502  503 -0.00000000000E+00 -0.00000000000E+00 -0.99536607756E+02  0.99536607756E+02  0.00000000000E+00 0. -1.
         -6    2    1    2    0  503 -0.39302691008E+02  0.10950915157E+03  0.59691511226E+03  0.63240600540E+03  0.17347261636E+03 0.  0.
        -24    2    3    3    0    0 -0.28454995678E+02  0.91314416619E+02  0.24490119757E+03  0.27972398572E+03  0.95503414352E+02 0.  0.
          6    2    1    2  501    0  0.39302691008E+02 -0.10950915157E+03  0.50054159674E+02  0.21363648204E+03  0.17204119205E+03 0.  0.
         24    2    5    5    0    0  0.12941839552E+02 -0.10527081682E+02 -0.24932631854E+02  0.86603204700E+02  0.81241419691E+02 0.  0.
          5    1    5    5  501    0  0.26360851456E+02 -0.98982069889E+02  0.74986791528E+02  0.12703327734E+03  0.47000000000E+01 0. -1.
        -13    1    6    6    0    0 -0.22287964709E+02  0.44564702977E+00  0.18957407024E+02  0.29263206476E+02  0.00000000000E+00 0.  1.
         14    1    6    6    0    0  0.35229804261E+02 -0.10972728712E+02 -0.43890038878E+02  0.57339998224E+02  0.00000000000E+00 0. -1.
         -5    1    3    3    0  503 -0.10847695330E+02  0.18194734951E+02  0.35201391469E+03  0.35268201968E+03  0.47000000000E+01 0.  1.
         13    1    4    4    0    0 -0.22111545459E+02  0.10704341159E+03  0.23704726711E+03  0.26103375117E+03  0.00000000000E+00 0. -1.
        -14    1    4    4    0    0 -0.63434502190E+01 -0.15728994974E+02  0.78539304593E+01  0.18690234542E+02  0.00000000000E+00 0.  1.
<mgrwt>
<rscale>  2 0.20857980E+03</rscale>
<asrwt>0</asrwt>
<pdfrwt beam="1">  1       21 0.11484705E+00 0.20887725E+03</pdfrwt>
<pdfrwt beam="2">  1       21 0.15313325E-01 0.20887725E+03</pdfrwt>
<totfact> 0.21998459E+04</totfact>
</mgrwt>
</event>
<event>
12    1  0.1029207E-001  0.2246295E+03  0.7546771E-02  0.1130591E+00
         21   -1    0    0  503  502  0.00000000000E+00  0.00000000000E+00  0.25902832513E+03  0.25902832513E+03  0.00000000000E+00 0. -1.
         21   -1    0    0  501  503 -0.00000000000E+00 -0.00000000000E+00 -0.27920100552E+03  0.27920100552E+03  0.00000000000E+00 0.  1.
          6    2    1    2  501    0  0.43736272441E+02 -0.13632943046E+03 -0.15851158789E+03  0.27441870590E+03  0.17228211607E+03 0.  0.
         24    2    3    3    0    0  0.70446528721E+02 -0.10076453617E+03 -0.17186370667E+03  0.22774249598E+03  0.84931181836E+02 0.  0.
         -6    2    1    2    0  502 -0.43736272441E+02  0.13632943046E+03  0.13833890749E+03  0.26381062476E+03  0.17308904434E+03 0.  0.
        -24    2    5    5    0    0  0.23142872821E+02  0.53739453545E+02  0.11754557121E+03  0.15542069353E+03  0.83157135809E+02 0.  0.
          5    1    3    3  501    0 -0.26710256281E+02 -0.35564894287E+02  0.13352118780E+02  0.46676209917E+02  0.47000000000E+01 0. -1.
        -11    1    4    4    0    0 -0.31917862139E+01  0.93452253417E+01 -0.38601724346E+02  0.39844872423E+02  0.00000000000E+00 0.  1.
         12    1    4    4    0    0  0.73638314935E+02 -0.11010976151E+03 -0.13326198232E+03  0.18789762356E+03  0.00000000000E+00 0. -1.
         -5    1    5    5    0  502 -0.66879145261E+02  0.82589976914E+02  0.20793336279E+02  0.10838993123E+03  0.47000000000E+01 0.  1.
         13    1    6    6    0    0 -0.18552022047E+02  0.41464411877E+02  0.97487698497E+02  0.10755150549E+03  0.00000000000E+00 0. -1.
        -14    1    6    6    0    0  0.41694894868E+02  0.12275041668E+02  0.20057872715E+02  0.47869188042E+02  0.00000000000E+00 0.  1.
<mgrwt>
<rscale>  2 0.22447400E+03</rscale>
<asrwt>0</asrwt>
<pdfrwt beam="1">  1       21 0.39850512E-01 0.22462946E+03</pdfrwt>
<pdfrwt beam="2">  1       21 0.42954001E-01 0.22462946E+03</pdfrwt>
<totfact> 0.31108464E+04</totfact>
</mgrwt>
</event>
<event>
12    1  0.1029207E-001  0.2033856E+03  0.7546771E-02  0.1147228E+00
         21   -1    0    0  501  502  0.00000000000E+00  0.00000000000E+00  0.40842050720E+02  0.40842050720E+02  0.00000000000E+00 0. -1.
         21   -1    0    0  502  503 -0.00000000000E+00 -0.00000000000E+00 -0.11637494437E+04  0.11637494437E+04  0.00000000000E+00 0. -1.
         -6    2    1    2    0  503 -0.70956082197E+02 -0.80053589290E+02 -0.78189323933E+03  0.80753186046E+03  0.17119382343E+03 0.  0.
        -24    2    3    3    0    0 -0.70085760069E+01 -0.10272151128E+03 -0.44519919554E+03  0.46403791967E+03  0.80796275661E+02 0.  0.
          6    2    1    2  501    0  0.70956082197E+02  0.80053589290E+02 -0.34101415360E+03  0.39705963392E+03  0.17298080001E+03 0.  0.
         24    2    5    5    0    0 -0.18943440341E+02  0.52826388244E+01 -0.10506544059E+03  0.13368441801E+03  0.80287088661E+02 0.  0.
          5    1    5    5  501    0  0.89899522538E+02  0.74770950466E+02 -0.23594871301E+03  0.26337521591E+03  0.47000000000E+01 0. -1.
        -13    1    6    6    0    0 -0.33152507686E+02  0.96855690132E+01 -0.11204883397E+03  0.11725118424E+03  0.00000000000E+00 0.  1.
         14    1    6    6    0    0  0.14209067345E+02 -0.44029301887E+01  0.69833933703E+01  0.16433233766E+02  0.00000000000E+00 0. -1.
         -5    1    3    3    0  503 -0.63947506190E+02  0.22667921990E+02 -0.33669404379E+03  0.34349394079E+03  0.47000000000E+01 0.  1.
         11    1    4    4    0    0 -0.42829940265E+02 -0.65467821889E+02 -0.23992723341E+03  0.25235989542E+03  0.00000000000E+00 0. -1.
        -12    1    4    4    0    0  0.35821364258E+02 -0.37253689392E+02 -0.20527196214E+03  0.21167802425E+03  0.00000000000E+00 0.  1.
<mgrwt>
<rscale>  2 0.20300512E+03</rscale>
<asrwt>0</asrwt>
<pdfrwt beam="1">  1       21 0.62833920E-02 0.20338559E+03</pdfrwt>
<pdfrwt beam="2">  1       21 0.17903839E+00 0.20338559E+03</pdfrwt>
<totfact> 0.33416428E+04</totfact>
</mgrwt>
</event>
<event>
12    1  0.1029207E-001  0.1978861E+03  0.7546771E-02  0.1152013E+00
         21   -1    0    0  501  502  0.00000000000E+00  0.00000000000E+00  0.14603281417E+04  0.14603281417E+04  0.00000000000E+00 0. -1.
         21   -1    0    0  502  503 -0.00000000000E+00 -0.00000000000E+00 -0.38247930089E+02  0.38247930089E+02  0.00000000000E+00 0.  1.
         -6    2    1    2    0  503 -0.35939075587E+02 -0.88104178231E+02  0.29882560871E+03  0.35840708681E+03  0.17350772917E+03 0.  0.
        -24    2    3    3    0    0 -0.62242313992E+02  0.65926593836E+00  0.19821490640E+03  0.22160280037E+03  0.77098065655E+02 0.  0.
          6    2    1    2  501    0  0.35939075587E+02  0.88104178231E+02  0.11232546030E+04  0.11401689850E+04  0.17096914337E+03 0.  0.
         24    2    5    5    0    0  0.49154187011E+02 -0.36184530032E+01  0.40625991919E+03  0.41719516337E+03  0.81089179916E+02 0.  0.
          5    1    5    5  501    0 -0.13215111424E+02  0.91722631234E+02  0.71699468377E+03  0.72297382166E+03  0.47000000000E+01 0. -1.
        -13    1    6    6    0    0 -0.18405186008E+02  0.85701688337E+00  0.32565634085E+02  0.37416652352E+02  0.00000000000E+00 0.  1.
         14    1    6    6    0    0  0.67559373019E+02 -0.44754698866E+01  0.37369428510E+03  0.37977851102E+03  0.00000000000E+00 0. -1.
         -5    1    3    3    0  503  0.26303238405E+02 -0.88763444169E+02  0.10061070230E+03  0.13680428644E+03  0.47000000000E+01 0.  1.
         11    1    4    4    0    0  0.97466847279E+01 -0.15890477282E+02  0.80507519343E+02  0.82637556850E+02  0.00000000000E+00 0. -1.
        -12    1    4    4    0    0 -0.71988998720E+02  0.16549743221E+02  0.11770738706E+03  0.13896524352E+03  0.00000000000E+00 0.  1.
<mgrwt>
<rscale>  2 0.19732820E+03</rscale>
<asrwt>0</asrwt>
<pdfrwt beam="1">  1       21 0.22466583E+00 0.19788607E+03</pdfrwt>
<pdfrwt beam="2">  1       21 0.58842980E-02 0.19788607E+03</pdfrwt>
<totfact> 0.19122771E+04</totfact>
</mgrwt>
</event>
<event>
12    1  0.1029207E-001  0.1812529E+03  0.7546771E-02  0.1166671E+00
         21   -1    0    0  503  502  0.00000000000E+00  0.00000000000E+00  0.10819038233E+03  0.10819038233E+03  0.00000000000E+00 0.  1.
         21   -1    0    0  501  503 -0.00000000000E+00 -0.00000000000E+00 -0.46938513816E+03  0.46938513816E+03  0.00000000000E+00 0. -1.
          6    2    1    2  501    0  0.38853290856E+01 -0.54593654999E+02 -0.35256707117E+03  0.39642924946E+03  0.17279191881E+03 0.  0.
         24    2    3    3    0    0  0.13106086547E+02 -0.92508174433E+02 -0.17556896457E+03  0.21512025108E+03  0.81992251247E+02 0.  0.
         -6    2    1    2    0  502 -0.38853290856E+01  0.54593654999E+02 -0.86276846558E+01  0.18114627103E+03  0.17246440681E+03 0.  0.
        -24    2    5    5    0    0 -0.14690124139E+02 -0.35485094635E+02 -0.23211869171E+02  0.89136960795E+02  0.77016980081E+02 0.  0.
          5    1    3    3  501    0 -0.92207574612E+01  0.37914519433E+02 -0.17699810661E+03  0.18130899838E+03  0.47000000000E+01 0. -1.
        -11    1    4    4    0    0  0.33611311235E+02 -0.85257645788E+01 -0.30174969867E+02  0.45966702199E+02  0.00000000000E+00 0.  1.
         12    1    4    4    0    0 -0.20505224688E+02 -0.83982409854E+02 -0.14539399470E+03  0.16915354888E+03  0.00000000000E+00 0. -1.
         -5    1    5    5    0  502  0.10804795053E+02  0.90078749634E+02  0.14584184516E+02  0.92009310234E+02  0.47000000000E+01 0.  1.
         11    1    6    6    0    0 -0.41535096689E+02 -0.87663099880E+00 -0.17046511737E+02  0.44905637745E+02  0.00000000000E+00 0. -1.
        -12    1    6    6    0    0  0.26844972550E+02 -0.34608463636E+02 -0.61653574343E+01  0.44231323050E+02  0.00000000000E+00 0.  1.
<mgrwt>
<rscale>  2 0.18117479E+03</rscale>
<asrwt>0</asrwt>
<pdfrwt beam="1">  1       21 0.16644674E-01 0.18125289E+03</pdfrwt>
<pdfrwt beam="2">  1       21 0.72213098E-01 0.18125289E+03</pdfrwt>
<totfact> 0.56393976E+04</totfact>
</mgrwt>
</event>
<event>
12    1  0.1029207E-001  0.2004516E+03  0.7546771E-02  0.1149376E+00
         21   -1    0    0  503  502  0.00000000000E+00  0.00000000000E+00  0.58288496707E+02  0.58288496707E+02  0.00000000000E+00 0. -1.
         21   -1    0    0  501  503 -0.00000000000E+00 -0.00000000000E+00 -0.79864469697E+03  0.79864469697E+03  0.00000000000E+00 0. -1.
          6    2    1    2  501    0  0.10049008104E+03  0.82962777246E+01 -0.52895513466E+03  0.56566277694E+03  0.17324479249E+03 0.  0.
         24    2    3    3    0    0  0.11671815189E+02 -0.48093126147E+02 -0.13469558760E+03  0.15758051849E+03  0.65111738084E+02 0.  0.
         -6    2    1    2    0  502 -0.10049008104E+03 -0.82962777246E+01 -0.21140106560E+03  0.29127041673E+03  0.17315010977E+03 0.  0.
        -24    2    5    5    0    0 -0.10550859438E+03  0.50791460515E+02 -0.15027393633E+03  0.20597585524E+03  0.78306839119E+02 0.  0.
          5    1    3    3  501    0  0.88818265848E+02  0.56389403872E+02 -0.39425954706E+03  0.40808225845E+03  0.47000000000E+01 0. -1.
        -11    1    4    4    0    0  0.82109776101E+01  0.15672457153E+02 -0.34334444817E+02  0.38625123526E+02  0.00000000000E+00 0.  1.
         12    1    4    4    0    0  0.34608375789E+01 -0.63765583300E+02 -0.10036114278E+03  0.11895539496E+03  0.00000000000E+00 0. -1.
         -5    1    5    5    0  502  0.50185133459E+01 -0.59087738239E+02 -0.61127129274E+02  0.85294561490E+02  0.47000000000E+01 0.  1.
         13    1    6    6    0    0 -0.10388873387E+03  0.50985742490E+02 -0.15924719473E+03  0.19685549012E+03  0.00000000000E+00 0. -1.
        -14    1    6    6    0    0 -0.16198605124E+01 -0.19428197511E+00  0.89732584007E+01  0.91203651183E+01  0.00000000000E+00 0.  1.
<mgrwt>
<rscale>  2 0.20043114E+03</rscale>
<asrwt>0</asrwt>
<pdfrwt beam="1">  1       21 0.89674615E-02 0.20045160E+03</pdfrwt>
<pdfrwt beam="2">  1       21 0.12286841E+00 0.20045160E+03</pdfrwt>
<totfact> 0.48747723E+04</totfact>
</mgrwt>
</event>
<event>
12    1  0.1029207E-001  0.2134394E+03  0.7546771E-02  0.1140161E+00
         21   -1    0    0  503  502  0.00000000000E+00  0.00000000000E+00  0.82462515297E+02  0.82462515297E+02  0.00000000000E+00 0. -1.
         21   -1    0    0  501  503 -0.00000000000E+00 -0.00000000000E+00 -0.53735988306E+03  0.53735988306E+03  0.00000000000E+00 0. -1.
          6    2    1    2  501    0  0.12552235388E+03 -0.19230633618E+02 -0.20640455089E+03  0.29224788356E+03  0.16334107943E+03 0.  0.
         24    2    3    3    0    0  0.37758803262E+01 -0.67505781420E+01 -0.13342482535E+03  0.14967830074E+03  0.67391261411E+02 0.  0.
         -6    2    1    2    0  502 -0.12552235388E+03  0.19230633618E+02 -0.24849281687E+03  0.32757451479E+03  0.17155379363E+03 0.  0.
        -24    2    5    5    0    0 -0.13954516470E+03 -0.25682424303E+02 -0.21107042326E+03  0.26727237935E+03  0.82166667674E+02 0.  0.
          5    1    3    3  501    0  0.12174647356E+03 -0.12480055476E+02 -0.72979725534E+02  0.14256958282E+03  0.47000000000E+01 0. -1.
        -11    1    4    4    0    0 -0.33706901057E+01 -0.11062493975E+02 -0.13910329979E+03  0.13958319504E+03  0.00000000000E+00 0.  1.
         12    1    4    4    0    0  0.71465704319E+01  0.43119158333E+01  0.56784744404E+01  0.10095105698E+02  0.00000000000E+00 0. -1.
         -5    1    5    5    0  502  0.14022810821E+02  0.44913057921E+02 -0.37422393612E+02  0.60302135442E+02  0.47000000000E+01 0.  1.
         13    1    6    6    0    0 -0.92146767592E+02 -0.53151378802E+02 -0.11482225436E+03  0.15652554406E+03  0.00000000000E+00 0. -1.
        -14    1    6    6    0    0 -0.47398397110E+02  0.27468954499E+02 -0.96248168902E+02  0.11074683529E+03  0.00000000000E+00 0.  1.
<mgrwt>
<rscale>  2 0.21178443E+03</rscale>
<asrwt>0</asrwt>
<pdfrwt beam="1">  1       21 0.12686541E-01 0.21343941E+03</pdfrwt>
<pdfrwt beam="2">  1       21 0.82670750E-01 0.21343941E+03</pdfrwt>
<totfact> 0.67161724E+04</totfact>
</mgrwt>
</event>
<event>
12    1  0.1029207E-001  0.4217862E+03  0.7546771E-02  0.1036510E+00
         21   -1    0    0  503  502  0.00000000000E+00  0.00000000000E+00  0.56909428397E+03  0.56909428397E+03  0.00000000000E+00 0. -1.
         21   -1    0    0  501  503 -0.00000000000E+00 -0.00000000000E+00 -0.42556401391E+03  0.42556401391E+03  0.00000000000E+00 0.  1.
          6    2    1    2  501    0 -0.32102529057E+03 -0.21118772491E+03 -0.18468278401E+03  0.46044692078E+03  0.17391418518E+03 0.  0.
         24    2    3    3    0    0 -0.12843853274E+03 -0.59217293613E+02 -0.19590440576E+02  0.16470675925E+03  0.82105947566E+02 0.  0.
         -6    2    1    2    0  502  0.32102529057E+03  0.21118772491E+03  0.32821305407E+03  0.53421137711E+03  0.17320650747E+03 0.  0.
        -24    2    5    5    0    0  0.11663184332E+03  0.25000796370E+02  0.11463734643E+03  0.18481342844E+03  0.82378731721E+02 0.  0.
          5    1    3    3  501    0 -0.19258675783E+03 -0.15197043130E+03 -0.16509234343E+03  0.29574016153E+03  0.47000000000E+01 0. -1.
        -13    1    4    4    0    0 -0.13438984014E+03 -0.40634953322E+02 -0.28491054220E+02  0.14326049259E+03  0.00000000000E+00 0.  1.
         14    1    4    4    0    0  0.59513074057E+01 -0.18582340291E+02  0.89006136444E+01  0.21446266663E+02  0.00000000000E+00 0. -1.
         -5    1    5    5    0  502  0.20439344725E+03  0.18618692854E+03  0.21357570764E+03  0.34939794867E+03  0.47000000000E+01 0.  1.
         13    1    6    6    0    0  0.33131622471E+02  0.35878518163E+02  0.80071468322E+02  0.93789191874E+02  0.00000000000E+00 0. -1.
        -14    1    6    6    0    0  0.83500220845E+02 -0.10877721792E+02  0.34565878105E+02  0.91024236563E+02  0.00000000000E+00 0.  1.
<mgrwt>
<rscale>  2 0.42171340E+03</rscale>
<asrwt>0</asrwt>
<pdfrwt beam="1">  1       21 0.87552967E-01 0.42178624E+03</pdfrwt>
<pdfrwt beam="2">  1       21 0.65471387E-01 0.42178624E+03</pdfrwt>
<totfact> 0.20977593E+03</totfact>
</mgrwt>
</event>
<event>
12    1  0.1029207E-001  0.1909879E+03  0.7546771E-02  0.1157638E+00
         21   -1    0    0  501  502  0.00000000000E+00  0.00000000000E+00  0.57416645752E+03  0.57416645752E+03  0.00000000000E+00 0. -1.
         21   -1    0    0  502  503 -0.00000000000E+00 -0.00000000000E+00 -0.80488359859E+02  0.80488359859E+02  0.00000000000E+00 0. -1.
         -6    2    1    2    0  503  0.11859962266E+02  0.80738160007E+02  0.96312829879E+02  0.21389841087E+03  0.17267617029E+03 0.  0.
        -24    2    3    3    0    0 -0.68801339403E+01  0.10726335170E+03  0.11425665502E+03  0.17649723628E+03  0.80894550731E+02 0.  0.
          6    2    1    2  501    0 -0.11859962266E+02 -0.80738160007E+02  0.39736526778E+03  0.44075640651E+03  0.17235934745E+03 0.  0.
         24    2    5    5    0    0  0.45965244311E+02 -0.85462039612E+02  0.31877993043E+03  0.34296164795E+03  0.81150995212E+02 0.  0.
          5    1    5    5  501    0 -0.57825206577E+02  0.47238796057E+01  0.78585337359E+02  0.97794758561E+02  0.47000000000E+01 0. -1.
        -13    1    6    6    0    0  0.48445630202E+02 -0.37632536367E+02  0.88045054904E+02  0.10730852050E+03  0.00000000000E+00 0.  1.
         14    1    6    6    0    0 -0.24803858915E+01 -0.47829503246E+02  0.23073487552E+03  0.23565312745E+03  0.00000000000E+00 0. -1.
         -5    1    3    3    0  503  0.18740096206E+02 -0.26525191690E+02 -0.17943825141E+02  0.37401174589E+02  0.47000000000E+01 0.  1.
         13    1    4    4    0    0  0.36805704558E+02  0.50705147779E+02  0.46582832133E+02  0.78074529450E+02  0.00000000000E+00 0. -1.
        -14    1    4    4    0    0 -0.43685838498E+02  0.56558203918E+02  0.67673822886E+02  0.98422706830E+02  0.00000000000E+00 0.  1.
<mgrwt>
<rscale>  2 0.19091624E+03</rscale>
<asrwt>0</asrwt>
<pdfrwt beam="1">  1       21 0.88333299E-01 0.19098788E+03</pdfrwt>
<pdfrwt beam="2">  1       21 0.12382825E-01 0.19098788E+03</pdfrwt>
<totfact> 0.60898871E+04</totfact>
</mgrwt>
</event>
<event>
12    1  0.1029207E-001  0.2060625E+03  0.7546771E-02  0.1145012E+00
         21   -1    0    0  501  502  0.00000000000E+00  0.00000000000E+00  0.14042343303E+03  0.14042343303E+03  0.00000000000E+00 0.  1.
         21   -1    0    0  502  503 -0.00000000000E+00 -0.00000000000E+00 -0.30041862238E+03  0.30041862238E+03  0.00000000000E+00 0. -1.
         -6    2    1    2    0  503  0.10901890054E+03  0.10078612935E+02 -0.84639197870E+02  0.22276795695E+03  0.17457110217E+03 0.  0.
        -24    2    3    3    0    0  0.13650149983E+03  0.76079700332E+01 -0.31052655544E+02  0.16231132077E+03  0.81793378527E+02 0.  0.
          6    2    1    2  501    0 -0.10901890054E+03 -0.10078612935E+02 -0.75355991478E+02  0.21807409845E+03  0.17289039259E+03 0.  0.
         24    2    5    5    0    0 -0.12417479495E+03 -0.40446128230E+02 -0.22917071483E+02  0.15543371650E+03  0.81112138853E+02 0.  0.
          5    1    5    5  501    0  0.15155894415E+02  0.30367515294E+02 -0.52438919995E+02  0.62640381951E+02  0.47000000000E+01 0. -1.
        -13    1    6    6    0    0  0.95316920859E+01  0.69102419211E+01 -0.15660813083E+00  0.11774086951E+02  0.00000000000E+00 0.  1.
         14    1    6    6    0    0 -0.13370648704E+03 -0.47356370151E+02 -0.22760463352E+02  0.14365962955E+03  0.00000000000E+00 0. -1.
         -5    1    3    3    0  503 -0.27482599287E+02  0.24706429022E+01 -0.53586542326E+02  0.60456636182E+02  0.47000000000E+01 0.  1.
         13    1    4    4    0    0  0.74810219176E+01  0.27187290923E+01 -0.32224412530E+02  0.33192920024E+02  0.00000000000E+00 0. -1.
        -14    1    4    4    0    0  0.12902047791E+03  0.48892409409E+01  0.11717569860E+01  0.12911840074E+03  0.00000000000E+00 0.  1.
<mgrwt>
<rscale>  2 0.20570614E+03</rscale>
<asrwt>0</asrwt>
<pdfrwt beam="1">  1       21 0.21603605E-01 0.20606254E+03</pdfrwt>
<pdfrwt beam="2">  1       21 0.46218250E-01 0.20606254E+03</pdfrwt>
<totfact> 0.89095192E+04</totfact>
</mgrwt>
</event>
<event>
12    1  0.1029207E-001  0.1776887E+03  0.7546771E-02  0.1170458E+00
         21   -1    0    0  503  502  0.00000000000E+00  0.00000000000E+00  0.36838060333E+02  0.36838060333E+02  0.00000000000E+00 0. -1.
         21   -1    0    0  501  503 -0.00000000000E+00 -0.00000000000E+00 -0.85412889728E+03  0.85412889728E+03  0.00000000000E+00 0.  1.
          6    2    1    2  501    0 -0.21151314149E+02  0.25882496007E+02 -0.44391945569E+03  0.47816081610E+03  0.17451647838E+03 0.  0.
         24    2    3    3    0    0 -0.37641343075E+02  0.81198063726E+02 -0.28828330608E+03  0.31209927886E+03  0.79301318012E+02 0.  0.
         -6    2    1    2    0  502  0.21151314149E+02 -0.25882496007E+02 -0.37337138125E+03  0.41280614150E+03  0.17287405947E+03 0.  0.
        -24    2    5    5    0    0  0.37229063606E+02  0.45300831549E+02 -0.25996439757E+03  0.27786617671E+03  0.78676271157E+02 0.  0.
          5    1    3    3  501    0  0.16490028926E+02 -0.55315567719E+02 -0.15563614961E+03  0.16606153725E+03  0.47000000000E+01 0. -1.
        -11    1    4    4    0    0 -0.77686523162E+01  0.25541228045E+02 -0.20914757267E+03  0.21084452433E+03  0.00000000000E+00 0.  1.
         12    1    4    4    0    0 -0.29872690759E+02  0.55656835681E+02 -0.79135733412E+02  0.10125475453E+03  0.00000000000E+00 0. -1.
         -5    1    5    5    0  502 -0.16077749457E+02 -0.71183327556E+02 -0.11340698368E+03  0.13493996479E+03  0.47000000000E+01 0.  1.
         11    1    6    6    0    0  0.21957301867E+02  0.46544229712E+02 -0.67938054116E+02  0.85229499716E+02  0.00000000000E+00 0. -1.
        -12    1    6    6    0    0  0.15271761739E+02 -0.12433981630E+01 -0.19202634345E+03  0.19263667700E+03  0.00000000000E+00 0.  1.
<mgrwt>
<rscale>  2 0.17728414E+03</rscale>
<asrwt>0</asrwt>
<pdfrwt beam="1">  1       21 0.56673941E-02 0.17768872E+03</pdfrwt>
<pdfrwt beam="2">  1       21 0.13140444E+00 0.17768872E+03</pdfrwt>
<totfact> 0.92071977E+04</totfact>
</mgrwt>
</event>
<event>
12    1  0.1029207E-001  0.2441803E+03  0.7546771E-02  0.1117041E+00
         21   -1    0    0  501  502  0.00000000000E+00  0.00000000000E+00  0.26602077934E+03  0.26602077934E+03  0.00000000000E+00 0.  1.
         21   -1    0    0  502  503 -0.00000000000E+00 -0.00000000000E+00 -0.28440658417E+03  0.28440658417E+03  0.00000000000E+00 0.  1.
         -6    2    1    2    0  503  0.15916443701E+03 -0.66194443869E+02 -0.13590108662E+03  0.27944053702E+03  0.17292450947E+03 0.  0.
        -24    2    3    3    0    0  0.18720084414E+03 -0.61332930772E+02 -0.10487356321E+03  0.23707933256E+03  0.80014131378E+02 0.  0.
          6    2    1    2  501    0 -0.15916443701E+03  0.66194443869E+02  0.11751528178E+03  0.27098682650E+03  0.17294217610E+03 0.  0.
         24    2    5    5    0    0 -0.94292975815E+02  0.10882775760E+03  0.96352734117E+02  0.19038999442E+03  0.78929427285E+02 0.  0.
          5    1    5    5  501    0 -0.64871461194E+02 -0.42633313731E+02  0.21162547666E+02  0.80596832077E+02  0.47000000000E+01 0. -1.
        -11    1    6    6    0    0 -0.60700762573E+02  0.39587255268E+02  0.86434159666E+02  0.11279449150E+03  0.00000000000E+00 0.  1.
         12    1    6    6    0    0 -0.33592213242E+02  0.69240502332E+02  0.99185744505E+01  0.77595502916E+02  0.00000000000E+00 0. -1.
         -5    1    3    3    0  503 -0.28036407133E+02 -0.48615130972E+01 -0.31027523404E+02  0.42361204458E+02  0.47000000000E+01 0.  1.
         11    1    4    4    0    0  0.71158981221E+02 -0.31217500536E+02  0.13763014423E+00  0.77705546071E+02  0.00000000000E+00 0. -1.
        -12    1    4    4    0    0  0.11604186292E+03 -0.30115430236E+02 -0.10501119336E+03  0.15937378649E+03  0.00000000000E+00 0.  1.
<mgrwt>
<rscale>  2 0.24417717E+03</rscale>
<asrwt>0</asrwt>
<pdfrwt beam="1">  1       21 0.40926274E-01 0.24418030E+03</pdfrwt>
<pdfrwt beam="2">  1       21 0.43754859E-01 0.24418030E+03</pdfrwt>
<totfact> 0.28110758E+04</totfact>
</mgrwt>
</event>
<event>
12    1  0.1029207E-001  0.1993936E+03  0.7546771E-02  0.1150875E+00
         21   -1    0    0  503  502  0.00000000000E+00  0.00000000000E+00  0.46667655328E+02  0.46667655328E+02  0.00000000000E+00 0.  1.
         21   -1    0    0  501  503 -0.00000000000E+00 -0.00000000000E+00 -0.11966078309E+04  0.11966078309E+04  0.00000000000E+00 0.  1.
          6    2    1    2  501    0  0.63378825236E+02 -0.74641829818E+02 -0.91753819331E+03  0.93895374956E+03  0.17369378049E+03 0.  0.
         24    2    3    3    0    0 -0.10659298396E+02 -0.46379468928E+02 -0.27022817740E+03  0.28679368371E+03  0.83442635223E+02 0.  0.
         -6    2    1    2    0  502 -0.63378825236E+02  0.74641829818E+02 -0.23240198223E+03  0.30432173663E+03  0.17033132360E+03 0.  0.
        -24    2    5    5    0    0  0.21741653895E+02  0.51200254983E+01 -0.76158321954E+02  0.11323811981E+03  0.80770462423E+02 0.  0.
          5    1    3    3  501    0  0.74038123631E+02 -0.28262360890E+02 -0.64731001591E+03  0.65216006586E+03  0.47000000000E+01 0. -1.
        -11    1    4    4    0    0  0.13365953078E+02  0.77442634701E+00 -0.21720734078E+01  0.13563419213E+02  0.00000000000E+00 0.  1.
         12    1    4    4    0    0 -0.24025251474E+02 -0.47153895275E+02 -0.26805610399E+03  0.27323026449E+03  0.00000000000E+00 0. -1.
         -5    1    5    5    0  502 -0.85120479131E+02  0.69521804320E+02 -0.15624366027E+03  0.19108361682E+03  0.47000000000E+01 0.  1.
         11    1    6    6    0    0  0.10138207522E+02  0.52388884250E+01  0.16386493157E+02  0.19968634446E+02  0.00000000000E+00 0. -1.
        -12    1    6    6    0    0  0.11603446373E+02 -0.11886292672E+00 -0.92544815110E+02  0.93269485363E+02  0.00000000000E+00 0.  1.
<mgrwt>
<rscale>  2 0.19865902E+03</rscale>
<asrwt>0</asrwt>
<pdfrwt beam="1">  1       21 0.71796396E-02 0.19939360E+03</pdfrwt>
<pdfrwt beam="2">  1       21 0.18409350E+00 0.19939360E+03</pdfrwt>
<totfact> 0.24601569E+04</totfact>
</mgrwt>
</event>
<event>
12    1  0.1029207E-001  0.2456087E+03  0.7546771E-02  0.1116921E+00
         21   -1    0    0  501  502  0.00000000000E+00  0.00000000000E+00  0.39226947383E+03  0.39226947383E+03  0.00000000000E+00 0. -1.
         21   -1    0    0  502  503 -0.00000000000E+00 -0.00000000000E+00 -0.17990656999E+03  0.17990656999E+03  0.00000000000E+00 0. -1.
         -6    2    1    2    0  503 -0.52315029857E+02 -0.16426384406E+03 -0.99982295752E+01  0.24086334778E+03  0.16791579704E+03 0.  0.
        -24    2    3    3    0    0 -0.79776458229E+01 -0.99431134610E+02 -0.66514733352E+02  0.14398564634E+03  0.79733702009E+02 0.  0.
          6    2    1    2  501    0  0.52315029857E+02  0.16426384406E+03  0.22236113342E+03  0.33131269605E+03  0.17494043584E+03 0.  0.
         24    2    5    5    0    0 -0.30090518354E+02  0.10312965086E+03  0.69638166524E+02  0.14726254372E+03  0.72770999483E+02 0.  0.
          5    1    5    5  501    0  0.82405548211E+02  0.61134193201E+02  0.15272296689E+03  0.18405015232E+03  0.47000000000E+01 0. -1.
        -13    1    6    6    0    0 -0.11573059151E+01  0.48543993076E+01  0.40426435344E+02  0.40733293806E+02  0.00000000000E+00 0.  1.
         14    1    6    6    0    0 -0.28933212439E+02  0.98275251548E+02  0.29211731180E+02  0.10652924992E+03  0.00000000000E+00 0. -1.
         -5    1    3    3    0  503 -0.44337384034E+02 -0.64832709447E+02  0.56516503776E+02  0.96877701440E+02  0.47000000000E+01 0.  1.
         13    1    4    4    0    0 -0.31693252013E+02 -0.35904902569E+02  0.15386802821E+01  0.47916508519E+02  0.00000000000E+00 0. -1.
        -14    1    4    4    0    0  0.23715606190E+02 -0.63526232041E+02 -0.68053413634E+02  0.96069137820E+02  0.00000000000E+00 0.  1.
<mgrwt>
<rscale>  2 0.24436098E+03</rscale>
<asrwt>0</asrwt>
<pdfrwt beam="1">  1       21 0.60349150E-01 0.24560869E+03</pdfrwt>
<pdfrwt beam="2">  1       21 0.27677934E-01 0.24560869E+03</pdfrwt>
<totfact> 0.31045244E+04</totfact>
</mgrwt>
</event>
<event>
12    1  0.1029207E-001  0.2064278E+03  0.7546771E-02  0.1144594E+00
         21   -1    0    0  501  502  0.00000000000E+00  0.00000000000E+00  0.25612063406E+02  0.25612063406E+02  0.00000000000E+00 0.  1.
         21   -1    0    0  502  503 -0.00000000000E+00 -0.00000000000E+00 -0.26578411569E+04  0.26578411569E+04  0.00000000000E+00 0.  1.
         -6    2    1    2    0  503 -0.42362261624E+02  0.10481813495E+03 -0.21410591904E+04  0.21509874182E+04  0.17271657162E+03 0.  0.
        -24    2    3    3    0    0 -0.76943295597E+01  0.13622585167E+03 -0.17391478188E+04  0.17463355298E+04  0.80224446277E+02 0.  0.
          6    2    1    2  501    0  0.42362261624E+02 -0.10481813495E+03 -0.49116990312E+03  0.53246580206E+03  0.17172813985E+03 0.  0.
         24    2    5    5    0    0  0.72777372214E+02 -0.66128399067E+02 -0.19701482315E+03  0.23418527021E+03  0.79739508222E+02 0.  0.
          5    1    5    5  501    0 -0.30415110590E+02 -0.38689735883E+02 -0.29415507997E+03  0.29828053186E+03  0.47000000000E+01 0. -1.
        -13    1    6    6    0    0 -0.61580963511E+01 -0.11799199477E+02  0.18497833684E+01  0.13437446092E+02  0.00000000000E+00 0.  1.
         14    1    6    6    0    0  0.78935468565E+02 -0.54329199590E+02 -0.19886460652E+03  0.22074782411E+03  0.00000000000E+00 0. -1.
         -5    1    3    3    0  503 -0.34667932064E+02 -0.31407716717E+02 -0.40191137162E+03  0.40465188844E+03  0.47000000000E+01 0.  1.
         13    1    4    4    0    0  0.51435795699E+01 -0.10117198445E+02 -0.11686425806E+03  0.11741409168E+03  0.00000000000E+00 0. -1.
        -14    1    4    4    0    0 -0.12837909130E+02  0.14634305011E+03 -0.16222835607E+04  0.16289214381E+04  0.00000000000E+00 0.  1.
<mgrwt>
<rscale>  2 0.20622087E+03</rscale>
<asrwt>0</asrwt>
<pdfrwt beam="1">  1       21 0.39403172E-02 0.20642775E+03</pdfrwt>
<pdfrwt beam="2">  1       21 0.40889866E+00 0.20642775E+03</pdfrwt>
<totfact> 0.30220753E+03</totfact>
</mgrwt>
</event>
<event>
12    1  0.1029207E-001  0.2164771E+03  0.7546771E-02  0.1137182E+00
         21   -1    0    0  503  502  0.00000000000E+00  0.00000000000E+00  0.30216803808E+03  0.30216803808E+03  0.00000000000E+00 0. -1.
         21   -1    0    0  501  503 -0.00000000000E+00 -0.00000000000E+00 -0.22630061146E+03  0.22630061146E+03  0.00000000000E+00 0. -1.
          6    2    1    2  501    0 -0.10958385131E+03  0.59580822120E+02 -0.11256557408E+03  0.24399458831E+03  0.17692895700E+03 0.  0.
         24    2    3    3    0    0 -0.57560322022E+02  0.85115025116E+02 -0.13126440644E+03  0.18291939323E+03  0.75308710332E+02 0.  0.
         -6    2    1    2    0  502  0.10958385131E+03 -0.59580822120E+02  0.18843300070E+03  0.28447406123E+03  0.17280046564E+03 0.  0.
        -24    2    5    5    0    0  0.12499379029E+03 -0.86563028275E+02  0.18513503639E+03  0.25287544991E+03  0.80959286015E+02 0.  0.
          5    1    3    3  501    0 -0.52023529290E+02 -0.25534202996E+02  0.18698832353E+02  0.61075195078E+02  0.47000000000E+01 0. -1.
        -13    1    4    4    0    0 -0.15399906404E+02 -0.13280461957E+02 -0.21835590467E+02  0.29838243884E+02  0.00000000000E+00 0.  1.
         14    1    4    4    0    0 -0.42160415618E+02  0.98395487074E+02 -0.10942881597E+03  0.15308114935E+03  0.00000000000E+00 0. -1.
         -5    1    5    5    0  502 -0.15409938981E+02  0.26982206155E+02  0.32979643080E+01  0.31598611314E+02  0.47000000000E+01 0.  1.
         13    1    6    6    0    0  0.61705946826E+02 -0.24974717689E+02  0.27165579155E+02  0.71898046484E+02  0.00000000000E+00 0. -1.
        -14    1    6    6    0    0  0.63287843466E+02 -0.61588310587E+02  0.15796945724E+03  0.18097740343E+03  0.00000000000E+00 0.  1.
<mgrwt>
<rscale>  2 0.21563195E+03</rscale>
<asrwt>0</asrwt>
<pdfrwt beam="1">  1       21 0.46487390E-01 0.21647714E+03</pdfrwt>
<pdfrwt beam="2">  1       21 0.34815479E-01 0.21647714E+03</pdfrwt>
<totfact> 0.34809662E+04</totfact>
</mgrwt>
</event>
<event>
12    1  0.1029207E-001  0.2047591E+03  0.7546771E-02  0.1145821E+00
         21   -1    0    0  501  502  0.00000000000E+00  0.00000000000E+00  0.16224026232E+03  0.16224026232E+03  0.00000000000E+00 0. -1.
         21   -1    0    0  502  503 -0.00000000000E+00 -0.00000000000E+00 -0.72878448942E+03  0.72878448942E+03  0.00000000000E+00 0. -1.
         -6    2    1    2    0  503  0.83936392328E+02  0.69151111314E+02 -0.64122600621E+03  0.67307144343E+03  0.17328353286E+03 0.  0.
        -24    2    3    3    0    0  0.49143364007E+02 -0.34780581658E+02 -0.29901712212E+03  0.31370900525E+03  0.73330359094E+02 0.  0.
          6    2    1    2  501    0 -0.83936392328E+02 -0.69151111314E+02  0.74681779106E+02  0.21795330832E+03  0.17349087101E+03 0.  0.
         24    2    5    5    0    0 -0.46161790723E+00  0.26105515781E+02  0.40906245406E+01  0.72877245256E+02  0.67916482695E+02 0.  0.
          5    1    5    5  501    0 -0.83474774421E+02 -0.95256627095E+02  0.70591154565E+02  0.14507606306E+03  0.47000000000E+01 0. -1.
        -13    1    6    6    0    0  0.23582468843E+02 -0.12573475384E+02  0.56152633963E+01  0.27308539012E+02  0.00000000000E+00 0.  1.
         14    1    6    6    0    0 -0.24044086750E+02  0.38678991165E+02 -0.15246388557E+01  0.45568706244E+02  0.00000000000E+00 0. -1.
         -5    1    3    3    0  503  0.34793028321E+02  0.10393169297E+03 -0.34220888409E+03  0.35936243818E+03  0.47000000000E+01 0.  1.
         13    1    4    4    0    0 -0.61587433842E+01  0.26947121730E+01 -0.15286933862E+03  0.15301707840E+03  0.00000000000E+00 0. -1.
        -14    1    4    4    0    0  0.55302107391E+02 -0.37475293831E+02 -0.14614778351E+03  0.16069192685E+03  0.00000000000E+00 0.  1.
<mgrwt>
<rscale>  2 0.20471514E+03</rscale>
<asrwt>0</asrwt>
<pdfrwt beam="1">  1       21 0.24960041E-01 0.20475907E+03</pdfrwt>
<pdfrwt beam="2">  1       21 0.11212069E+00 0.20475907E+03</pdfrwt>
<totfact> 0.93916506E+03</totfact>
</mgrwt>
</event>
<event>
12    1  0.1029207E-001  0.2106829E+03  0.7546771E-02  0.1141113E+00
         21   -1    0    0  503  502  0.00000000000E+00  0.00000000000E+00  0.66609761996E+03  0.66609761996E+03  0.00000000000E+00 0. -1.
         21   -1    0    0  501  503 -0.00000000000E+00 -0.00000000000E+00 -0.66501540505E+02  0.66501540505E+02  0.00000000000E+00 0.  1.
          6    2    1    2  501    0 -0.11879804311E+03  0.14706938439E+02  0.30246974977E+03  0.36861255208E+03  0.17337241689E+03 0.  0.
         24    2    3    3    0    0 -0.11621713881E+03  0.68815516317E+02  0.22561663619E+03  0.27446962704E+03  0.78668360896E+02 0.  0.
         -6    2    1    2    0  502  0.11879804311E+03 -0.14706938439E+02  0.29712632969E+03  0.36398660839E+03  0.17283786103E+03 0.  0.
        -24    2    5    5    0    0  0.70092297993E+02 -0.17717083950E+02  0.29592511517E+03  0.31494740468E+03  0.79958543150E+02 0.  0.
          5    1    3    3  501    0 -0.25809043034E+01 -0.54108577878E+02  0.76853113579E+02  0.94142925033E+02  0.47000000000E+01 0. -1.
        -11    1    4    4    0    0 -0.93560315437E+02  0.34040861555E+02  0.95749007704E+02  0.13813104414E+03  0.00000000000E+00 0.  1.
         12    1    4    4    0    0 -0.22656823373E+02  0.34774654762E+02  0.12986762848E+03  0.13633858290E+03  0.00000000000E+00 0. -1.
         -5    1    5    5    0  502  0.48705745120E+02  0.30101455111E+01  0.12012145127E+01  0.49039203705E+02  0.47000000000E+01 0.  1.
         11    1    6    6    0    0 -0.16185143446E+02  0.53705685739E+01  0.69071370401E+02  0.71145316672E+02  0.00000000000E+00 0. -1.
        -12    1    6    6    0    0  0.86277441439E+02 -0.23087652524E+02  0.22685374477E+03  0.24380208801E+03  0.00000000000E+00 0.  1.
<mgrwt>
<rscale>  2 0.21057285E+03</rscale>
<asrwt>0</asrwt>
<pdfrwt beam="1">  1       21 0.10247655E+00 0.21068285E+03</pdfrwt>
<pdfrwt beam="2">  1       21 0.10231007E-01 0.21068285E+03</pdfrwt>
<totfact> 0.59826396E+04</totfact>
</mgrwt>
</event>
<event>
12    1  0.1029207E-001  0.3286768E+03  0.7546771E-02  0.1071825E+00
         21   -1    0    0  503  502  0.00000000000E+00  0.00000000000E+00  0.30935432576E+03  0.30935432576E+03  0.00000000000E+00 0. -1.
         21   -1    0    0  501  503 -0.00000000000E+00 -0.00000000000E+00 -0.35947138778E+03  0.35947138778E+03  0.00000000000E+00 0.  1.
          6    2    1    2  501    0 -0.13121983386E+03 -0.24780066970E+03  0.34013708142E+02  0.33043210716E+03  0.17147777814E+03 0.  0.
         24    2    3    3    0    0 -0.29620159477E+02 -0.10879526478E+03  0.68895882919E+02  0.15469408466E+03  0.80435400548E+02 0.  0.
         -6    2    1    2    0  502  0.13121983386E+03  0.24780066970E+03 -0.84130770164E+02  0.33839360639E+03  0.16973046176E+03 0.  0.
        -24    2    5    5    0    0  0.21600736694E+02  0.77783301107E+02 -0.75756375793E+02  0.13587330476E+03  0.78776219234E+02 0.  0.
          5    1    3    3  501    0 -0.10159967438E+03 -0.13900540493E+03 -0.34882174777E+02  0.17573802250E+03  0.47000000000E+01 0. -1.
        -13    1    4    4    0    0 -0.32430198411E+02 -0.42047609516E+01  0.25302488960E+02  0.41347475512E+02  0.00000000000E+00 0.  1.
         14    1    4    4    0    0  0.28100389340E+01 -0.10459050383E+03  0.43593393960E+02  0.11334660915E+03  0.00000000000E+00 0. -1.
         -5    1    5    5    0  502  0.10961909717E+03  0.17001736860E+03 -0.83743943710E+01  0.20252030162E+03  0.47000000000E+01 0.  1.
         11    1    6    6    0    0 -0.23136397442E+02  0.27840806978E+02 -0.54703074543E+02  0.65595958597E+02  0.00000000000E+00 0. -1.
        -12    1    6    6    0    0  0.44737134136E+02  0.49942494130E+02 -0.21053301250E+02  0.70277346166E+02  0.00000000000E+00 0.  1.
<mgrwt>
<rscale>  2 0.32844952E+03</rscale>
<asrwt>0</asrwt>
<pdfrwt beam="1">  1       21 0.47592973E-01 0.32867681E+03</pdfrwt>
<pdfrwt beam="2">  1       21 0.55303290E-01 0.32867681E+03</pdfrwt>
<totfact> 0.12135643E+04</totfact>
</mgrwt>
</event>
<event>
12    1  0.1029207E-001  0.2088091E+03  0.7546771E-02  0.1142677E+00
         21   -1    0    0  501  502  0.00000000000E+00  0.00000000000E+00  0.13323476231E+03  0.13323476231E+03  0.00000000000E+00 0.  1.
         21   -1    0    0  502  503 -0.00000000000E+00 -0.00000000000E+00 -0.32679588985E+03  0.32679588985E+03  0.00000000000E+00 0.  1.
         -6    2    1    2    0  503  0.11296820564E+03 -0.25510079279E+02 -0.84952803926E+02  0.22466495451E+03  0.17275642755E+03 0.  0.
        -24    2    3    3    0    0  0.12627837149E+03 -0.91116181389E+01 -0.11422090668E+03  0.18826740128E+03  0.79805702612E+02 0.  0.
          6    2    1    2  501    0 -0.11296820564E+03  0.25510079279E+02 -0.10860832361E+03  0.23536569765E+03  0.17374885336E+03 0.  0.
         24    2    5    5    0    0 -0.11876155942E+03 -0.40712656016E+01 -0.13425608761E+03  0.19550949724E+03  0.77963986889E+02 0.  0.
          5    1    5    5  501    0  0.57933537789E+01  0.29581344880E+02  0.25647763999E+02  0.39856200409E+02  0.47000000000E+01 0. -1.
        -13    1    6    6    0    0 -0.46097947852E+02 -0.60774123545E+01 -0.44160556439E+01  0.46706073315E+02  0.00000000000E+00 0.  1.
         14    1    6    6    0    0 -0.72663611569E+02  0.20061467529E+01 -0.12984003197E+03  0.14880342393E+03  0.00000000000E+00 0. -1.
         -5    1    3    3    0  503 -0.13310165851E+02 -0.16398461140E+02  0.29268102750E+02  0.36397553232E+02  0.47000000000E+01 0.  1.
         13    1    4    4    0    0  0.51305406321E+02  0.27125455894E+02 -0.78584966021E+02  0.97691514267E+02  0.00000000000E+00 0. -1.
        -14    1    4    4    0    0  0.74972965172E+02 -0.36237074033E+02 -0.35635940655E+02  0.90575887009E+02  0.00000000000E+00 0.  1.
<mgrwt>
<rscale>  2 0.20860254E+03</rscale>
<asrwt>0</asrwt>
<pdfrwt beam="1">  1       21 0.20497656E-01 0.20880911E+03</pdfrwt>
<pdfrwt beam="2">  1       21 0.50276291E-01 0.20880911E+03</pdfrwt>
<totfact> 0.82475873E+04</totfact>
</mgrwt>
</event>
<event>
12    1  0.1029207E-001  0.1829356E+03  0.7546771E-02  0.1167481E+00
         21   -1    0    0  503  502  0.00000000000E+00  0.00000000000E+00  0.90877490556E+02  0.90877490556E+02  0.00000000000E+00 0. -1.
         21   -1    0    0  501  503 -0.00000000000E+00 -0.00000000000E+00 -0.77530750325E+03  0.77530750325E+03  0.00000000000E+00 0. -1.
          6    2    1    2  501    0 -0.21383881801E+02 -0.18522867717E+02 -0.65927123268E+03  0.68152750229E+03  0.17041364705E+03 0.  0.
         24    2    3    3    0    0  0.15003037062E+02  0.29154201742E+02 -0.22775588405E+03  0.24583874075E+03  0.86538344900E+02 0.  0.
         -6    2    1    2    0  502  0.21383881801E+02  0.18522867717E+02 -0.25158780007E+02  0.18465749151E+03  0.18073477234E+03 0.  0.
        -24    2    5    5    0    0  0.59527801966E+02  0.68976265027E+02 -0.17193891356E+02  0.12073540303E+03  0.77331256939E+02 0.  0.
          5    1    3    3  501    0 -0.36386918863E+02 -0.47677069459E+02 -0.43151534864E+03  0.43568876153E+03  0.47000000000E+01 0. -1.
        -13    1    4    4    0    0  0.31595502021E+02 -0.19823911688E+02 -0.63605054146E+02  0.73735107890E+02  0.00000000000E+00 0.  1.
         14    1    4    4    0    0 -0.16592464959E+02  0.48978113430E+02 -0.16415082990E+03  0.17210363286E+03  0.00000000000E+00 0. -1.
         -5    1    5    5    0  502 -0.38143920165E+02 -0.50453397309E+02 -0.79648886519E+01  0.63922088489E+02  0.47000000000E+01 0.  1.
         11    1    6    6    0    0 -0.63976136101E+01  0.47078543722E+02 -0.19188313208E+02  0.51239731680E+02  0.00000000000E+00 0. -1.
        -12    1    6    6    0    0  0.65925415576E+02  0.21897721305E+02  0.19944218523E+01  0.69495671345E+02  0.00000000000E+00 0.  1.
<mgrwt>
<rscale>  2 0.18033317E+03</rscale>
<asrwt>0</asrwt>
<pdfrwt beam="1">  1       21 0.13981153E-01 0.18293558E+03</pdfrwt>
<pdfrwt beam="2">  1       21 0.11927808E+00 0.18293558E+03</pdfrwt>
<totfact> 0.24035628E+04</totfact>
</mgrwt>
</event>
<event>
12    1  0.1029207E-001  0.2037627E+03  0.7546771E-02  0.1146662E+00
         21   -1    0    0  503  502  0.00000000000E+00  0.00000000000E+00  0.14011569886E+03  0.14011569886E+03  0.00000000000E+00 0. -1.
         21   -1    0    0  501  503 -0.00000000000E+00 -0.00000000000E+00 -0.37897266437E+03  0.37897266437E+03  0.00000000000E+00 0. -1.
          6    2    1    2  501    0 -0.87491237515E+02 -0.63509908874E+02 -0.24100668705E+03  0.31560017500E+03  0.17271659471E+03 0.  0.
         24    2    3    3    0    0 -0.38300081330E+02 -0.70117024541E+01 -0.22149762633E+03  0.23804689895E+03  0.78032476746E+02 0.  0.
         -6    2    1    2    0  502  0.87491237515E+02  0.63509908874E+02  0.21497215428E+01  0.20348818824E+03  0.17237922230E+03 0.  0.
        -24    2    5    5    0    0  0.12490326881E+03  0.30281022642E+02 -0.67000285982E+01  0.15245656036E+03  0.81733380709E+02 0.  0.
          5    1    3    3  501    0 -0.49191156185E+02 -0.56498206420E+02 -0.19509060717E+02  0.77553276047E+02  0.47000000000E+01 0. -1.
        -11    1    4    4    0    0  0.17798162500E+02 -0.15391231364E+02 -0.28883090377E+02  0.37254496387E+02  0.00000000000E+00 0.  1.
         12    1    4    4    0    0 -0.56098243830E+02  0.83795289096E+01 -0.19261453596E+03  0.20079240256E+03  0.00000000000E+00 0. -1.
         -5    1    5    5    0  502 -0.37412031297E+02  0.33228886232E+02  0.88497501410E+01  0.51031627875E+02  0.47000000000E+01 0.  1.
         13    1    6    6    0    0  0.43444436337E+02 -0.16738043344E+02 -0.30220256997E+02  0.55505360791E+02  0.00000000000E+00 0. -1.
        -14    1    6    6    0    0  0.81458832476E+02  0.47019065986E+02  0.23520228398E+02  0.96951199572E+02  0.00000000000E+00 0.  1.
<mgrwt>
<rscale>  2 0.20369121E+03</rscale>
<asrwt>0</asrwt>
<pdfrwt beam="1">  1       21 0.21556261E-01 0.20376272E+03</pdfrwt>
<pdfrwt beam="2">  1       21 0.58303486E-01 0.20376272E+03</pdfrwt>
<totfact> 0.54974950E+04</totfact>
</mgrwt>
</event>
<event>
12    1  0.1029207E-001  0.1767907E+03  0.7546771E-02  0.1171537E+00
         21   -1    0    0  501  502  0.00000000000E+00  0.00000000000E+00  0.67318922402E+02  0.67318922402E+02  0.00000000000E+00 0. -1.
         21   -1    0    0  502  503 -0.00000000000E+00 -0.00000000000E+00 -0.66308475932E+03  0.66308475932E+03  0.00000000000E+00 0. -1.
         -6    2    1    2    0  503 -0.17197458547E+02 -0.22404285234E+02 -0.96210834090E+02  0.20127461101E+03  0.17452002711E+03 0.  0.
        -24    2    3    3    0    0  0.19678488243E+02 -0.65137843339E+02 -0.97340085844E+02  0.14462341817E+03  0.82526718321E+02 0.  0.
          6    2    1    2  501    0  0.17197458547E+02  0.22404285234E+02 -0.49955500283E+03  0.52912907072E+03  0.17211818047E+03 0.  0.
         24    2    5    5    0    0  0.16445979462E+02  0.71048035414E+02 -0.22857960463E+03  0.25378104443E+03  0.82691530893E+02 0.  0.
          5    1    5    5  501    0  0.75147908506E+00 -0.48643750180E+02 -0.27097539820E+03  0.27534802629E+03  0.47000000000E+01 0. -1.
        -11    1    6    6    0    0  0.48905433303E+02  0.55462295943E+02 -0.16233515728E+03  0.17838304563E+03  0.00000000000E+00 0.  1.
         12    1    6    6    0    0 -0.32459453841E+02  0.15585739471E+02 -0.66244447347E+02  0.75397998798E+02  0.00000000000E+00 0. -1.
         -5    1    3    3    0  503 -0.36875946791E+02  0.42733558105E+02  0.11292517543E+01  0.56651192834E+02  0.47000000000E+01 0.  1.
         11    1    4    4    0    0  0.28959045957E+02 -0.25593939277E+02  0.53802242322E+00  0.38651850390E+02  0.00000000000E+00 0. -1.
        -12    1    4    4    0    0 -0.92805577137E+01 -0.39543904062E+02 -0.97878108268E+02  0.10597156778E+03  0.00000000000E+00 0.  1.
<mgrwt>
<rscale>  2 0.17619503E+03</rscale>
<asrwt>0</asrwt>
<pdfrwt beam="1">  1       21 0.10356757E-01 0.17679068E+03</pdfrwt>
<pdfrwt beam="2">  1       21 0.10201304E+00 0.17679068E+03</pdfrwt>
<totfact> 0.60165502E+04</totfact>
</mgrwt>
</event>
<event>
12    1  0.1029207E-001  0.2619765E+03  0.7546771E-02  0.1106007E+00
         21   -1    0    0  503  502  0.00000000000E+00  0.00000000000E+00  0.41817594120E+03  0.41817594120E+03  0.00000000000E+00 0. -1.
         21   -1    0    0  501  503 -0.00000000000E+00 -0.00000000000E+00 -0.16393832155E+03  0.16393832155E+03  0.00000000000E+00 0. -1.
          6    2    1    2  501    0  0.75714719477E+02 -0.18133854887E+03  0.12478921492E+03  0.28990101847E+03  0.17278270834E+03 0.  0.
         24    2    3    3    0    0 -0.18944379266E+02 -0.90476876631E+02  0.95313272699E+02  0.15533835788E+03  0.80625248926E+02 0.  0.
         -6    2    1    2    0  502 -0.75714719477E+02  0.18133854887E+03  0.12944840474E+03  0.29221324428E+03  0.17324924990E+03 0.  0.
        -24    2    5    5    0    0 -0.13300663644E+02  0.11872686916E+03  0.13986827933E+03  0.20307065856E+03  0.86032433959E+02 0.  0.
          5    1    3    3  501    0  0.94659098743E+02 -0.90861672242E+02  0.29475942220E+02  0.13456266060E+03  0.47000000000E+01 0. -1.
        -13    1    4    4    0    0  0.19524036179E+02  0.13372334827E+01  0.31531370197E+02  0.37110692376E+02  0.00000000000E+00 0.  1.
         14    1    4    4    0    0 -0.38468415446E+02 -0.91814110113E+02  0.63781902502E+02  0.11822766550E+03  0.00000000000E+00 0. -1.
         -5    1    5    5    0  502 -0.62414055833E+02  0.62611679709E+02 -0.10419874589E+02  0.89142585715E+02  0.47000000000E+01 0.  1.
         13    1    6    6    0    0 -0.39034964704E+02  0.29814191074E+02  0.23705761128E+02  0.54539688021E+02  0.00000000000E+00 0. -1.
        -14    1    6    6    0    0  0.25734301059E+02  0.88912678089E+02  0.11616251820E+03  0.14853097054E+03  0.00000000000E+00 0.  1.
<mgrwt>
<rscale>  2 0.26189940E+03</rscale>
<asrwt>0</asrwt>
<pdfrwt beam="1">  1       21 0.64334760E-01 0.26197651E+03</pdfrwt>
<pdfrwt beam="2">  1       21 0.25221280E-01 0.26197651E+03</pdfrwt>
<totfact> 0.32100543E+04</totfact>
</mgrwt>
</event>
<event>
10    1  0.1029207E-001  0.1740459E+03  0.7546771E-02  0.1174118E+00
         21   -1    0    0  501  502  0.00000000000E+00  0.00000000000E+00  0.25527875254E+02  0.25527875254E+02  0.00000000000E+00 0. -1.
         21   -1    0    0  502  503 -0.00000000000E+00 -0.00000000000E+00 -0.19519103937E+04  0.19519103937E+04  0.00000000000E+00 0. -1.
         -6    2    1    2    0  503  0.24362096229E+02 -0.19781591511E+02 -0.15896578273E+04  0.15991572679E+04  0.17119327234E+03 0.  0.
          6    2    1    2  501    0 -0.24362096229E+02  0.19781591511E+02 -0.33672469119E+03  0.37828100109E+03  0.16949387906E+03 0.  0.
          5    1    4    4  501    0 -0.21396018829E+02 -0.49422408796E+02 -0.32718331613E+02  0.63189740753E+02  0.47000000000E+01 0. -1.
        -11    1    4    4    0    0  0.65874208432E+01  0.55487662272E+02 -0.14808501073E+03  0.15827648335E+03  0.00000000000E+00 0.  1.
         12    1    4    4    0    0 -0.95534982424E+01  0.13716338035E+02 -0.15592134885E+03  0.15681477700E+03  0.00000000000E+00 0. -1.
         -5    1    3    3    0  503 -0.36695891273E+00 -0.15928529119E+02 -0.11715043027E+02  0.20326950875E+02  0.47000000000E+01 0.  1.
         11    1    3    3    0    0  0.17773076002E+02  0.17279167846E+02 -0.46097237242E+03  0.46163836496E+03  0.00000000000E+00 0. -1.
        -12    1    3    3    0    0  0.69559791397E+01 -0.21132230238E+02 -0.11169704119E+04  0.11171919521E+04  0.00000000000E+00 0.  1.
<mgrwt>
<rscale>  2 0.17362652E+03</rscale>
<asrwt>0</asrwt>
<pdfrwt beam="1">  1       21 0.39273670E-02 0.17404585E+03</pdfrwt>
<pdfrwt beam="2">  1       21 0.30029379E+00 0.17404585E+03</pdfrwt>
<totfact> 0.14020289E+04</totfact>
</mgrwt>
</event>
<event>
12    1  0.1029207E-001  0.1776872E+03  0.7546771E-02  0.1170556E+00
         21   -1    0    0  501  502  0.00000000000E+00  0.00000000000E+00  0.15825323714E+03  0.15825323714E+03  0.00000000000E+00 0.  1.
         21   -1    0    0  502  503 -0.00000000000E+00 -0.00000000000E+00 -0.20513783016E+03  0.20513783016E+03  0.00000000000E+00 0.  1.
         -6    2    1    2    0  503 -0.29831559504E+02  0.24117916064E+02 -0.59157994926E+02  0.18727626760E+03  0.17349679024E+03 0.  0.
        -24    2    3    3    0    0 -0.47099537031E+01  0.23731797910E+02 -0.10515173420E+03  0.13465727656E+03  0.80562479029E+02 0.  0.
          6    2    1    2  501    0  0.29831559504E+02 -0.24117916064E+02  0.12273401909E+02  0.17611479971E+03  0.17144734020E+03 0.  0.
         24    2    5    5    0    0  0.33592381156E+02  0.49394627761E+02  0.17390731372E+02  0.10217891573E+03  0.81054401224E+02 0.  0.
          5    1    5    5  501    0 -0.37608216513E+01 -0.73512543825E+02 -0.51173294630E+01  0.73935883980E+02  0.47000000000E+01 0. -1.
        -11    1    6    6    0    0  0.29225667079E+02  0.11886329659E+02 -0.28660911825E+02  0.42624785227E+02  0.00000000000E+00 0.  1.
         12    1    6    6    0    0  0.43667140765E+01  0.37508298102E+02  0.46051643196E+02  0.59554130499E+02  0.00000000000E+00 0. -1.
         -5    1    3    3    0  503 -0.25121605801E+02  0.38611815410E+00  0.45993739278E+02  0.52618991040E+02  0.47000000000E+01 0.  1.
         11    1    4    4    0    0 -0.29265830474E+01  0.26360008612E+02  0.27904606736E+01  0.26668363525E+02  0.00000000000E+00 0. -1.
        -12    1    4    4    0    0 -0.17833706557E+01 -0.26282107024E+01 -0.10794219488E+03  0.10798891303E+03  0.00000000000E+00 0.  1.
<mgrwt>
<rscale>  2 0.17718491E+03</rscale>
<asrwt>0</asrwt>
<pdfrwt beam="1">  1       21 0.24346652E-01 0.17768717E+03</pdfrwt>
<pdfrwt beam="2">  1       21 0.31559666E-01 0.17768717E+03</pdfrwt>
<totfact> 0.15448647E+05</totfact>
</mgrwt>
</event>
<event>
12    1  0.1029207E-001  0.3232042E+03  0.7546771E-02  0.1074279E+00
         21   -1    0    0  503  502  0.00000000000E+00  0.00000000000E+00  0.49908565723E+03  0.49908565723E+03  0.00000000000E+00 0. -1.
         21   -1    0    0  501  503 -0.00000000000E+00 -0.00000000000E+00 -0.24174464602E+03  0.24174464602E+03  0.00000000000E+00 0. -1.
          6    2    1    2  501    0  0.26640714471E+03  0.55843612312E+02 -0.80012538813E+01  0.32330317542E+03  0.17426889392E+03 0.  0.
         24    2    3    3    0    0  0.11719513592E+03 -0.11676993780E+02  0.49876110042E+02  0.14953570129E+03  0.77474173370E+02 0.  0.
         -6    2    1    2    0  502 -0.26640714471E+03 -0.55843612312E+02  0.26534226510E+03  0.41752712783E+03  0.17271684641E+03 0.  0.
        -24    2    5    5    0    0 -0.23354985526E+03 -0.74151967958E+02  0.27625676784E+03  0.37808078799E+03  0.81137113768E+02 0.  0.
          5    1    3    3  501    0  0.14921200879E+03  0.67520606092E+02 -0.57877363924E+02  0.17376747414E+03  0.47000000000E+01 0. -1.
        -11    1    4    4    0    0  0.96891934496E+02  0.51335639457E+01  0.67170236182E+02  0.11800949571E+03  0.00000000000E+00 0.  1.
         12    1    4    4    0    0  0.20303201424E+02 -0.16810557726E+02 -0.17294126139E+02  0.31526205576E+02  0.00000000000E+00 0. -1.
         -5    1    5    5    0  502 -0.32857289446E+02  0.18308355645E+02 -0.10914502736E+02  0.39446339832E+02  0.47000000000E+01 0.  1.
         13    1    6    6    0    0 -0.92133748207E+02 -0.17315988090E+02  0.52790476074E+02  0.10758859311E+03  0.00000000000E+00 0. -1.
        -14    1    6    6    0    0 -0.14141610705E+03 -0.56835979868E+02  0.22346629176E+03  0.27049219489E+03  0.00000000000E+00 0.  1.
<mgrwt>
<rscale>  2 0.32299540E+03</rscale>
<asrwt>0</asrwt>
<pdfrwt beam="1">  1       21 0.76782409E-01 0.32320415E+03</pdfrwt>
<pdfrwt beam="2">  1       21 0.37191484E-01 0.32320415E+03</pdfrwt>
<totfact> 0.97974030E+03</totfact>
</mgrwt>
</event>
<event>
12    1  0.1029207E-001  0.1811308E+03  0.7546771E-02  0.1166771E+00
         21   -1    0    0  503  502  0.00000000000E+00  0.00000000000E+00  0.13854547061E+03  0.13854547061E+03  0.00000000000E+00 0. -1.
         21   -1    0    0  501  503 -0.00000000000E+00 -0.00000000000E+00 -0.29290404509E+03  0.29290404509E+03  0.00000000000E+00 0. -1.
          6    2    1    2  501    0 -0.48101838310E+02 -0.16108515490E+02  0.17452587351E+02  0.18196965327E+03  0.17388240505E+03 0.  0.
         24    2    3    3    0    0 -0.28297522641E+02 -0.53213187159E+02 -0.19064158676E+02  0.12607215494E+03  0.10907957201E+03 0.  0.
         -6    2    1    2    0  502  0.48101838310E+02  0.16108515490E+02 -0.17181116183E+03  0.24947986243E+03  0.17363137767E+03 0.  0.
        -24    2    5    5    0    0  0.31818583487E+02 -0.56579979646E+02 -0.79462151866E+02  0.13073984662E+03  0.81024425726E+02 0.  0.
          5    1    3    3  501    0 -0.19804315668E+02  0.37104671670E+02  0.36516746027E+02  0.55897498327E+02  0.47000000000E+01 0. -1.
        -11    1    4    4    0    0  0.36226214962E+02  0.95539393602E+00 -0.20845200630E+02  0.41806384887E+02  0.00000000000E+00 0.  1.
         12    1    4    4    0    0 -0.64523737603E+02 -0.54168581095E+02  0.17810419540E+01  0.84265770053E+02  0.00000000000E+00 0. -1.
         -5    1    5    5    0  502  0.16283254822E+02  0.72688495136E+02 -0.92349009966E+02  0.11874001581E+03  0.47000000000E+01 0.  1.
         11    1    6    6    0    0 -0.73707017795E+01 -0.24526579455E+02 -0.75765492668E+02  0.79976810538E+02  0.00000000000E+00 0. -1.
        -12    1    6    6    0    0  0.39189285267E+02 -0.32053400192E+02 -0.36966591979E+01  0.50763036087E+02  0.00000000000E+00 0.  1.
<mgrwt>
<rscale>  2 0.18107051E+03</rscale>
<asrwt>0</asrwt>
<pdfrwt beam="1">  1       21 0.21314688E-01 0.18113079E+03</pdfrwt>
<pdfrwt beam="2">  1       21 0.45062160E-01 0.18113079E+03</pdfrwt>
<totfact> 0.97234577E+04</totfact>
</mgrwt>
</event>
<event>
12    1  0.1029207E-001  0.1967678E+03  0.7546771E-02  0.1152511E+00
         21   -1    0    0  503  502  0.00000000000E+00  0.00000000000E+00  0.87078689504E+03  0.87078689504E+03  0.00000000000E+00 0.  1.
         21   -1    0    0  501  503 -0.00000000000E+00 -0.00000000000E+00 -0.51544870598E+02  0.51544870598E+02  0.00000000000E+00 0.  1.
          6    2    1    2  501    0 -0.94115703786E+02 -0.11199891421E+02  0.58083450466E+03  0.61325875403E+03  0.17243658059E+03 0.  0.
         24    2    3    3    0    0 -0.16300978971E+02  0.52866172120E+02  0.29557827594E+03  0.31068182510E+03  0.78077686778E+02 0.  0.
         -6    2    1    2    0  502  0.94115703786E+02  0.11199891421E+02  0.23840751978E+03  0.30907301161E+03  0.17235074049E+03 0.  0.
        -24    2    5    5    0    0  0.62394606000E+02 -0.25969608377E+02  0.23788922822E+03  0.25997964764E+03  0.80191176972E+02 0.  0.
          5    1    3    3  501    0 -0.77814724815E+02 -0.64066063541E+02  0.28525622872E+03  0.30257692893E+03  0.47000000000E+01 0. -1.
        -11    1    4    4    0    0 -0.20047066845E+02  0.94083344419E+01  0.23495970504E+03  0.23600098440E+03  0.00000000000E+00 0.  1.
         12    1    4    4    0    0  0.37460878742E+01  0.43457837678E+02  0.60618570894E+02  0.74680840698E+02  0.00000000000E+00 0. -1.
         -5    1    5    5    0  502  0.31721097785E+02  0.37169499798E+02  0.51829156280E+00  0.49093363972E+02  0.47000000000E+01 0.  1.
         13    1    6    6    0    0  0.78964529282E+02 -0.34136348967E+02  0.18692990155E+03  0.20577530293E+03  0.00000000000E+00 0. -1.
        -14    1    6    6    0    0 -0.16569923281E+02  0.81667405903E+01  0.50959326675E+02  0.54204344702E+02  0.00000000000E+00 0.  1.
<mgrwt>
<rscale>  2 0.19674902E+03</rscale>
<asrwt>0</asrwt>
<pdfrwt beam="1">  1       21 0.13396720E+00 0.19676783E+03</pdfrwt>
<pdfrwt beam="2">  1       21 0.79299807E-02 0.19676783E+03</pdfrwt>
<totfact> 0.48701698E+04</totfact>
</mgrwt>
</event>
<event>
12    1  0.1029207E-001  0.4063358E+03  0.7546771E-02  0.1041730E+00
         21   -1    0    0  503  502  0.00000000000E+00  0.00000000000E+00  0.35486072142E+03  0.35486072142E+03  0.00000000000E+00 0. -1.
         21   -1    0    0  501  503 -0.00000000000E+00 -0.00000000000E+00 -0.47498593822E+03  0.47498593822E+03  0.00000000000E+00 0.  1.
          6    2    1    2  501    0 -0.18379402793E+03  0.31787925195E+03 -0.12430986171E+03  0.42492552754E+03  0.17401522553E+03 0.  0.
         24    2    3    3    0    0 -0.12322393448E+03  0.31221999521E+03 -0.11066267919E+03  0.36240273971E+03  0.80150194905E+02 0.  0.
         -6    2    1    2    0  502  0.18379402793E+03 -0.31787925195E+03  0.41846449034E+01  0.40492113211E+03  0.17063454648E+03 0.  0.
        -24    2    5    5    0    0  0.22919589653E+02 -0.10576578590E+03  0.27839465875E+02  0.13761167113E+03  0.80313305967E+02 0.  0.
          5    1    3    3  501    0 -0.60570093454E+02  0.56592567363E+01 -0.13647182518E+02  0.62522787833E+02  0.47000000000E+01 0. -1.
        -11    1    4    4    0    0 -0.51168913584E+02  0.45131811332E+02 -0.16689475617E+02  0.70240136018E+02  0.00000000000E+00 0.  1.
         12    1    4    4    0    0 -0.72055020891E+02  0.26708818388E+03 -0.93973203570E+02  0.29216260369E+03  0.00000000000E+00 0. -1.
         -5    1    5    5    0  502  0.16087443828E+03 -0.21211346605E+03 -0.23654820972E+02  0.26730946097E+03  0.47000000000E+01 0.  1.
         13    1    6    6    0    0  0.46338665898E+02 -0.99678123474E+02  0.27924351967E+02  0.11341415119E+03  0.00000000000E+00 0. -1.
        -14    1    6    6    0    0 -0.23419076245E+02 -0.60876624250E+01 -0.84886091149E-01  0.24197519948E+02  0.00000000000E+00 0.  1.
<mgrwt>
<rscale>  2 0.40597623E+03</rscale>
<asrwt>0</asrwt>
<pdfrwt beam="1">  1       21 0.54593957E-01 0.40633578E+03</pdfrwt>
<pdfrwt beam="2">  1       21 0.73074759E-01 0.40633578E+03</pdfrwt>
<totfact> 0.47630699E+03</totfact>
</mgrwt>
</event>
<event>
12    1  0.1029207E-001  0.1903551E+03  0.7546771E-02  0.1158553E+00
         21   -1    0    0  503  502  0.00000000000E+00  0.00000000000E+00  0.21574822240E+03  0.21574822240E+03  0.00000000000E+00 0.  1.
         21   -1    0    0  501  503 -0.00000000000E+00 -0.00000000000E+00 -0.53585606937E+03  0.53585606937E+03  0.00000000000E+00 0.  1.
          6    2    1    2  501    0  0.39440633238E+02  0.66590186453E+02 -0.47235815038E+03  0.50927134189E+03  0.17391164697E+03 0.  0.
         24    2    3    3    0    0 -0.54702017407E+01 -0.18506230066E+01 -0.10183633904E+03  0.12978533400E+03  0.80251137444E+02 0.  0.
         -6    2    1    2    0  502 -0.39440633238E+02 -0.66590186453E+02  0.15225030342E+03  0.24233294989E+03  0.17191651238E+03 0.  0.
        -24    2    5    5    0    0 -0.21424235879E+02 -0.54569501349E+02  0.11582117009E+02  0.99929592792E+02  0.80093381254E+02 0.  0.
          5    1    3    3  501    0  0.44910834979E+02  0.68440809460E+02 -0.37052181134E+03  0.37948600788E+03  0.47000000000E+01 0. -1.
        -13    1    4    4    0    0 -0.23276647598E+01 -0.17337783723E+02 -0.11042321407E+03  0.11180028164E+03  0.00000000000E+00 0.  1.
         14    1    4    4    0    0 -0.31425369809E+01  0.15487160716E+02  0.85868750364E+01  0.17985052366E+02  0.00000000000E+00 0. -1.
         -5    1    5    5    0  502 -0.18016397360E+02 -0.12020685104E+02  0.14066818641E+03  0.14240335709E+03  0.47000000000E+01 0.  1.
         11    1    6    6    0    0 -0.97330541184E+01  0.23153201633E+01 -0.27943942941E+02  0.29680919747E+02  0.00000000000E+00 0. -1.
        -12    1    6    6    0    0 -0.11691181760E+02 -0.56884821512E+02  0.39526059951E+02  0.70248673045E+02  0.00000000000E+00 0.  1.
<mgrwt>
<rscale>  2 0.18989823E+03</rscale>
<asrwt>0</asrwt>
<pdfrwt beam="1">  1       21 0.33192034E-01 0.19035514E+03</pdfrwt>
<pdfrwt beam="2">  1       21 0.82439395E-01 0.19035514E+03</pdfrwt>
<totfact> 0.11247246E+04</totfact>
</mgrwt>
</event>
<event>
12    1  0.1029207E-001  0.2588455E+03  0.7546771E-02  0.1108091E+00
         21   -1    0    0  503  502  0.00000000000E+00  0.00000000000E+00  0.17679004282E+03  0.17679004282E+03  0.00000000000E+00 0.  1.
         21   -1    0    0  501  503 -0.00000000000E+00 -0.00000000000E+00 -0.43166908505E+03  0.43166908505E+03  0.00000000000E+00 0. -1.
          6    2    1    2  501    0 -0.23881913539E+02 -0.18991929001E+03 -0.18379130331E+02  0.25784079151E+03  0.17176844536E+03 0.  0.
         24    2    3    3    0    0 -0.96255338055E+01 -0.47500738174E+02  0.43203447967E+02  0.10195367780E+03  0.78606892017E+02 0.  0.
         -6    2    1    2    0  502  0.23881913539E+02  0.18991929001E+03 -0.23649991190E+03  0.35061833636E+03  0.17424501987E+03 0.  0.
        -24    2    5    5    0    0  0.46083451457E+02  0.34536501522E+02 -0.66091676908E+02  0.11889053095E+03  0.80314345904E+02 0.  0.
          5    1    3    3  501    0 -0.14256379734E+02 -0.14241855184E+03 -0.61582578298E+02  0.15588711371E+03  0.47000000000E+01 0. -1.
        -13    1    4    4    0    0  0.24618320206E+02 -0.40685011251E+02  0.15182966305E+01  0.47577694930E+02  0.00000000000E+00 0.  1.
         14    1    4    4    0    0 -0.34243854011E+02 -0.68157269233E+01  0.41685151336E+02  0.54375982869E+02  0.00000000000E+00 0. -1.
         -5    1    5    5    0  502 -0.22201537918E+02  0.15538278849E+03 -0.17040823499E+03  0.23172780541E+03  0.47000000000E+01 0.  1.
         13    1    6    6    0    0  0.59576469793E+02  0.48765089103E+02 -0.41579169351E+02  0.87499811383E+02  0.00000000000E+00 0. -1.
        -14    1    6    6    0    0 -0.13493018335E+02 -0.14228587581E+02 -0.24512507557E+02  0.31390719569E+02  0.00000000000E+00 0.  1.
<mgrwt>
<rscale>  2 0.25842938E+03</rscale>
<asrwt>0</asrwt>
<pdfrwt beam="1">  1       21 0.27198468E-01 0.25884553E+03</pdfrwt>
<pdfrwt beam="2">  1       21 0.66410628E-01 0.25884553E+03</pdfrwt>
<totfact> 0.25911169E+04</totfact>
</mgrwt>
</event>
<event>
12    1  0.1029207E-001  0.3106504E+03  0.7546771E-02  0.1080103E+00
         21   -1    0    0  503  502  0.00000000000E+00  0.00000000000E+00  0.23519129789E+03  0.23519129789E+03  0.00000000000E+00 0. -1.
         21   -1    0    0  501  503 -0.00000000000E+00 -0.00000000000E+00 -0.11299309153E+04  0.11299309153E+04  0.00000000000E+00 0.  1.
          6    2    1    2  501    0 -0.22836538748E+03  0.11820853093E+03 -0.99251120660E+03  0.10399914369E+04  0.17429769534E+03 0.  0.
         24    2    3    3    0    0 -0.19044009932E+03  0.14154635413E+03 -0.93731896558E+03  0.96891925568E+03  0.62728613845E+02 0.  0.
         -6    2    1    2    0  502  0.22836538748E+03 -0.11820853093E+03  0.97771589217E+02  0.32513077628E+03  0.17328222944E+03 0.  0.
        -24    2    5    5    0    0  0.81831890446E+02 -0.63092686872E+02  0.11095022199E+03  0.16795066182E+03  0.72251834687E+02 0.  0.
          5    1    3    3  501    0 -0.37925288159E+02 -0.23337823199E+02 -0.55192241018E+02  0.71072181211E+02  0.47000000000E+01 0. -1.
        -13    1    4    4    0    0 -0.16248563901E+03  0.10032427214E+03 -0.65617363337E+03  0.68339620982E+03  0.00000000000E+00 0.  1.
         14    1    4    4    0    0 -0.27954460318E+02  0.41222081989E+02 -0.28114533221E+03  0.28552304586E+03  0.00000000000E+00 0. -1.
         -5    1    5    5    0  502  0.14653349704E+03 -0.55115844055E+02 -0.13178632769E+02  0.15718011446E+03  0.47000000000E+01 0.  1.
         11    1    6    6    0    0  0.93744155399E+00 -0.42535621410E+02  0.34767419752E+02  0.54944802862E+02  0.00000000000E+00 0. -1.
        -12    1    6    6    0    0  0.80894448892E+02 -0.20557065462E+02  0.76182802234E+02  0.11300585896E+03  0.00000000000E+00 0.  1.
<mgrwt>
<rscale>  2 0.31050819E+03</rscale>
<asrwt>0</asrwt>
<pdfrwt beam="1">  1       21 0.36183276E-01 0.31065044E+03</pdfrwt>
<pdfrwt beam="2">  1       21 0.17383553E+00 0.31065044E+03</pdfrwt>
<totfact> 0.13415093E+03</totfact>
</mgrwt>
</event>
<event>
12    1  0.1029207E-001  0.2376799E+03  0.7546771E-02  0.1121383E+00
         21   -1    0    0  501  502  0.00000000000E+00  0.00000000000E+00  0.97582855403E+03  0.97582855403E+03  0.00000000000E+00 0.  1.
         21   -1    0    0  502  503 -0.00000000000E+00 -0.00000000000E+00 -0.10264823277E+03  0.10264823277E+03  0.00000000000E+00 0.  1.
         -6    2    1    2    0  503  0.15572982311E+03 -0.48295447259E+02  0.80424995099E+02  0.25091811047E+03  0.17293782204E+03 0.  0.
        -24    2    3    3    0    0  0.93216621217E+02 -0.74764075947E+02  0.10567518355E+03  0.17833608286E+03  0.79733985891E+02 0.  0.
          6    2    1    2  501    0 -0.15572982311E+03  0.48295447259E+02  0.79275532616E+03  0.82755867633E+03  0.17265030434E+03 0.  0.
         24    2    5    5    0    0 -0.49410054228E+02  0.35803268580E+01  0.17182968413E+03  0.19599389092E+03  0.80212173203E+02 0.  0.
          5    1    5    5  501    0 -0.10631976888E+03  0.44715120401E+02  0.62092564203E+03  0.63156478541E+03  0.47000000000E+01 0. -1.
        -11    1    6    6    0    0 -0.59483160881E+02  0.20331997850E+02  0.16269648328E+03  0.17441841140E+03  0.00000000000E+00 0.  1.
         12    1    6    6    0    0  0.10073106653E+02 -0.16751670992E+02  0.91332008574E+01  0.21575479521E+02  0.00000000000E+00 0. -1.
         -5    1    3    3    0  503  0.62513201894E+02  0.26468628687E+02 -0.25250188454E+02  0.72582027614E+02  0.47000000000E+01 0.  1.
         11    1    4    4    0    0 -0.26650516520E+01 -0.24129365013E+02 -0.34266886330E+01  0.24516748382E+02  0.00000000000E+00 0. -1.
        -12    1    4    4    0    0  0.95881672869E+02 -0.50634710934E+02  0.10910187219E+03  0.15381933447E+03  0.00000000000E+00 0.  1.
<mgrwt>
<rscale>  2 0.23762757E+03</rscale>
<asrwt>0</asrwt>
<pdfrwt beam="1">  1       21 0.15012746E+00 0.23767987E+03</pdfrwt>
<pdfrwt beam="2">  1       21 0.15792036E-01 0.23767987E+03</pdfrwt>
<totfact> 0.10320121E+04</totfact>
</mgrwt>
</event>
<event>
12    1  0.1029207E-001  0.2106956E+03  0.7546771E-02  0.1141757E+00
         21   -1    0    0  501  502  0.00000000000E+00  0.00000000000E+00  0.64528419807E+03  0.64528419807E+03  0.00000000000E+00 0.  1.
         21   -1    0    0  502  503 -0.00000000000E+00 -0.00000000000E+00 -0.14766841925E+03  0.14766841925E+03  0.00000000000E+00 0. -1.
         -6    2    1    2    0  503  0.82092133655E+02 -0.90106870823E+02 -0.44173970375E+02  0.21163620260E+03  0.16727275933E+03 0.  0.
        -24    2    3    3    0    0  0.30031879322E+02 -0.77097865608E+02 -0.86109644234E+02  0.14337058139E+03  0.79336360643E+02 0.  0.
          6    2    1    2  501    0 -0.82092133655E+02  0.90106870823E+02  0.54178974919E+03  0.58131641472E+03  0.17185539013E+03 0.  0.
         24    2    5    5    0    0 -0.54997747205E+02  0.12927719772E+03  0.40947923566E+03  0.44061608681E+03  0.82048433651E+02 0.  0.
          5    1    5    5  501    0 -0.27094386449E+02 -0.39170326892E+02  0.13231051353E+03  0.14070032792E+03  0.47000000000E+01 0. -1.
        -13    1    6    6    0    0 -0.13044997934E+02  0.54060143907E+02  0.27752547383E+03  0.28304250521E+03  0.00000000000E+00 0.  1.
         14    1    6    6    0    0 -0.41952749272E+02  0.75217053809E+02  0.13195376184E+03  0.15757358160E+03  0.00000000000E+00 0. -1.
         -5    1    3    3    0  503  0.52060254333E+02 -0.13009005216E+02  0.41935673859E+02  0.68265621215E+02  0.47000000000E+01 0.  1.
         11    1    4    4    0    0  0.25023707237E+01 -0.50902547417E+02 -0.19179699763E+01  0.51000096094E+02  0.00000000000E+00 0. -1.
        -12    1    4    4    0    0  0.27529508598E+02 -0.26195318191E+02 -0.84191674258E+02  0.92370485292E+02  0.00000000000E+00 0.  1.
<mgrwt>
<rscale>  2 0.20975917E+03</rscale>
<asrwt>0</asrwt>
<pdfrwt beam="1">  1       21 0.99274491E-01 0.21069561E+03</pdfrwt>
<pdfrwt beam="2">  1       21 0.22718219E-01 0.21069561E+03</pdfrwt>
<totfact> 0.14997854E+04</totfact>
</mgrwt>
</event>
<event>
12    1  0.1029207E-001  0.3147580E+03  0.7546771E-02  0.1078237E+00
         21   -1    0    0  503  502  0.00000000000E+00  0.00000000000E+00  0.92820670695E+03  0.92820670695E+03  0.00000000000E+00 0. -1.
         21   -1    0    0  501  503 -0.00000000000E+00 -0.00000000000E+00 -0.11947884310E+03  0.11947884310E+03  0.00000000000E+00 0. -1.
          6    2    1    2  501    0 -0.25736025640E+03  0.48242218542E+02  0.22969647413E+03  0.38863325921E+03  0.17237670004E+03 0.  0.
         24    2    3    3    0    0 -0.16335115722E+03  0.16716871895E+02  0.22496858731E+03  0.28925518757E+03  0.78068200262E+02 0.  0.
         -6    2    1    2    0  502  0.25736025640E+03 -0.48242218542E+02  0.57903138972E+03  0.65905229084E+03  0.17467386341E+03 0.  0.
        -24    2    5    5    0    0  0.18447166964E+03  0.34300233320E+02  0.39018082969E+03  0.44039130561E+03  0.80604710121E+02 0.  0.
          5    1    3    3  501    0 -0.94009099177E+02  0.31525346647E+02  0.47278868202E+01  0.99378071641E+02  0.47000000000E+01 0. -1.
        -11    1    4    4    0    0 -0.59619831461E-01 -0.15362247412E+02  0.17312715610E+02  0.23145892116E+02  0.00000000000E+00 0.  1.
         12    1    4    4    0    0 -0.16329153739E+03  0.32079119307E+02  0.20765587170E+03  0.26610929546E+03  0.00000000000E+00 0. -1.
         -5    1    5    5    0  502  0.72888586756E+02 -0.82542451861E+02  0.18885056004E+03  0.21866098524E+03  0.47000000000E+01 0.  1.
         13    1    6    6    0    0  0.61136843769E+02  0.38025293221E+02  0.21008769493E+03  0.22208213830E+03  0.00000000000E+00 0. -1.
        -14    1    6    6    0    0  0.12333482587E+03 -0.37250599016E+01  0.18009313475E+03  0.21830916730E+03  0.00000000000E+00 0.  1.
<mgrwt>
<rscale>  2 0.31444023E+03</rscale>
<asrwt>0</asrwt>
<pdfrwt beam="1">  1       21 0.14280103E+00 0.31475796E+03</pdfrwt>
<pdfrwt beam="2">  1       21 0.18381361E-01 0.31475796E+03</pdfrwt>
<totfact> 0.85240740E+03</totfact>
</mgrwt>
</event>
<event>
12    1  0.1029207E-001  0.2065769E+03  0.7546771E-02  0.1145138E+00
         21   -1    0    0  501  502  0.00000000000E+00  0.00000000000E+00  0.12177240729E+03  0.12177240729E+03  0.00000000000E+00 0. -1.
         21   -1    0    0  502  503 -0.00000000000E+00 -0.00000000000E+00 -0.58483831535E+03  0.58483831535E+03  0.00000000000E+00 0. -1.
         -6    2    1    2    0  503  0.99660356703E+02  0.19066578811E+02 -0.45709807867E+03  0.49994760613E+03  0.17525191644E+03 0.  0.
        -24    2    3    3    0    0 -0.12363742567E+02  0.39639456299E+02 -0.13530568369E+03  0.15856061519E+03  0.71482109838E+02 0.  0.
          6    2    1    2  501    0 -0.99660356703E+02 -0.19066578811E+02 -0.59678293814E+01  0.20666311652E+03  0.17993973329E+03 0.  0.
         24    2    5    5    0    0 -0.59564269955E+02 -0.83143334824E+02  0.19718268830E+01  0.13051421649E+03  0.81051565219E+02 0.  0.
          5    1    5    5  501    0 -0.40096086748E+02  0.64076756013E+02 -0.79396562644E+01  0.76148900026E+02  0.47000000000E+01 0. -1.
        -13    1    6    6    0    0  0.10643715120E+02 -0.19771126602E+02  0.24557834843E+02  0.33275717436E+02  0.00000000000E+00 0.  1.
         14    1    6    6    0    0 -0.70207985075E+02 -0.63372208222E+02 -0.22586007960E+02  0.97238499057E+02  0.00000000000E+00 0. -1.
         -5    1    3    3    0  503  0.11202409927E+03 -0.20572877488E+02 -0.32179239499E+03  0.34138699093E+03  0.47000000000E+01 0.  1.
         13    1    4    4    0    0  0.10825257922E+02  0.53192886066E+02 -0.75385127221E+02  0.92895569018E+02  0.00000000000E+00 0. -1.
        -14    1    4    4    0    0 -0.23189000490E+02 -0.13553429767E+02 -0.59920556465E+02  0.65665046176E+02  0.00000000000E+00 0.  1.
<mgrwt>
<rscale>  2 0.20555176E+03</rscale>
<asrwt>0</asrwt>
<pdfrwt beam="1">  1       21 0.18734216E-01 0.20657693E+03</pdfrwt>
<pdfrwt beam="2">  1       21 0.89975127E-01 0.20657693E+03</pdfrwt>
<totfact> 0.27189554E+04</totfact>
</mgrwt>
</event>
<event>
12    1  0.1029207E-001  0.1805491E+03  0.7546771E-02  0.1171001E+00
         21   -1    0    0  501  502  0.00000000000E+00  0.00000000000E+00  0.30997009711E+03  0.30997009711E+03  0.00000000000E+00 0. -1.
         21   -1    0    0  502  503 -0.00000000000E+00 -0.00000000000E+00 -0.28866107477E+03  0.28866107477E+03  0.00000000000E+00 0. -1.
         -6    2    1    2    0  503 -0.33207854395E+02 -0.40309379708E+02 -0.23318353755E+03  0.29491105857E+03  0.17283044464E+03 0.  0.
        -24    2    3    3    0    0 -0.66476550684E+02 -0.58176379168E+00 -0.21480824216E+03  0.23973107035E+03  0.83120003312E+02 0.  0.
          6    2    1    2  501    0  0.33207854395E+02  0.40309379708E+02  0.25449255989E+03  0.30372011331E+03  0.15732716390E+03 0.  0.
         24    2    5    5    0    0  0.76082682380E+02 -0.52999904411E+01  0.13154031601E+03  0.16567008689E+03  0.65780380781E+02 0.  0.
          5    1    5    5  501    0 -0.42874827985E+02  0.45609370149E+02  0.12295224388E+03  0.13805002642E+03  0.47000000000E+01 0. -1.
        -11    1    6    6    0    0  0.80315202633E+01 -0.11943237742E+02  0.76647405475E+02  0.77986992579E+02  0.00000000000E+00 0.  1.
         12    1    6    6    0    0  0.68051162117E+02  0.66432473013E+01  0.54892910540E+02  0.87683094310E+02  0.00000000000E+00 0. -1.
         -5    1    3    3    0  503  0.33268696288E+02 -0.39727615916E+02 -0.18375295391E+02  0.55179988219E+02  0.47000000000E+01 0.  1.
         11    1    4    4    0    0  0.98373402392E+01  0.23079836829E+02 -0.69740616478E+02  0.74116163674E+02  0.00000000000E+00 0. -1.
        -12    1    4    4    0    0 -0.76313890923E+02 -0.23661600620E+02 -0.14506762568E+03  0.16561490667E+03  0.00000000000E+00 0.  1.
<mgrwt>
<rscale>  2 0.17673495E+03</rscale>
<asrwt>0</asrwt>
<pdfrwt beam="1">  1       21 0.47687707E-01 0.18054908E+03</pdfrwt>
<pdfrwt beam="2">  1       21 0.44409396E-01 0.18054908E+03</pdfrwt>
<totfact> 0.20617528E+04</totfact>
</mgrwt>
</event>
<event>
12    1  0.1029207E-001  0.2431166E+03  0.7546771E-02  0.1117915E+00
         21   -1    0    0  503  502  0.00000000000E+00  0.00000000000E+00  0.84071332498E+03  0.84071332498E+03  0.00000000000E+00 0.  1.
         21   -1    0    0  501  503 -0.00000000000E+00 -0.00000000000E+00 -0.77962003020E+02  0.77962003020E+02  0.00000000000E+00 0.  1.
          6    2    1    2  501    0 -0.92930974364E+02 -0.14228703531E+03  0.52751842939E+03  0.58038518745E+03  0.17230643070E+03 0.  0.
         24    2    3    3    0    0 -0.12052178362E+03 -0.12955305579E+03  0.35172490852E+03  0.40192270129E+03  0.80758602928E+02 0.  0.
         -6    2    1    2    0  502  0.92930974364E+02  0.14228703531E+03  0.23523289257E+03  0.33829014054E+03  0.17385033514E+03 0.  0.
        -24    2    5    5    0    0  0.50264744418E+02  0.18036043299E+02  0.15953986634E+03  0.18659887378E+03  0.80711383040E+02 0.  0.
          5    1    3    3  501    0  0.27590809253E+02 -0.12733979522E+02  0.17579352086E+03  0.17846248616E+03  0.47000000000E+01 0. -1.
        -13    1    4    4    0    0 -0.11276484192E+03 -0.66390251729E+02  0.23841741151E+03  0.27196771355E+03  0.00000000000E+00 0.  1.
         14    1    4    4    0    0 -0.77569416945E+01 -0.63162804062E+02  0.11330749701E+03  0.12995498774E+03  0.00000000000E+00 0. -1.
         -5    1    5    5    0  502  0.42666229946E+02  0.12425099201E+03  0.75693026228E+02  0.15169126677E+03  0.47000000000E+01 0.  1.
         11    1    6    6    0    0 -0.15060680796E+02 -0.13019534964E+02  0.14849714248E+02  0.24836392853E+02  0.00000000000E+00 0. -1.
        -12    1    6    6    0    0  0.65325425214E+02  0.31055578263E+02  0.14469015210E+03  0.16176248092E+03  0.00000000000E+00 0.  1.
<mgrwt>
<rscale>  2 0.24284077E+03</rscale>
<asrwt>0</asrwt>
<pdfrwt beam="1">  1       21 0.12934051E+00 0.24311665E+03</pdfrwt>
<pdfrwt beam="2">  1       21 0.11994155E-01 0.24311665E+03</pdfrwt>
<totfact> 0.24981585E+04</totfact>
</mgrwt>
</event>
<event>
12    1  0.1029207E-001  0.2330439E+03  0.7546771E-02  0.1126224E+00
         21   -1    0    0  501  502  0.00000000000E+00  0.00000000000E+00  0.40453397610E+03  0.40453397610E+03  0.00000000000E+00 0.  1.
         21   -1    0    0  502  503 -0.00000000000E+00 -0.00000000000E+00 -0.15740210498E+03  0.15740210498E+03  0.00000000000E+00 0. -1.
         -6    2    1    2    0  503  0.12923466960E+03 -0.88495053246E+02  0.15693383386E+01  0.22339446889E+03  0.15927853475E+03 0.  0.
        -24    2    3    3    0    0  0.15152452491E+03 -0.83640524925E+02  0.21964486408E+02  0.19243552576E+03  0.81200824198E+02 0.  0.
          6    2    1    2  501    0 -0.12923466960E+03  0.88495053246E+02  0.24556253278E+03  0.33854161218E+03  0.17255866074E+03 0.  0.
         24    2    5    5    0    0  0.84092083219E+00  0.40393204017E+02  0.60133254453E+02  0.10693946541E+03  0.78662080402E+02 0.  0.
          5    1    5    5  501    0 -0.13007559044E+03  0.48101849229E+02  0.18542927833E+03  0.23160214677E+03  0.47000000000E+01 0. -1.
        -11    1    6    6    0    0 -0.36658341664E+02  0.34727774093E+02  0.35140896573E+02  0.61520199276E+02  0.00000000000E+00 0.  1.
         12    1    6    6    0    0  0.37499262496E+02  0.56654299236E+01  0.24992357880E+02  0.45419266137E+02  0.00000000000E+00 0. -1.
         -5    1    3    3    0  503 -0.22289855311E+02 -0.48545283209E+01 -0.20395148069E+02  0.30958943131E+02  0.47000000000E+01 0.  1.
         11    1    4    4    0    0  0.10196041995E+03 -0.35537584135E+02 -0.22495099491E+02  0.11029449952E+03  0.00000000000E+00 0. -1.
        -12    1    4    4    0    0  0.49564104961E+02 -0.48102940790E+02  0.44459585898E+02  0.82141026239E+02  0.00000000000E+00 0.  1.
<mgrwt>
<rscale>  2 0.23059174E+03</rscale>
<asrwt>0</asrwt>
<pdfrwt beam="1">  1       21 0.62235996E-01 0.23304391E+03</pdfrwt>
<pdfrwt beam="2">  1       21 0.24215709E-01 0.23304391E+03</pdfrwt>
<totfact> 0.37781002E+04</totfact>
</mgrwt>
</event>
<event>
12    1  0.1029207E-001  0.2475591E+03  0.7546771E-02  0.1114897E+00
         21   -1    0    0  503  502  0.00000000000E+00  0.00000000000E+00  0.34621301856E+03  0.34621301856E+03  0.00000000000E+00 0. -1.
         21   -1    0    0  501  503 -0.00000000000E+00 -0.00000000000E+00 -0.37461625122E+03  0.37461625122E+03  0.00000000000E+00 0. -1.
          6    2    1    2  501    0 -0.17708391782E+03 -0.12952684624E+01 -0.27608191690E+03  0.37081900830E+03  0.17298878694E+03 0.  0.
         24    2    3    3    0    0 -0.15291263886E+03  0.21144885731E+02 -0.28742689516E+03  0.33562511994E+03  0.78744014089E+02 0.  0.
         -6    2    1    2    0  502  0.17708391782E+03  0.12952684624E+01  0.24767868424E+03  0.35001026147E+03  0.17263273397E+03 0.  0.
        -24    2    5    5    0    0  0.78602428833E+02 -0.55965906381E+02  0.17369737586E+03  0.21409569343E+03  0.79722412578E+02 0.  0.
          5    1    3    3  501    0 -0.24171278958E+02 -0.22440154193E+02  0.11344978256E+02  0.35193888366E+02  0.47000000000E+01 0. -1.
        -13    1    4    4    0    0 -0.64077719610E+02 -0.14789726583E+02 -0.60762851643E+02  0.89536664571E+02  0.00000000000E+00 0.  1.
         14    1    4    4    0    0 -0.88834919254E+02  0.35934612314E+02 -0.22666404351E+03  0.24608845536E+03  0.00000000000E+00 0. -1.
         -5    1    5    5    0  502  0.98481488989E+02  0.57261174843E+02  0.73981308377E+02  0.13591456805E+03  0.47000000000E+01 0.  1.
         11    1    6    6    0    0  0.74762055890E+02 -0.74153450901E+02  0.13540723839E+03  0.17153197804E+03  0.00000000000E+00 0. -1.
        -12    1    6    6    0    0  0.38403729428E+01  0.18187544520E+02  0.38290137476E+02  0.42563715392E+02  0.00000000000E+00 0.  1.
<mgrwt>
<rscale>  2 0.24749692E+03</rscale>
<asrwt>0</asrwt>
<pdfrwt beam="1">  1       21 0.53263541E-01 0.24755911E+03</pdfrwt>
<pdfrwt beam="2">  1       21 0.57633269E-01 0.24755911E+03</pdfrwt>
<totfact> 0.91026694E+03</totfact>
</mgrwt>
</event>
<event>
12    1  0.1029207E-001  0.2065076E+03  0.7546771E-02  0.1145439E+00
         21   -1    0    0  503  502  0.00000000000E+00  0.00000000000E+00  0.33126762071E+03  0.33126762071E+03  0.00000000000E+00 0.  1.
         21   -1    0    0  501  503 -0.00000000000E+00 -0.00000000000E+00 -0.19689683437E+03  0.19689683437E+03  0.00000000000E+00 0. -1.
          6    2    1    2  501    0 -0.91122939865E+02 -0.48490034598E+02 -0.92399738114E+02  0.22145569015E+03  0.17277221267E+03 0.  0.
         24    2    3    3    0    0 -0.56527525055E+01  0.26652571090E+02 -0.58990711319E+02  0.10275515439E+03  0.79601536267E+02 0.  0.
         -6    2    1    2    0  502  0.91122939865E+02  0.48490034598E+02  0.22677052445E+03  0.30670876493E+03  0.17885950380E+03 0.  0.
        -24    2    5    5    0    0  0.78950980295E+02 -0.37862916632E+02  0.12398076600E+03  0.17182802788E+03  0.80540567918E+02 0.  0.
          5    1    3    3  501    0 -0.85470187359E+02 -0.75142605688E+02 -0.33409026796E+02  0.11870053575E+03  0.47000000000E+01 0. -1.
        -11    1    4    4    0    0 -0.36433325265E+02  0.35374590387E+02 -0.44947874347E+02  0.67816371498E+02  0.00000000000E+00 0.  1.
         12    1    4    4    0    0  0.30780572760E+02 -0.87220192964E+01 -0.14042836972E+02  0.34938782896E+02  0.00000000000E+00 0. -1.
         -5    1    5    5    0  502  0.12171959569E+02  0.86352951230E+02  0.10278975845E+03  0.13488073706E+03  0.47000000000E+01 0.  1.
         13    1    6    6    0    0  0.30039497349E+02 -0.80892624436E+01 -0.42449065257E+01  0.31397878898E+02  0.00000000000E+00 0. -1.
        -14    1    6    6    0    0  0.48911482947E+02 -0.29773654188E+02  0.12822567252E+03  0.14043014898E+03  0.00000000000E+00 0.  1.
<mgrwt>
<rscale>  2 0.20518259E+03</rscale>
<asrwt>0</asrwt>
<pdfrwt beam="1">  1       21 0.50964249E-01 0.20650762E+03</pdfrwt>
<pdfrwt beam="2">  1       21 0.30291821E-01 0.20650762E+03</pdfrwt>
<totfact> 0.38012491E+04</totfact>
</mgrwt>
</event>
<event>
12    1  0.1029207E-001  0.2014932E+03  0.7546771E-02  0.1148519E+00
         21   -1    0    0  503  502  0.00000000000E+00  0.00000000000E+00  0.60125395088E+03  0.60125395088E+03  0.00000000000E+00 0.  1.
         21   -1    0    0  501  503 -0.00000000000E+00 -0.00000000000E+00 -0.10627843670E+03  0.10627843670E+03  0.00000000000E+00 0.  1.
          6    2    1    2  501    0 -0.16231038045E+02 -0.10187073526E+03  0.33777863232E+02  0.20430484794E+03  0.17308504716E+03 0.  0.
         24    2    3    3    0    0 -0.12295572289E+02 -0.11567468369E+03 -0.26287224891E+02  0.14236986837E+03  0.77758264409E+02 0.  0.
         -6    2    1    2    0  502  0.16231038045E+02  0.10187073526E+03  0.46119765095E+03  0.50322753964E+03  0.17289762900E+03 0.  0.
        -24    2    5    5    0    0  0.77106297759E+02  0.70233039625E+02  0.32160125355E+03  0.34761267789E+03  0.80803134453E+02 0.  0.
          5    1    3    3  501    0 -0.39354657552E+01  0.13803948427E+02  0.60065088123E+02  0.61934979568E+02  0.47000000000E+01 0. -1.
        -11    1    4    4    0    0 -0.40293787535E+02 -0.94666827761E+02 -0.88542185462E+01  0.10326565149E+03  0.00000000000E+00 0.  1.
         12    1    4    4    0    0  0.27998215246E+02 -0.21007855928E+02 -0.17433006345E+02  0.39104216881E+02  0.00000000000E+00 0. -1.
         -5    1    5    5    0  502 -0.60875259715E+02  0.31637695636E+02  0.13959639740E+03  0.15561486175E+03  0.47000000000E+01 0.  1.
         11    1    6    6    0    0  0.36808863098E+02  0.64607573980E+02  0.11431366873E+03  0.13636951961E+03  0.00000000000E+00 0. -1.
        -12    1    6    6    0    0  0.40297434662E+02  0.56254656456E+01  0.20728758482E+03  0.21124315829E+03  0.00000000000E+00 0.  1.
<mgrwt>
<rscale>  2 0.20145299E+03</rscale>
<asrwt>0</asrwt>
<pdfrwt beam="1">  1       21 0.92500606E-01 0.20149324E+03</pdfrwt>
<pdfrwt beam="2">  1       21 0.16350529E-01 0.20149324E+03</pdfrwt>
<totfact> 0.32873657E+04</totfact>
</mgrwt>
</event>
<event>
12    1  0.1029207E-001  0.2176278E+03  0.7546771E-02  0.1135912E+00
         21   -1    0    0  501  502  0.00000000000E+00  0.00000000000E+00  0.18826600938E+03  0.18826600938E+03  0.00000000000E+00 0.  1.
         21   -1    0    0  502  503 -0.00000000000E+00 -0.00000000000E+00 -0.27655417152E+03  0.27655417152E+03  0.00000000000E+00 0.  1.
         -6    2    1    2    0  503  0.10813897741E+03 -0.72974529252E+02 -0.11619874436E+03  0.24670627442E+03  0.17419103678E+03 0.  0.
        -24    2    3    3    0    0  0.48090852954E+02 -0.87312637365E+02 -0.13121822105E+03  0.18299573154E+03  0.79580081965E+02 0.  0.
          6    2    1    2  501    0 -0.10813897741E+03  0.72974529252E+02  0.27910582223E+02  0.21811390647E+03  0.17255536863E+03 0.  0.
         24    2    5    5    0    0 -0.10261891620E+03  0.72076589321E+02  0.77239879090E+02  0.16824661357E+03  0.81334170969E+02 0.  0.
          5    1    5    5  501    0 -0.55200612132E+01  0.89793993104E+00 -0.49329296867E+02  0.49867292901E+02  0.47000000000E+01 0. -1.
        -11    1    6    6    0    0 -0.42866764970E+02  0.78322165524E+02  0.49260868196E+02  0.10197330183E+03  0.00000000000E+00 0.  1.
         12    1    6    6    0    0 -0.59752151226E+02 -0.62455762029E+01  0.27979010894E+02  0.66273311739E+02  0.00000000000E+00 0. -1.
         -5    1    3    3    0  503  0.60048124455E+02  0.14338108112E+02  0.15019476682E+02  0.63710542885E+02  0.47000000000E+01 0.  1.
         11    1    4    4    0    0  0.39619022158E+01  0.14635506387E+02 -0.81831755483E+01  0.17229598905E+02  0.00000000000E+00 0. -1.
        -12    1    4    4    0    0  0.44128950738E+02 -0.10194814375E+03 -0.12303504550E+03  0.16576613263E+03  0.00000000000E+00 0.  1.
<mgrwt>
<rscale>  2 0.21730027E+03</rscale>
<asrwt>0</asrwt>
<pdfrwt beam="1">  1       21 0.28964002E-01 0.21762775E+03</pdfrwt>
<pdfrwt beam="2">  1       21 0.42546795E-01 0.21762775E+03</pdfrwt>
<totfact> 0.59954148E+04</totfact>
</mgrwt>
</event>
<event>
12    1  0.1029207E-001  0.1836023E+03  0.7546771E-02  0.1164414E+00
         21   -1    0    0  501  502  0.00000000000E+00  0.00000000000E+00  0.71035407277E+03  0.71035407277E+03  0.00000000000E+00 0.  1.
         21   -1    0    0  502  503 -0.00000000000E+00 -0.00000000000E+00 -0.96322442405E+02  0.96322442405E+02  0.00000000000E+00 0.  1.
         -6    2    1    2    0  503 -0.24831076383E+02  0.56261364484E+02  0.19467561406E+02  0.18440951515E+03  0.17275983284E+03 0.  0.
        -24    2    3    3    0    0  0.84060612900E+01 -0.23274397832E+02 -0.21584730960E+02  0.88816494921E+02  0.82523388797E+02 0.  0.
          6    2    1    2  501    0  0.24831076383E+02 -0.56261364484E+02  0.59456406896E+03  0.62226700003E+03  0.17299671597E+03 0.  0.
         24    2    5    5    0    0 -0.45197740165E+02 -0.24711679305E+02  0.42914390493E+03  0.43982430094E+03  0.81408978309E+02 0.  0.
          5    1    5    5  501    0  0.70028816549E+02 -0.31549685179E+02  0.16542016404E+03  0.18244269909E+03  0.47000000000E+01 0. -1.
        -13    1    6    6    0    0  0.11895762154E+02 -0.36027547600E+02  0.15593463975E+03  0.16048397184E+03  0.00000000000E+00 0.  1.
         14    1    6    6    0    0 -0.57093502320E+02  0.11315868295E+02  0.27320926518E+03  0.27934032910E+03  0.00000000000E+00 0. -1.
         -5    1    3    3    0  503 -0.33237137673E+02  0.79535762316E+02  0.41052292366E+02  0.95593020228E+02  0.47000000000E+01 0.  1.
         11    1    4    4    0    0  0.11827977792E+02 -0.10523322411E+02  0.30887709321E+02  0.34708672696E+02  0.00000000000E+00 0. -1.
        -12    1    4    4    0    0 -0.34219165020E+01 -0.12751075420E+02 -0.52472440280E+02  0.54107822225E+02  0.00000000000E+00 0.  1.
<mgrwt>
<rscale>  2 0.18354643E+03</rscale>
<asrwt>0</asrwt>
<pdfrwt beam="1">  1       21 0.10928524E+00 0.18360225E+03</pdfrwt>
<pdfrwt beam="2">  1       21 0.14818838E-01 0.18360225E+03</pdfrwt>
<totfact> 0.26750847E+04</totfact>
</mgrwt>
</event>
<event>
12    1  0.1029207E-001  0.2197611E+03  0.7546771E-02  0.1134127E+00
         21   -1    0    0  501  502  0.00000000000E+00  0.00000000000E+00  0.11797060068E+03  0.11797060068E+03  0.00000000000E+00 0.  1.
         21   -1    0    0  502  503 -0.00000000000E+00 -0.00000000000E+00 -0.45373214969E+03  0.45373214969E+03  0.00000000000E+00 0.  1.
         -6    2    1    2    0  503  0.97381025863E+02  0.92767399845E+02 -0.25778354894E+03  0.33851719417E+03  0.17335708228E+03 0.  0.
        -24    2    3    3    0    0  0.10233951557E+03  0.30502702210E+02 -0.95362022754E+02  0.16443582998E+03  0.80879141366E+02 0.  0.
          6    2    1    2  501    0 -0.97381025863E+02 -0.92767399845E+02 -0.77978000075E+02  0.23318555620E+03  0.17379896563E+03 0.  0.
         24    2    5    5    0    0 -0.84118360145E+02 -0.12338376160E+03 -0.27434003980E+02  0.17243981190E+03  0.81752143786E+02 0.  0.
          5    1    5    5  501    0 -0.13262665718E+02  0.30616361759E+02 -0.50543996095E+02  0.60745744300E+02  0.47000000000E+01 0. -1.
        -11    1    6    6    0    0 -0.52925781842E+02 -0.12247145804E+03 -0.39249971976E+02  0.13907176823E+03  0.00000000000E+00 0.  1.
         12    1    6    6    0    0 -0.31192578303E+02 -0.91230356379E+00  0.11815967996E+02  0.33368043674E+02  0.00000000000E+00 0. -1.
         -5    1    3    3    0  503 -0.49584897058E+01  0.62264697634E+02 -0.16242152618E+03  0.17408136419E+03  0.47000000000E+01 0.  1.
         13    1    4    4    0    0  0.10603762708E+03  0.45933667204E+02 -0.71864523412E+02  0.13608229079E+03  0.00000000000E+00 0. -1.
        -14    1    4    4    0    0 -0.36981115156E+01 -0.15430964993E+02 -0.23497499342E+02  0.28353539192E+02  0.00000000000E+00 0.  1.
<mgrwt>
<rscale>  2 0.21967371E+03</rscale>
<asrwt>0</asrwt>
<pdfrwt beam="1">  1       21 0.18149323E-01 0.21976109E+03</pdfrwt>
<pdfrwt beam="2">  1       21 0.69804947E-01 0.21976109E+03</pdfrwt>
<totfact> 0.50884295E+04</totfact>
</mgrwt>
</event>
<event>
12    1  0.1029207E-001  0.1931502E+03  0.7546771E-02  0.1156297E+00
         21   -1    0    0  503  502  0.00000000000E+00  0.00000000000E+00  0.50124360129E+03  0.50124360129E+03  0.00000000000E+00 0.  1.
         21   -1    0    0  501  503 -0.00000000000E+00 -0.00000000000E+00 -0.74223978589E+02  0.74223978589E+02  0.00000000000E+00 0.  1.
          6    2    1    2  501    0  0.46035083410E+02 -0.61253729185E+02  0.18324961382E+03  0.26624688528E+03  0.17730125412E+03 0.  0.
         24    2    3    3    0    0  0.71738691263E+02 -0.81958077667E+01  0.17649845657E+03  0.20671969312E+03  0.79797965285E+02 0.  0.
         -6    2    1    2    0  502 -0.46035083410E+02  0.61253729185E+02  0.24377000889E+03  0.30922069460E+03  0.17413320331E+03 0.  0.
        -24    2    5    5    0    0  0.22521773670E+02  0.29157874170E+02  0.49603845795E+02  0.10076740139E+03  0.79599722048E+02 0.  0.
          5    1    3    3  501    0 -0.25703607853E+02 -0.53057921418E+02  0.67511572489E+01  0.59527192157E+02  0.47000000000E+01 0. -1.
        -11    1    4    4    0    0  0.17852636868E+02  0.39404811386E+01 -0.33442638896E+01  0.18585697074E+02  0.00000000000E+00 0.  1.
         12    1    4    4    0    0  0.53886054394E+02 -0.12136288905E+02  0.17984272046E+03  0.18813399605E+03  0.00000000000E+00 0. -1.
         -5    1    5    5    0  502 -0.68556857080E+02  0.32095855015E+02  0.19416616309E+03  0.20845329321E+03  0.47000000000E+01 0.  1.
         13    1    6    6    0    0 -0.10014973892E+02 -0.22110551513E+02  0.26135804203E+02  0.35668704092E+02  0.00000000000E+00 0. -1.
        -14    1    6    6    0    0  0.32536747562E+02  0.51268425683E+02  0.23468041592E+02  0.65098697299E+02  0.00000000000E+00 0.  1.
<mgrwt>
<rscale>  2 0.19242004E+03</rscale>
<asrwt>0</asrwt>
<pdfrwt beam="1">  1       21 0.77114398E-01 0.19315016E+03</pdfrwt>
<pdfrwt beam="2">  1       21 0.11419074E-01 0.19315016E+03</pdfrwt>
<totfact> 0.95781150E+04</totfact>
</mgrwt>
</event>
<event>
12    1  0.1029207E-001  0.1738599E+03  0.7546771E-02  0.1174950E+00
         21   -1    0    0  503  502  0.00000000000E+00  0.00000000000E+00  0.56458149306E+02  0.56458149306E+02  0.00000000000E+00 0. -1.
         21   -1    0    0  501  503 -0.00000000000E+00 -0.00000000000E+00 -0.54673939516E+03  0.54673939516E+03  0.00000000000E+00 0. -1.
          6    2    1    2  501    0 -0.38317884406E+01  0.84385726945E+01 -0.30561384668E+03  0.34956531160E+03  0.16944082059E+03 0.  0.
         24    2    3    3    0    0 -0.35840947074E+02  0.43838692767E+02 -0.27721793908E+03  0.29383226659E+03  0.79254089315E+02 0.  0.
         -6    2    1    2    0  502  0.38317884406E+01 -0.84385726945E+01 -0.18466739917E+03  0.25363223286E+03  0.17361269861E+03 0.  0.
        -24    2    5    5    0    0  0.55966346968E+02 -0.35113371085E+02 -0.15816610528E+03  0.18918096724E+03  0.80048364671E+02 0.  0.
          5    1    3    3  501    0  0.32009158633E+02 -0.35400120073E+02 -0.28395907602E+02  0.55733045010E+02  0.47000000000E+01 0. -1.
        -11    1    4    4    0    0 -0.30426379315E+02 -0.75251111091E+01 -0.38769910815E+02  0.49854767475E+02  0.00000000000E+00 0.  1.
         12    1    4    4    0    0 -0.54145677590E+01  0.51363803876E+02 -0.23844802826E+03  0.24397749912E+03  0.00000000000E+00 0. -1.
         -5    1    5    5    0  502 -0.52134558527E+02  0.26674798390E+02 -0.26501293898E+02  0.64451265622E+02  0.47000000000E+01 0.  1.
         13    1    6    6    0    0  0.19702591713E+02 -0.47808139981E+02 -0.41351462390E+02  0.66209922296E+02  0.00000000000E+00 0. -1.
        -14    1    6    6    0    0  0.36263755254E+02  0.12694768896E+02 -0.11681464289E+03  0.12297104495E+03  0.00000000000E+00 0.  1.
<mgrwt>
<rscale>  2 0.17280895E+03</rscale>
<asrwt>0</asrwt>
<pdfrwt beam="1">  1       21 0.86858689E-02 0.17385989E+03</pdfrwt>
<pdfrwt beam="2">  1       21 0.84113755E-01 0.17385989E+03</pdfrwt>
<totfact> 0.12847381E+05</totfact>
</mgrwt>
</event>
<event>
12    1  0.1029207E-001  0.2705410E+03  0.7546771E-02  0.1101142E+00
         21   -1    0    0  501  502  0.00000000000E+00  0.00000000000E+00  0.29076874308E+03  0.29076874308E+03  0.00000000000E+00 0.  1.
         21   -1    0    0  502  503 -0.00000000000E+00 -0.00000000000E+00 -0.27016994397E+03  0.27016994397E+03  0.00000000000E+00 0.  1.
         -6    2    1    2    0  503 -0.16361083754E+03  0.12689186464E+03 -0.65191429881E+02  0.27712113098E+03  0.17226766160E+03 0.  0.
        -24    2    3    3    0    0 -0.10968464816E+03  0.12921596981E+02 -0.32036917165E+01  0.13654437083E+03  0.80227251316E+02 0.  0.
          6    2    1    2  501    0  0.16361083754E+03 -0.12689186464E+03  0.85790228985E+02  0.28381755608E+03  0.17413325437E+03 0.  0.
         24    2    5    5    0    0  0.16952715441E+03 -0.11065963861E+03  0.11740721506E+03  0.24748283748E+03  0.80487818949E+02 0.  0.
          5    1    5    5  501    0 -0.59163168783E+01 -0.16232226030E+02 -0.31616986070E+02  0.36334718596E+02  0.47000000000E+01 0. -1.
        -11    1    6    6    0    0  0.53529157395E+02 -0.61307580210E+02  0.84236708856E+02  0.11713160633E+03  0.00000000000E+00 0.  1.
         12    1    6    6    0    0  0.11599799702E+03 -0.49352058401E+02  0.33170506200E+02  0.13035123115E+03  0.00000000000E+00 0. -1.
         -5    1    3    3    0  503 -0.53926189379E+02  0.11397026766E+03 -0.61987738164E+02  0.14057676015E+03  0.47000000000E+01 0.  1.
         13    1    4    4    0    0 -0.23558609073E+02 -0.11346789723E+02 -0.33117865944E+02  0.42196572647E+02  0.00000000000E+00 0. -1.
        -14    1    4    4    0    0 -0.86126039084E+02  0.24268386703E+02  0.29914174228E+02  0.94347798179E+02  0.00000000000E+00 0.  1.
<mgrwt>
<rscale>  2 0.27024127E+03</rscale>
<asrwt>0</asrwt>
<pdfrwt beam="1">  1       21 0.44733653E-01 0.27054102E+03</pdfrwt>
<pdfrwt beam="2">  1       21 0.41564607E-01 0.27054102E+03</pdfrwt>
<totfact> 0.25720934E+04</totfact>
</mgrwt>
</event>
<event>
12    1  0.1029207E-001  0.2027656E+03  0.7546771E-02  0.1149012E+00
         21   -1    0    0  501  502  0.00000000000E+00  0.00000000000E+00  0.45556303195E+02  0.45556303195E+02  0.00000000000E+00 0.  1.
         21   -1    0    0  502  503 -0.00000000000E+00 -0.00000000000E+00 -0.14446956942E+04  0.14446956942E+04  0.00000000000E+00 0.  1.
         -6    2    1    2    0  503  0.71566632996E+02 -0.73233631896E+02 -0.22149398622E+03  0.29527811305E+03  0.16626674447E+03 0.  0.
        -24    2    3    3    0    0  0.45675820461E+02  0.89054494201E+01 -0.17356967722E+03  0.19660698128E+03  0.79763930638E+02 0.  0.
          6    2    1    2  501    0 -0.71566632996E+02  0.73233631896E+02 -0.11776454048E+04  0.11949738843E+04  0.17501124836E+03 0.  0.
         24    2    5    5    0    0  0.16400839581E+02  0.13170641713E+02 -0.72873731494E+03  0.73357773985E+03  0.81460253387E+02 0.  0.
          5    1    5    5  501    0 -0.87967472578E+02  0.60062990183E+02 -0.44890808983E+03  0.46139614447E+03  0.47000000000E+01 0. -1.
        -11    1    6    6    0    0 -0.11227951124E+02  0.16713813558E+02 -0.45302944522E+02  0.49575954176E+02  0.00000000000E+00 0.  1.
         12    1    6    6    0    0  0.27628790705E+02 -0.35431718456E+01 -0.68343437041E+03  0.68400178567E+03  0.00000000000E+00 0. -1.
         -5    1    3    3    0  503  0.25890812535E+02 -0.82139081316E+02 -0.47924308997E+02  0.98671131776E+02  0.47000000000E+01 0.  1.
         13    1    4    4    0    0 -0.21449652525E+02  0.10523454006E+02 -0.32138759661E+02  0.40046604727E+02  0.00000000000E+00 0. -1.
        -14    1    4    4    0    0  0.67125472986E+02 -0.16180045859E+01 -0.14143091756E+03  0.15656037655E+03  0.00000000000E+00 0.  1.
<mgrwt>
<rscale>  2 0.20086462E+03</rscale>
<asrwt>0</asrwt>
<pdfrwt beam="1">  1       21 0.70086626E-02 0.20276559E+03</pdfrwt>
<pdfrwt beam="2">  1       21 0.22226086E+00 0.20276559E+03</pdfrwt>
<totfact> 0.14584013E+04</totfact>
</mgrwt>
</event>
<event>
12    1  0.1029207E-001  0.2122909E+03  0.7546771E-02  0.1140037E+00
         21   -1    0    0  501  502  0.00000000000E+00  0.00000000000E+00  0.13351974450E+04  0.13351974450E+04  0.00000000000E+00 0.  1.
         21   -1    0    0  502  503 -0.00000000000E+00 -0.00000000000E+00 -0.56840797729E+03  0.56840797729E+03  0.00000000000E+00 0.  1.
         -6    2    1    2    0  503  0.11971399646E+03 -0.14773757483E+02 -0.53998021001E+03  0.57970420349E+03  0.17299893492E+03 0.  0.
        -24    2    3    3    0    0  0.50967269437E+01 -0.35403682584E+02 -0.17041751399E+03  0.19219757313E+03  0.81353430642E+02 0.  0.
          6    2    1    2  501    0 -0.11971399646E+03  0.14773757483E+02  0.13067696777E+04  0.13239012188E+04  0.17469327892E+03 0.  0.
         24    2    5    5    0    0 -0.91748092940E+02 -0.56277893462E+01  0.12576272954E+04  0.12636071178E+04  0.81407306461E+02 0.  0.
          5    1    5    5  501    0 -0.27965903520E+02  0.20401546830E+02  0.49142382357E+02  0.60294101008E+02  0.47000000000E+01 0. -1.
        -13    1    6    6    0    0 -0.59822063040E+02 -0.26621491684E+02  0.41678131923E+03  0.42189341201E+03  0.00000000000E+00 0.  1.
         14    1    6    6    0    0 -0.31926029900E+02  0.20993702338E+02  0.84084597615E+03  0.84171370580E+03  0.00000000000E+00 0. -1.
         -5    1    3    3    0  503  0.11461726952E+03  0.20629925100E+02 -0.36956269602E+03  0.38750663036E+03  0.47000000000E+01 0.  1.
         11    1    4    4    0    0  0.14071743244E+02 -0.53259976702E+02 -0.66393871624E+02  0.86271578549E+02  0.00000000000E+00 0. -1.
        -12    1    4    4    0    0 -0.89750163004E+01  0.17856294118E+02 -0.10402364236E+03  0.10592599458E+03  0.00000000000E+00 0.  1.
<mgrwt>
<rscale>  2 0.21194207E+03</rscale>
<asrwt>0</asrwt>
<pdfrwt beam="1">  1       21 0.20541499E+00 0.21229095E+03</pdfrwt>
<pdfrwt beam="2">  1       21 0.87447382E-01 0.21229095E+03</pdfrwt>
<totfact> 0.13558085E+02</totfact>
</mgrwt>
</event>
<event>
12    1  0.1029207E-001  0.2319362E+03  0.7546771E-02  0.1125575E+00
         21   -1    0    0  501  502  0.00000000000E+00  0.00000000000E+00  0.10231372628E+03  0.10231372628E+03  0.00000000000E+00 0.  1.
         21   -1    0    0  502  503 -0.00000000000E+00 -0.00000000000E+00 -0.57140929220E+03  0.57140929220E+03  0.00000000000E+00 0. -1.
         -6    2    1    2    0  503 -0.38686561712E+02 -0.14668160376E+03 -0.33436038210E+03  0.40692904341E+03  0.17544867714E+03 0.  0.
        -24    2    3    3    0    0 -0.59450563178E+01 -0.15457898219E+03 -0.32911844458E+03  0.37252057540E+03  0.80762758173E+02 0.  0.
          6    2    1    2  501    0  0.38686561712E+02  0.14668160376E+03 -0.13473518382E+03  0.26679397507E+03  0.17324350620E+03 0.  0.
         24    2    5    5    0    0 -0.12833292672E+02  0.13062270749E+03 -0.44588508247E+02  0.16162412834E+03  0.83109798953E+02 0.  0.
          5    1    5    5  501    0  0.51519854384E+02  0.16058896271E+02 -0.90146675575E+02  0.10516984674E+03  0.47000000000E+01 0. -1.
        -13    1    6    6    0    0  0.10235507162E+02 -0.43127173718E+01 -0.19513916869E+02  0.22453464979E+02  0.00000000000E+00 0.  1.
         14    1    6    6    0    0 -0.23068799834E+02  0.13493542486E+03 -0.25074591378E+02  0.13917066336E+03  0.00000000000E+00 0. -1.
         -5    1    3    3    0  503 -0.32741505394E+02  0.78973784303E+01 -0.52419375269E+01  0.34408468007E+02  0.47000000000E+01 0.  1.
         11    1    4    4    0    0  0.22474124566E+02 -0.39775809648E+02 -0.15826184112E+03  0.16472404701E+03  0.00000000000E+00 0. -1.
        -12    1    4    4    0    0 -0.28419180884E+02 -0.11480317254E+03 -0.17085660346E+03  0.20779652839E+03  0.00000000000E+00 0.  1.
<mgrwt>
<rscale>  2 0.23151914E+03</rscale>
<asrwt>0</asrwt>
<pdfrwt beam="1">  1       21 0.15740573E-01 0.23193616E+03</pdfrwt>
<pdfrwt beam="2">  1       21 0.87909121E-01 0.23193616E+03</pdfrwt>
<totfact> 0.39065479E+04</totfact>
</mgrwt>
</event>
<event>
12    1  0.1029207E-001  0.2502451E+03  0.7546771E-02  0.1113385E+00
         21   -1    0    0  503  502  0.00000000000E+00  0.00000000000E+00  0.13850169837E+03  0.13850169837E+03  0.00000000000E+00 0. -1.
         21   -1    0    0  501  503 -0.00000000000E+00 -0.00000000000E+00 -0.44975916105E+03  0.44975916105E+03  0.00000000000E+00 0. -1.
          6    2    1    2  501    0  0.57064956578E+02 -0.17392590540E+03 -0.16356363982E+03  0.29895768351E+03  0.17063411856E+03 0.  0.
         24    2    3    3    0    0  0.29468559943E+02 -0.18070129511E+03 -0.17709163411E+03  0.26713687832E+03  0.80494166283E+02 0.  0.
         -6    2    1    2    0  502 -0.57064956578E+02  0.17392590540E+03 -0.14769382287E+03  0.28930317591E+03  0.16845246344E+03 0.  0.
        -24    2    5    5    0    0 -0.91367150922E+02  0.98584041630E+02 -0.13215107836E+03  0.20494261711E+03  0.80441278367E+02 0.  0.
          5    1    3    3  501    0  0.27596396635E+02  0.67753897119E+01  0.13527994295E+02  0.31820805185E+02  0.47000000000E+01 0. -1.
        -11    1    4    4    0    0  0.44030380429E+01 -0.24896054027E+02 -0.75092365206E+02  0.79234232264E+02  0.00000000000E+00 0.  1.
         12    1    4    4    0    0  0.25065521900E+02 -0.15580524109E+03 -0.10199926891E+03  0.18790264606E+03  0.00000000000E+00 0. -1.
         -5    1    5    5    0  502  0.34302194344E+02  0.75341863772E+02 -0.15542744501E+02  0.84360558794E+02  0.47000000000E+01 0.  1.
         11    1    6    6    0    0 -0.23118403865E+02  0.20695040291E+02 -0.86259413373E+02  0.91670233366E+02  0.00000000000E+00 0. -1.
        -12    1    6    6    0    0 -0.68248747057E+02  0.77889001339E+02 -0.45891664991E+02  0.11327238375E+03  0.00000000000E+00 0.  1.
<mgrwt>
<rscale>  2 0.24987370E+03</rscale>
<asrwt>0</asrwt>
<pdfrwt beam="1">  1       21 0.21307953E-01 0.25024514E+03</pdfrwt>
<pdfrwt beam="2">  1       21 0.69193718E-01 0.25024514E+03</pdfrwt>
<totfact> 0.37904335E+04</totfact>
</mgrwt>
</event>
<event>
12    1  0.1029207E-001  0.2381206E+03  0.7546771E-02  0.1122252E+00
         21   -1    0    0  501  502  0.00000000000E+00  0.00000000000E+00  0.47069386108E+03  0.47069386108E+03  0.00000000000E+00 0.  1.
         21   -1    0    0  502  503 -0.00000000000E+00 -0.00000000000E+00 -0.16597894659E+03  0.16597894659E+03  0.00000000000E+00 0.  1.
         -6    2    1    2    0  503 -0.91530655447E+02  0.13547510630E+03 -0.22275105811E+02  0.23216831143E+03  0.16332354142E+03 0.  0.
        -24    2    3    3    0    0 -0.14944217710E+02  0.72793366351E+02  0.38761071950E+02  0.11579826390E+03  0.79903775849E+02 0.  0.
          6    2    1    2  501    0  0.91530655447E+02 -0.13547510630E+03  0.32699002031E+03  0.40450449624E+03  0.17311859745E+03 0.  0.
         24    2    5    5    0    0  0.94956712999E+02 -0.93610096400E+02  0.32689732508E+03  0.36223730428E+03  0.81082525690E+02 0.  0.
          5    1    5    5  501    0 -0.34260575518E+01 -0.41865009898E+02  0.92695226718E-01  0.42267191964E+02  0.47000000000E+01 0. -1.
        -13    1    6    6    0    0  0.42291309706E+02 -0.12348747122E+02  0.40248845690E+02  0.59674249149E+02  0.00000000000E+00 0.  1.
         14    1    6    6    0    0  0.52665403293E+02 -0.81261349279E+02  0.28664847939E+03  0.30256305513E+03  0.00000000000E+00 0. -1.
         -5    1    3    3    0  503 -0.76586437737E+02  0.62681739947E+02 -0.61036177761E+02  0.11637004754E+03  0.47000000000E+01 0.  1.
         13    1    4    4    0    0 -0.43718300223E+02  0.57879894258E+02  0.11485746260E+02  0.73439051606E+02  0.00000000000E+00 0. -1.
        -14    1    4    4    0    0  0.28774082513E+02  0.14913472094E+02  0.27275325690E+02  0.42359212290E+02  0.00000000000E+00 0.  1.
<mgrwt>
<rscale>  2 0.23634499E+03</rscale>
<asrwt>0</asrwt>
<pdfrwt beam="1">  1       21 0.72414439E-01 0.23812059E+03</pdfrwt>
<pdfrwt beam="2">  1       21 0.25535223E-01 0.23812059E+03</pdfrwt>
<totfact> 0.24395422E+04</totfact>
</mgrwt>
</event>
<event>
12    1  0.1029207E-001  0.1809617E+03  0.7546771E-02  0.1166943E+00
         21   -1    0    0  501  502  0.00000000000E+00  0.00000000000E+00  0.58050204323E+02  0.58050204323E+02  0.00000000000E+00 0.  1.
         21   -1    0    0  502  503 -0.00000000000E+00 -0.00000000000E+00 -0.66664322384E+03  0.66664322384E+03  0.00000000000E+00 0.  1.
         -6    2    1    2    0  503 -0.25450639147E+02  0.46914559353E+02 -0.44680039459E+03  0.48195081917E+03  0.17261891141E+03 0.  0.
        -24    2    3    3    0    0 -0.15269987526E+02  0.86053487076E+02 -0.20145896657E+03  0.23325420151E+03  0.78634802432E+02 0.  0.
          6    2    1    2  501    0  0.25450639147E+02 -0.46914559353E+02 -0.16179262493E+03  0.24274260900E+03  0.17291156650E+03 0.  0.
         24    2    5    5    0    0  0.67903184199E+02 -0.67646254866E+02 -0.82544470296E+02  0.15036089115E+03  0.81289296891E+02 0.  0.
          5    1    5    5  501    0 -0.42452545052E+02  0.20731695513E+02 -0.79248154630E+02  0.92381717848E+02  0.47000000000E+01 0. -1.
        -11    1    6    6    0    0  0.46521457957E+02  0.36339980518E+01 -0.12842718044E+02  0.48398216900E+02  0.00000000000E+00 0.  1.
         12    1    6    6    0    0  0.21381726242E+02 -0.71280252918E+02 -0.69701752252E+02  0.10196267425E+03  0.00000000000E+00 0. -1.
         -5    1    3    3    0  503 -0.10180651621E+02 -0.39138927723E+02 -0.24534142802E+03  0.24869661766E+03  0.47000000000E+01 0.  1.
         11    1    4    4    0    0  0.26611693848E+02  0.51349688105E+02 -0.68814538747E+02  0.89891120034E+02  0.00000000000E+00 0. -1.
        -12    1    4    4    0    0 -0.41881681375E+02  0.34703798971E+02 -0.13264442782E+03  0.14336308148E+03  0.00000000000E+00 0.  1.
<mgrwt>
<rscale>  2 0.18089171E+03</rscale>
<asrwt>0</asrwt>
<pdfrwt beam="1">  1       21 0.89308002E-02 0.18096166E+03</pdfrwt>
<pdfrwt beam="2">  1       21 0.10256050E+00 0.18096166E+03</pdfrwt>
<totfact> 0.76932267E+04</totfact>
</mgrwt>
</event>
<event>
12    1  0.1029207E-001  0.1827679E+03  0.7546771E-02  0.1165161E+00
         21   -1    0    0  501  502  0.00000000000E+00  0.00000000000E+00  0.20219457411E+03  0.20219457411E+03  0.00000000000E+00 0.  1.
         21   -1    0    0  502  503 -0.00000000000E+00 -0.00000000000E+00 -0.27060914385E+03  0.27060914385E+03  0.00000000000E+00 0. -1.
         -6    2    1    2    0  503  0.48481289960E+02 -0.31377829950E+02 -0.18176985718E+03  0.25773735511E+03  0.17335875966E+03 0.  0.
        -24    2    3    3    0    0  0.74046538222E+02 -0.17030932329E+02 -0.48511554674E+02  0.12121160451E+03  0.81030485943E+02 0.  0.
          6    2    1    2  501    0 -0.48481289960E+02  0.31377829950E+02  0.11335528743E+03  0.21506636285E+03  0.17340448539E+03 0.  0.
         24    2    5    5    0    0 -0.52297409395E+02  0.41421836086E+02  0.33417261057E+01  0.10442948608E+03  0.80271806356E+02 0.  0.
          5    1    5    5  501    0  0.38161194346E+01 -0.10044006135E+02  0.11001356132E+03  0.11063687677E+03  0.47000000000E+01 0. -1.
        -11    1    6    6    0    0  0.12121673660E+02  0.29912480669E+02  0.18577699367E+02  0.37240064257E+02  0.00000000000E+00 0.  1.
         12    1    6    6    0    0 -0.64419083055E+02  0.11509355417E+02 -0.15235973261E+02  0.67189421824E+02  0.00000000000E+00 0. -1.
         -5    1    3    3    0  503 -0.25565248261E+02 -0.14346897621E+02 -0.13325830250E+03  0.13652575060E+03  0.47000000000E+01 0.  1.
         13    1    4    4    0    0  0.59528268871E+02 -0.36986459797E+02 -0.61574021399E+02  0.93289726735E+02  0.00000000000E+00 0. -1.
        -14    1    4    4    0    0  0.14518269351E+02  0.19955527468E+02  0.13062466725E+02  0.27921877774E+02  0.00000000000E+00 0.  1.
<mgrwt>
<rscale>  2 0.18275709E+03</rscale>
<asrwt>0</asrwt>
<pdfrwt beam="1">  1       21 0.31106858E-01 0.18276794E+03</pdfrwt>
<pdfrwt beam="2">  1       21 0.41632176E-01 0.18276794E+03</pdfrwt>
<totfact> 0.55396066E+04</totfact>
</mgrwt>
</event>
<event>
12    1  0.1029207E-001  0.1860023E+03  0.7546771E-02  0.1162618E+00
         21   -1    0    0  503  502  0.00000000000E+00  0.00000000000E+00  0.59902778302E+03  0.59902778302E+03  0.00000000000E+00 0.  1.
         21   -1    0    0  501  503 -0.00000000000E+00 -0.00000000000E+00 -0.66949229206E+02  0.66949229206E+02  0.00000000000E+00 0. -1.
          6    2    1    2  501    0  0.37741419609E+02 -0.15197634198E+02  0.13693985915E+03  0.22924888650E+03  0.17929624675E+03 0.  0.
         24    2    3    3    0    0  0.20452308182E+01  0.56343656394E+02  0.42310132668E+02  0.10527611011E+03  0.78192847806E+02 0.  0.
         -6    2    1    2    0  502 -0.37741419609E+02  0.15197634198E+02  0.39513869467E+03  0.43672812572E+03  0.18149789237E+03 0.  0.
        -24    2    5    5    0    0  0.24129904550E+02  0.62185469608E+02  0.16723543666E+03  0.19590058901E+03  0.77201454493E+02 0.  0.
          5    1    3    3  501    0  0.35696188791E+02 -0.71541290592E+02  0.94629726478E+02  0.12397277640E+03  0.47000000000E+01 0. -1.
        -11    1    4    4    0    0 -0.12758252353E+02  0.40464087751E+02  0.62558839580E+02  0.75589177865E+02  0.00000000000E+00 0.  1.
         12    1    4    4    0    0  0.14803483172E+02  0.15879568643E+02 -0.20248706913E+02  0.29686932242E+02  0.00000000000E+00 0. -1.
         -5    1    5    5    0  502 -0.61871324159E+02 -0.46987835409E+02  0.22790325800E+03  0.24082753671E+03  0.47000000000E+01 0.  1.
         13    1    6    6    0    0  0.20683781925E+02  0.49921536839E+02  0.17348886680E+03  0.18170956380E+03  0.00000000000E+00 0. -1.
        -14    1    6    6    0    0  0.34461226249E+01  0.12263932769E+02 -0.62534301326E+01  0.14191025211E+02  0.00000000000E+00 0.  1.
<mgrwt>
<rscale>  2 0.18546307E+03</rscale>
<asrwt>0</asrwt>
<pdfrwt beam="1">  1       21 0.92158117E-01 0.18600233E+03</pdfrwt>
<pdfrwt beam="2">  1       21 0.10299882E-01 0.18600233E+03</pdfrwt>
<totfact> 0.76803276E+04</totfact>
</mgrwt>
</event>
<event>
12    1  0.1029207E-001  0.2390644E+03  0.7546771E-02  0.1120636E+00
         21   -1    0    0  503  502  0.00000000000E+00  0.00000000000E+00  0.61817986100E+02  0.61817986100E+02  0.00000000000E+00 0. -1.
         21   -1    0    0  501  503 -0.00000000000E+00 -0.00000000000E+00 -0.99251051171E+03  0.99251051171E+03  0.00000000000E+00 0.  1.
          6    2    1    2  501    0  0.94321865006E+02  0.13196269277E+03 -0.32119338805E+03  0.39962170595E+03  0.17384346072E+03 0.  0.
         24    2    3    3    0    0  0.97763859488E+02  0.73188228590E+02 -0.30753453595E+03  0.33900042910E+03  0.73685216326E+02 0.  0.
         -6    2    1    2    0  502 -0.94321865006E+02 -0.13196269277E+03 -0.60949913756E+03  0.65470679186E+03  0.17561611010E+03 0.  0.
        -24    2    5    5    0    0 -0.47642109379E+02  0.63502161187E+01 -0.26049704072E+03  0.27637623012E+03  0.78835376084E+02 0.  0.
          5    1    3    3  501    0 -0.34419944812E+01  0.58774464177E+02 -0.13658852105E+02  0.60621276843E+02  0.47000000000E+01 0. -1.
        -11    1    4    4    0    0  0.82925685474E+02  0.87736165031E+02 -0.27583742333E+03  0.30109896725E+03  0.00000000000E+00 0.  1.
         12    1    4    4    0    0  0.14838174013E+02 -0.14547936441E+02 -0.31697112616E+02  0.37901461857E+02  0.00000000000E+00 0. -1.
         -5    1    5    5    0  502 -0.46679755628E+02 -0.13831290889E+03 -0.34900209684E+03  0.37833056174E+03  0.47000000000E+01 0.  1.
         11    1    6    6    0    0 -0.36464940033E+02  0.37539099583E+02 -0.10417436826E+03  0.11658119424E+03  0.00000000000E+00 0. -1.
        -12    1    6    6    0    0 -0.11177169346E+02 -0.31188883464E+02 -0.15632267246E+03  0.15979503588E+03  0.00000000000E+00 0.  1.
<mgrwt>
<rscale>  2 0.23873894E+03</rscale>
<asrwt>0</asrwt>
<pdfrwt beam="1">  1       21 0.95104596E-02 0.23906439E+03</pdfrwt>
<pdfrwt beam="2">  1       21 0.15269392E+00 0.23906439E+03</pdfrwt>
<totfact> 0.24579432E+04</totfact>
</mgrwt>
</event>
<event>
12    1  0.1029207E-001  0.2080776E+03  0.7546771E-02  0.1143213E+00
         21   -1    0    0  503  502  0.00000000000E+00  0.00000000000E+00  0.43295760770E+03  0.43295760770E+03  0.00000000000E+00 0.  1.
         21   -1    0    0  501  503 -0.00000000000E+00 -0.00000000000E+00 -0.27844345347E+03  0.27844345347E+03  0.00000000000E+00 0.  1.
          6    2    1    2  501    0  0.43618081582E+02  0.11243745440E+03 -0.20767644577E+03  0.29398263244E+03  0.16956286108E+03 0.  0.
         24    2    3    3    0    0 -0.24071059359E+02  0.68368595370E+02 -0.18034148198E+03  0.20858254823E+03  0.75696423774E+02 0.  0.
         -6    2    1    2    0  502 -0.43618081582E+02 -0.11243745440E+03  0.36219060001E+03  0.41741842873E+03  0.16885317798E+03 0.  0.
        -24    2    5    5    0    0 -0.65429161718E+02 -0.11090033139E+03  0.36464804963E+03  0.39491920602E+03  0.80081960980E+02 0.  0.
          5    1    3    3  501    0  0.67689140941E+02  0.44068859034E+02 -0.27334963785E+02  0.85400084210E+02  0.47000000000E+01 0. -1.
        -11    1    4    4    0    0 -0.11975010323E+00  0.78365764122E+02 -0.14371783270E+03  0.16369490756E+03  0.00000000000E+00 0.  1.
         12    1    4    4    0    0 -0.23951309255E+02 -0.99971687514E+01 -0.36623649289E+02  0.44887640674E+02  0.00000000000E+00 0. -1.
         -5    1    5    5    0  502  0.21811080135E+02 -0.15371230167E+01 -0.24574496291E+01  0.22499222709E+02  0.47000000000E+01 0.  1.
         11    1    6    6    0    0  0.41647664176E+01  0.84638011932E+00 -0.24669399258E+01  0.49140035833E+01  0.00000000000E+00 0. -1.
        -12    1    6    6    0    0 -0.69593928135E+02 -0.11174671151E+03  0.36711498956E+03  0.39000520243E+03  0.00000000000E+00 0.  1.
<mgrwt>
<rscale>  2 0.20793296E+03</rscale>
<asrwt>0</asrwt>
<pdfrwt beam="1">  1       21 0.66608863E-01 0.20807759E+03</pdfrwt>
<pdfrwt beam="2">  1       21 0.42837454E-01 0.20807759E+03</pdfrwt>
<totfact> 0.10717654E+04</totfact>
</mgrwt>
</event>
<event>
12    1  0.1029207E-001  0.2331683E+03  0.7546771E-02  0.1124458E+00
         21   -1    0    0  503  502  0.00000000000E+00  0.00000000000E+00  0.82107072452E+02  0.82107072452E+02  0.00000000000E+00 0.  1.
         21   -1    0    0  501  503 -0.00000000000E+00 -0.00000000000E+00 -0.76846747695E+03  0.76846747695E+03  0.00000000000E+00 0.  1.
          6    2    1    2  501    0  0.87049802316E+02  0.12793251319E+03 -0.50182206056E+03  0.55334692207E+03  0.17442201606E+03 0.  0.
         24    2    3    3    0    0 -0.19363127610E+02  0.62809210302E+02 -0.28027402800E+03  0.29904321198E+03  0.80952975554E+02 0.  0.
         -6    2    1    2    0  502 -0.87049802316E+02 -0.12793251319E+03 -0.18453834393E+03  0.29722762733E+03  0.17419950072E+03 0.  0.
        -24    2    5    5    0    0 -0.74401653456E+02 -0.11064851719E+03 -0.21139167807E+03  0.26255914392E+03  0.80449748952E+02 0.  0.
          5    1    3    3  501    0  0.10641292993E+03  0.65123302884E+02 -0.22154803256E+03  0.25430371009E+03  0.47000000000E+01 0. -1.
        -11    1    4    4    0    0  0.94836903270E+01  0.39102878452E+02 -0.24291344679E+03  0.24622330945E+03  0.00000000000E+00 0.  1.
         12    1    4    4    0    0 -0.28846817937E+02  0.23706331850E+02 -0.37360581206E+02  0.52819902527E+02  0.00000000000E+00 0. -1.
         -5    1    5    5    0  502 -0.12648148860E+02 -0.17283995999E+02  0.26853334139E+02  0.34668483406E+02  0.47000000000E+01 0.  1.
         13    1    6    6    0    0 -0.73744047347E+01  0.34292350317E+01  0.45402352451E+01  0.93142489861E+01  0.00000000000E+00 0. -1.
        -14    1    6    6    0    0 -0.67027248721E+02 -0.11407775222E+03 -0.21593191332E+03  0.25324489494E+03  0.00000000000E+00 0.  1.
<mgrwt>
<rscale>  2 0.23312664E+03</rscale>
<asrwt>0</asrwt>
<pdfrwt beam="1">  1       21 0.12631857E-01 0.23316826E+03</pdfrwt>
<pdfrwt beam="2">  1       21 0.11822577E+00 0.23316826E+03</pdfrwt>
<totfact> 0.28668701E+04</totfact>
</mgrwt>
</event>
<event>
12    1  0.1029207E-001  0.2015130E+03  0.7546771E-02  0.1149156E+00
         21   -1    0    0  503  502  0.00000000000E+00  0.00000000000E+00  0.93989847908E+02  0.93989847908E+02  0.00000000000E+00 0. -1.
         21   -1    0    0  501  503 -0.00000000000E+00 -0.00000000000E+00 -0.58027950278E+03  0.58027950278E+03  0.00000000000E+00 0. -1.
          6    2    1    2  501    0 -0.89773108118E+02 -0.39019243812E+02 -0.70248073163E+02  0.21340641359E+03  0.17614140130E+03 0.  0.
         24    2    3    3    0    0  0.15636130296E+02 -0.50610353001E+02 -0.12013601343E+02  0.92332861308E+02  0.74666821672E+02 0.  0.
         -6    2    1    2    0  502  0.89773108118E+02  0.39019243812E+02 -0.41604158171E+03  0.46086293710E+03  0.17240167269E+03 0.  0.
        -24    2    5    5    0    0  0.66367792167E+02  0.54515765167E+00 -0.11251074689E+03  0.15397350781E+03  0.81511912670E+02 0.  0.
          5    1    3    3  501    0 -0.10540923841E+03  0.11591109189E+02 -0.58234471820E+02  0.12107355229E+03  0.47000000000E+01 0. -1.
        -11    1    4    4    0    0  0.16415229404E+02 -0.56287269926E+02 -0.35241787716E+02  0.68408333656E+02  0.00000000000E+00 0.  1.
         12    1    4    4    0    0 -0.77909910775E+00  0.56769169254E+01  0.23228186373E+02  0.23924527652E+02  0.00000000000E+00 0. -1.
         -5    1    5    5    0  502  0.23405315951E+02  0.38474086160E+02 -0.30353083482E+03  0.30688942928E+03  0.47000000000E+01 0.  1.
         13    1    6    6    0    0  0.59364389005E+02 -0.23043350153E+02 -0.11260871079E+03  0.12936710716E+03  0.00000000000E+00 0. -1.
        -14    1    6    6    0    0  0.70034031621E+01  0.23588507805E+02  0.97963895564E-01  0.24606400656E+02  0.00000000000E+00 0.  1.
<mgrwt>
<rscale>  2 0.20069291E+03</rscale>
<asrwt>0</asrwt>
<pdfrwt beam="1">  1       21 0.14459977E-01 0.20151304E+03</pdfrwt>
<pdfrwt beam="2">  1       21 0.89273770E-01 0.20151304E+03</pdfrwt>
<totfact> 0.44680889E+04</totfact>
</mgrwt>
</event>
<event>
12    1  0.1029207E-001  0.2230702E+03  0.7546771E-02  0.1131684E+00
         21   -1    0    0  501  502  0.00000000000E+00  0.00000000000E+00  0.30048242056E+03  0.30048242056E+03  0.00000000000E+00 0.  1.
         21   -1    0    0  502  503 -0.00000000000E+00 -0.00000000000E+00 -0.23155526616E+03  0.23155526616E+03  0.00000000000E+00 0.  1.
         -6    2    1    2    0  503 -0.55415423056E+02 -0.12954970029E+03 -0.10783322585E+03  0.24742474282E+03  0.17244420780E+03 0.  0.
        -24    2    3    3    0    0 -0.34202228108E+02 -0.35067041828E+02 -0.11699182539E+03  0.15004434266E+03  0.80166874237E+02 0.  0.
          6    2    1    2  501    0  0.55415423056E+02  0.12954970029E+03  0.17676038025E+03  0.28461294390E+03  0.17293438597E+03 0.  0.
         24    2    5    5    0    0 -0.95642105828E+01  0.10065325482E+03  0.16865980696E+03  0.21288382404E+03  0.81552683742E+02 0.  0.
          5    1    5    5  501    0  0.64979633639E+02  0.28896445471E+02  0.81005732990E+01  0.71729119864E+02  0.47000000000E+01 0. -1.
        -13    1    6    6    0    0 -0.24025735005E+01  0.77594810808E+02  0.51264024598E+02  0.93030786527E+02  0.00000000000E+00 0.  1.
         14    1    6    6    0    0 -0.71616370823E+01  0.23058444015E+02  0.11739578236E+03  0.11985303751E+03  0.00000000000E+00 0. -1.
         -5    1    3    3    0  503 -0.21213194948E+02 -0.94482658466E+02  0.91585995373E+01  0.97380400165E+02  0.47000000000E+01 0.  1.
         11    1    4    4    0    0  0.13666719337E+02  0.10872983281E+02 -0.23960154689E+01  0.17627872049E+02  0.00000000000E+00 0. -1.
        -12    1    4    4    0    0 -0.47868947445E+02 -0.45940025109E+02 -0.11459580992E+03  0.13241647061E+03  0.00000000000E+00 0.  1.
<mgrwt>
<rscale>  2 0.22297515E+03</rscale>
<asrwt>0</asrwt>
<pdfrwt beam="1">  1       21 0.46228065E-01 0.22307016E+03</pdfrwt>
<pdfrwt beam="2">  1       21 0.35623887E-01 0.22307016E+03</pdfrwt>
<totfact> 0.33531669E+04</totfact>
</mgrwt>
</event>
<event>
12    1  0.1029207E-001  0.1731413E+03  0.7546771E-02  0.1174847E+00
         21   -1    0    0  503  502  0.00000000000E+00  0.00000000000E+00  0.10002224413E+03  0.10002224413E+03  0.00000000000E+00 0.  1.
         21   -1    0    0  501  503 -0.00000000000E+00 -0.00000000000E+00 -0.30619239284E+03  0.30619239284E+03  0.00000000000E+00 0.  1.
          6    2    1    2  501    0 -0.15333833520E+02  0.16589911854E+02 -0.13580119323E+03  0.21931976393E+03  0.17073032285E+03 0.  0.
         24    2    3    3    0    0 -0.58022800246E+02  0.13312608710E+02 -0.14401290840E+03  0.17547217720E+03  0.80665335091E+02 0.  0.
         -6    2    1    2    0  502  0.15333833520E+02 -0.16589911854E+02 -0.70368955477E+02  0.18689487304E+03  0.17166115475E+03 0.  0.
        -24    2    5    5    0    0  0.56292911490E+02  0.12397018984E+02  0.23462900709E+01  0.98421797125E+02  0.79741878009E+02 0.  0.
          5    1    3    3  501    0  0.42688966726E+02  0.32773031442E+01  0.82117151690E+01  0.43847586730E+02  0.47000000000E+01 0. -1.
        -11    1    4    4    0    0 -0.22466916902E+02  0.62808698451E+00 -0.13473671860E+03  0.13659846334E+03  0.00000000000E+00 0.  1.
         12    1    4    4    0    0 -0.35555883344E+02  0.12684521725E+02 -0.92761898017E+01  0.38873713856E+02  0.00000000000E+00 0. -1.
         -5    1    5    5    0  502 -0.40959077971E+02 -0.28986930838E+02 -0.72715245548E+02  0.88473075920E+02  0.47000000000E+01 0.  1.
         11    1    6    6    0    0 -0.16203026476E+02  0.54862164826E+01  0.17022594111E+02  0.24133075820E+02  0.00000000000E+00 0. -1.
        -12    1    6    6    0    0  0.72495937966E+02  0.69108025016E+01 -0.14676304040E+02  0.74288721305E+02  0.00000000000E+00 0.  1.
<mgrwt>
<rscale>  2 0.17291011E+03</rscale>
<asrwt>0</asrwt>
<pdfrwt beam="1">  1       21 0.15388037E-01 0.17314128E+03</pdfrwt>
<pdfrwt beam="2">  1       21 0.47106522E-01 0.17314128E+03</pdfrwt>
<totfact> 0.16247934E+05</totfact>
</mgrwt>
</event>
<event>
12    1  0.1029207E-001  0.1823720E+03  0.7546771E-02  0.1165863E+00
         21   -1    0    0  501  502  0.00000000000E+00  0.00000000000E+00  0.49078610945E+03  0.49078610945E+03  0.00000000000E+00 0.  1.
         21   -1    0    0  502  503 -0.00000000000E+00 -0.00000000000E+00 -0.70715946289E+02  0.70715946289E+02  0.00000000000E+00 0.  1.
         -6    2    1    2    0  503 -0.53646544672E+02 -0.10248168906E+02  0.27145420839E+03  0.32624421801E+03  0.17252514544E+03 0.  0.
        -24    2    3    3    0    0  0.29074746548E+02  0.81549077013E+01  0.19109352875E+03  0.20936216600E+03  0.80024598809E+02 0.  0.
          6    2    1    2  501    0  0.53646544672E+02  0.10248168906E+02  0.14861595477E+03  0.23525783773E+03  0.17400164218E+03 0.  0.
         24    2    5    5    0    0  0.86529084187E+02 -0.14899650555E+02  0.15240083191E+03  0.19342376641E+03  0.80482655578E+02 0.  0.
          5    1    5    5  501    0 -0.32882539515E+02  0.25147819460E+02 -0.37848771373E+01  0.41834071324E+02  0.47000000000E+01 0. -1.
        -13    1    6    6    0    0  0.23888931309E+02  0.30352406963E+02  0.31055895359E+02  0.49562266736E+02  0.00000000000E+00 0.  1.
         14    1    6    6    0    0  0.62640152878E+02 -0.45252057517E+02  0.12134493655E+03  0.14386149967E+03  0.00000000000E+00 0. -1.
         -5    1    3    3    0  503 -0.82721291219E+02 -0.18403076607E+02  0.80360679640E+02  0.11688205201E+03  0.47000000000E+01 0.  1.
         11    1    4    4    0    0 -0.32577651156E+01  0.39288973437E+02  0.71930559876E+02  0.82025861235E+02  0.00000000000E+00 0. -1.
        -12    1    4    4    0    0  0.32332511663E+02 -0.31134065735E+02  0.11916296888E+03  0.12733630477E+03  0.00000000000E+00 0.  1.
<mgrwt>
<rscale>  2 0.18201893E+03</rscale>
<asrwt>0</asrwt>
<pdfrwt beam="1">  1       21 0.75505553E-01 0.18237200E+03</pdfrwt>
<pdfrwt beam="2">  1       21 0.10879377E-01 0.18237200E+03</pdfrwt>
<totfact> 0.10988999E+05</totfact>
</mgrwt>
</event>
<event>
12    1  0.1029207E-001  0.1944538E+03  0.7546771E-02  0.1154592E+00
         21   -1    0    0  503  502  0.00000000000E+00  0.00000000000E+00  0.98229399908E+02  0.98229399908E+02  0.00000000000E+00 0. -1.
         21   -1    0    0  501  503 -0.00000000000E+00 -0.00000000000E+00 -0.10736480367E+04  0.10736480367E+04  0.00000000000E+00 0. -1.
          6    2    1    2  501    0 -0.77120038557E+02  0.47534776483E+02 -0.95744345205E+03  0.97699039212E+03  0.17206163753E+03 0.  0.
         24    2    3    3    0    0 -0.51360534846E+02  0.94325439201E+02 -0.78795658018E+03  0.79922423144E+03  0.79678145374E+02 0.  0.
         -6    2    1    2    0  502  0.77120038557E+02 -0.47534776483E+02 -0.17975184794E+02  0.19488704453E+03  0.17161234669E+03 0.  0.
        -24    2    5    5    0    0  0.32120990271E+02  0.19380594946E+02  0.40423310490E+02  0.95212295818E+02  0.77614249771E+02 0.  0.
          5    1    3    3  501    0 -0.25759503711E+02 -0.46790662718E+02 -0.16948687187E+03  0.17776616069E+03  0.47000000000E+01 0. -1.
        -11    1    4    4    0    0  0.80306315233E+01  0.11575104162E+02 -0.19556219617E+02  0.24102277999E+02  0.00000000000E+00 0.  1.
         12    1    4    4    0    0 -0.59391166370E+02  0.82750335039E+02 -0.76840036056E+03  0.77512195344E+03  0.00000000000E+00 0. -1.
         -5    1    5    5    0  502  0.44999048286E+02 -0.66915371429E+02 -0.58398495284E+02  0.99674748715E+02  0.47000000000E+01 0.  1.
         13    1    6    6    0    0  0.23771199943E+02 -0.28540807331E+02  0.12886788967E+02  0.39315607076E+02  0.00000000000E+00 0. -1.
        -14    1    6    6    0    0  0.83497903281E+01  0.47921402277E+02  0.27536521523E+02  0.55896688742E+02  0.00000000000E+00 0.  1.
<mgrwt>
<rscale>  2 0.19435432E+03</rscale>
<asrwt>0</asrwt>
<pdfrwt beam="1">  1       21 0.15112214E-01 0.19445375E+03</pdfrwt>
<pdfrwt beam="2">  1       21 0.16517663E+00 0.19445375E+03</pdfrwt>
<totfact> 0.89223061E+03</totfact>
</mgrwt>
</event>
<event>
12    1  0.1029207E-001  0.1801106E+03  0.7546771E-02  0.1167892E+00
         21   -1    0    0  501  502  0.00000000000E+00  0.00000000000E+00  0.11460962214E+03  0.11460962214E+03  0.00000000000E+00 0. -1.
         21   -1    0    0  502  503 -0.00000000000E+00 -0.00000000000E+00 -0.49753931323E+03  0.49753931323E+03  0.00000000000E+00 0. -1.
         -6    2    1    2    0  503 -0.16162985896E+02 -0.46937838746E+02 -0.39277961074E+03  0.43176917096E+03  0.17229158877E+03 0.  0.
        -24    2    3    3    0    0 -0.27208338147E+02  0.35621297483E+02 -0.24990170110E+03  0.26631767401E+03  0.80405676271E+02 0.  0.
          6    2    1    2  501    0  0.16162985896E+02  0.46937838746E+02  0.98499196534E+01  0.18037976440E+03  0.17313415512E+03 0.  0.
         24    2    5    5    0    0 -0.55080294474E+02  0.45973481316E+02 -0.10349790171E+00  0.10828471947E+03  0.81105917997E+02 0.  0.
          5    1    5    5  501    0  0.71243280370E+02  0.96435742978E+00  0.99534175551E+01  0.72095044935E+02  0.47000000000E+01 0. -1.
        -11    1    6    6    0    0 -0.41237924096E+01 -0.65609628669E+01 -0.28685623929E+02  0.29713917913E+02  0.00000000000E+00 0.  1.
         12    1    6    6    0    0 -0.50956502064E+02  0.52534444183E+02  0.28582126027E+02  0.78570801552E+02  0.00000000000E+00 0. -1.
         -5    1    3    3    0  503  0.11045352251E+02 -0.82559136229E+02 -0.14287790964E+03  0.16545149696E+03  0.47000000000E+01 0.  1.
         11    1    4    4    0    0 -0.20351636410E+02  0.15369714822E+02 -0.24228057822E+03  0.24361916144E+03  0.00000000000E+00 0. -1.
        -12    1    4    4    0    0 -0.68567017374E+01  0.20251582661E+02 -0.76211228871E+01  0.22698512573E+02  0.00000000000E+00 0.  1.
<mgrwt>
<rscale>  2 0.17990784E+03</rscale>
<asrwt>0</asrwt>
<pdfrwt beam="1">  1       21 0.17632249E-01 0.18011063E+03</pdfrwt>
<pdfrwt beam="2">  1       21 0.76544510E-01 0.18011063E+03</pdfrwt>
<totfact> 0.44583103E+04</totfact>
</mgrwt>
</event>
<event>
12    1  0.1029207E-001  0.2027009E+03  0.7546771E-02  0.1147893E+00
         21   -1    0    0  501  502  0.00000000000E+00  0.00000000000E+00  0.76328160249E+03  0.76328160249E+03  0.00000000000E+00 0. -1.
         21   -1    0    0  502  503 -0.00000000000E+00 -0.00000000000E+00 -0.66682091930E+02  0.66682091930E+02  0.00000000000E+00 0. -1.
         -6    2    1    2    0  503 -0.10392887381E+03 -0.12657170958E+02  0.16380300842E+03  0.26061291650E+03  0.17356915592E+03 0.  0.
        -24    2    3    3    0    0 -0.74568888196E+02 -0.65025279529E+02  0.15313343379E+03  0.19945445532E+03  0.80891440448E+02 0.  0.
          6    2    1    2  501    0  0.10392887381E+03  0.12657170958E+02  0.53279650213E+03  0.56935077792E+03  0.17125063750E+03 0.  0.
         24    2    5    5    0    0  0.57900790098E+02  0.73506858326E+02  0.34624842382E+03  0.36774833631E+03  0.81210271159E+02 0.  0.
          5    1    5    5  501    0  0.46028083713E+02 -0.60849687368E+02  0.18654807831E+03  0.20160244161E+03  0.47000000000E+01 0. -1.
        -11    1    6    6    0    0  0.35695713948E+02  0.82062776049E+01  0.41763628356E+02  0.55549326187E+02  0.00000000000E+00 0.  1.
         12    1    6    6    0    0  0.22205076150E+02  0.65300580721E+02  0.30448479547E+03  0.31219901012E+03  0.00000000000E+00 0. -1.
         -5    1    3    3    0  503 -0.29359985615E+02  0.52368108570E+02  0.10669574629E+02  0.61158461175E+02  0.47000000000E+01 0.  1.
         11    1    4    4    0    0 -0.75671729912E+01 -0.23868080354E+02 -0.24202274726E+01  0.25155613049E+02  0.00000000000E+00 0. -1.
        -12    1    4    4    0    0 -0.67001715204E+02 -0.41157199174E+02  0.15555366127E+03  0.17429884227E+03  0.00000000000E+00 0.  1.
<mgrwt>
<rscale>  2 0.20220367E+03</rscale>
<asrwt>0</asrwt>
<pdfrwt beam="1">  1       21 0.11742793E+00 0.20270093E+03</pdfrwt>
<pdfrwt beam="2">  1       21 0.10258784E-01 0.20270093E+03</pdfrwt>
<totfact> 0.42971855E+04</totfact>
</mgrwt>
</event>
<event>
12    1  0.1029207E-001  0.1751972E+03  0.7546771E-02  0.1172760E+00
         21   -1    0    0  503  502  0.00000000000E+00  0.00000000000E+00  0.33784893842E+03  0.33784893842E+03  0.00000000000E+00 0.  1.
         21   -1    0    0  501  503 -0.00000000000E+00 -0.00000000000E+00 -0.20183039370E+03  0.20183039370E+03  0.00000000000E+00 0.  1.
          6    2    1    2  501    0 -0.54027281408E+00 -0.18470072166E+02 -0.13242481459E+03  0.21961422363E+03  0.17422009138E+03 0.  0.
         24    2    3    3    0    0 -0.49194751944E+02  0.20121746716E+02 -0.12122880094E+03  0.15633683789E+03  0.83185193364E+02 0.  0.
         -6    2    1    2    0  502  0.54027281408E+00  0.18470072166E+02  0.26844335931E+03  0.32006510848E+03  0.17331589959E+03 0.  0.
        -24    2    5    5    0    0 -0.30105518531E+02  0.58027432640E+02  0.24304508466E+03  0.26375248423E+03  0.78872901402E+02 0.  0.
          5    1    3    3  501    0  0.48654479130E+02 -0.38591818882E+02 -0.11196013657E+02  0.63277385738E+02  0.47000000000E+01 0. -1.
        -13    1    4    4    0    0 -0.42547744559E+02  0.42993662970E+02 -0.42088264899E+02  0.73689807062E+02  0.00000000000E+00 0.  1.
         14    1    4    4    0    0 -0.66470073848E+01 -0.22871916254E+02 -0.79140536037E+02  0.82647030827E+02  0.00000000000E+00 0. -1.
         -5    1    5    5    0  502  0.30645791345E+02 -0.39557360474E+02  0.25398274649E+02  0.56312624250E+02  0.47000000000E+01 0.  1.
         11    1    6    6    0    0 -0.39070354609E+02  0.73630500978E+02  0.18343312671E+03  0.20148363521E+03  0.00000000000E+00 0. -1.
        -12    1    6    6    0    0  0.89648360780E+01 -0.15603068338E+02  0.59611957958E+02  0.62268849026E+02  0.00000000000E+00 0.  1.
<mgrwt>
<rscale>  2 0.17497203E+03</rscale>
<asrwt>0</asrwt>
<pdfrwt beam="1">  1       21 0.51976760E-01 0.17519725E+03</pdfrwt>
<pdfrwt beam="2">  1       21 0.31050830E-01 0.17519725E+03</pdfrwt>
<totfact> 0.35329416E+04</totfact>
</mgrwt>
</event>
<event>
12    1  0.1029207E-001  0.2356828E+03  0.7546771E-02  0.1122918E+00
         21   -1    0    0  501  502  0.00000000000E+00  0.00000000000E+00  0.19656639037E+04  0.19656639037E+04  0.00000000000E+00 0.  1.
         21   -1    0    0  502  503 -0.00000000000E+00 -0.00000000000E+00 -0.28563753060E+02  0.28563753060E+02  0.00000000000E+00 0. -1.
         -6    2    1    2    0  503  0.15185618451E+02 -0.15809187988E+03  0.84001820039E+03  0.87211572410E+03  0.17242857578E+03 0.  0.
        -24    2    3    3    0    0 -0.36080980816E+02 -0.11358202832E+03  0.72010451833E+03  0.73423616712E+03  0.79683859481E+02 0.  0.
          6    2    1    2  501    0 -0.15185618451E+02  0.15809187988E+03  0.10970819502E+04  0.11221119326E+04  0.17413425385E+03 0.  0.
         24    2    5    5    0    0 -0.75785103485E+02  0.11289516550E+03  0.72928663838E+03  0.74659825513E+03  0.84031264085E+02 0.  0.
          5    1    5    5  501    0  0.60599485034E+02  0.45196714379E+02  0.36779531186E+03  0.37551367752E+03  0.47000000000E+01 0. -1.
        -13    1    6    6    0    0 -0.96361705038E+01 -0.85698906491E+01  0.16906225179E+03  0.16955336560E+03  0.00000000000E+00 0.  1.
         14    1    6    6    0    0 -0.66148932981E+02  0.12146505615E+03  0.56022438659E+03  0.57704488953E+03  0.00000000000E+00 0. -1.
         -5    1    3    3    0  503  0.51266599267E+02 -0.44509851560E+02  0.11991368206E+03  0.13787955698E+03  0.47000000000E+01 0.  1.
         13    1    4    4    0    0 -0.33755324803E+02 -0.92582496511E+01  0.26620710793E+03  0.26849834534E+03  0.00000000000E+00 0. -1.
        -14    1    4    4    0    0 -0.23256560131E+01 -0.10432377866E+03  0.45389741040E+03  0.46573782178E+03  0.00000000000E+00 0.  1.
<mgrwt>
<rscale>  2 0.23536782E+03</rscale>
<asrwt>0</asrwt>
<pdfrwt beam="1">  1       21 0.30240973E+00 0.23568280E+03</pdfrwt>
<pdfrwt beam="2">  1       21 0.43944251E-02 0.23568280E+03</pdfrwt>
<totfact> 0.10600873E+04</totfact>
</mgrwt>
</event>
<event>
12    1  0.1029207E-001  0.1765134E+03  0.7546771E-02  0.1171342E+00
         21   -1    0    0  503  502  0.00000000000E+00  0.00000000000E+00  0.84131472977E+03  0.84131472977E+03  0.00000000000E+00 0.  1.
         21   -1    0    0  501  503 -0.00000000000E+00 -0.00000000000E+00 -0.48499694677E+02  0.48499694677E+02  0.00000000000E+00 0.  1.
          6    2    1    2  501    0  0.21792325292E+01 -0.40092716005E+02  0.61327918631E+03  0.63804053739E+03  0.17138317322E+03 0.  0.
         24    2    3    3    0    0  0.94691221917E+01 -0.63934441248E+02  0.21980274831E+03  0.24374703299E+03  0.83199103801E+02 0.  0.
         -6    2    1    2    0  502 -0.21792325292E+01  0.40092716005E+02  0.17953584878E+03  0.25177388706E+03  0.17188599208E+03 0.  0.
        -24    2    5    5    0    0  0.63802297275E+02  0.94411338208E+01  0.86189966776E+02  0.13333138854E+03  0.78668167977E+02 0.  0.
          5    1    3    3  501    0 -0.72898896624E+01  0.23841725243E+02  0.39347643800E+03  0.39429350440E+03  0.47000000000E+01 0. -1.
        -13    1    4    4    0    0  0.18921306785E+02 -0.62386664568E+01  0.42042559283E+01  0.20362037656E+02  0.00000000000E+00 0.  1.
         14    1    4    4    0    0 -0.94521845933E+01 -0.57695774791E+02  0.21559849238E+03  0.22338499533E+03  0.00000000000E+00 0. -1.
         -5    1    5    5    0  502 -0.65981529804E+02  0.30651582184E+02  0.93345882008E+02  0.11844249851E+03  0.47000000000E+01 0.  1.
         11    1    6    6    0    0  0.33918419819E+02 -0.18861748316E+02  0.11186694407E+01  0.38826230487E+02  0.00000000000E+00 0. -1.
        -12    1    6    6    0    0  0.29883877456E+02  0.28302882137E+02  0.85071297336E+02  0.94505158057E+02  0.00000000000E+00 0.  1.
<mgrwt>
<rscale>  2 0.17639084E+03</rscale>
<asrwt>0</asrwt>
<pdfrwt beam="1">  1       21 0.12943302E+00 0.17651337E+03</pdfrwt>
<pdfrwt beam="2">  1       21 0.74614921E-02 0.17651337E+03</pdfrwt>
<totfact> 0.59687555E+04</totfact>
</mgrwt>
</event>
<event>
12    1  0.1029207E-001  0.2197318E+03  0.7546771E-02  0.1134246E+00
         21   -1    0    0  503  502  0.00000000000E+00  0.00000000000E+00  0.10872328726E+03  0.10872328726E+03  0.00000000000E+00 0.  1.
         21   -1    0    0  501  503 -0.00000000000E+00 -0.00000000000E+00 -0.44420645153E+03  0.44420645153E+03  0.00000000000E+00 0. -1.
          6    2    1    2  501    0 -0.10738633562E+03  0.82097314516E+02 -0.15008894343E+03  0.26609915080E+03  0.17323473377E+03 0.  0.
         24    2    3    3    0    0 -0.11684503800E+03  0.37000387889E+02 -0.48946342934E+02  0.15485565445E+03  0.81010725341E+02 0.  0.
         -6    2    1    2    0  502  0.10738633562E+03 -0.82097314516E+02 -0.18539422084E+03  0.28683058799E+03  0.17213069151E+03 0.  0.
        -24    2    5    5    0    0  0.75726995957E+02  0.17678339577E+02 -0.75041695114E+02  0.13465547547E+03  0.80335169520E+02 0.  0.
          5    1    3    3  501    0  0.94587023837E+01  0.45096926627E+02 -0.10114260050E+03  0.11124349634E+03  0.47000000000E+01 0. -1.
        -11    1    4    4    0    0 -0.11156276146E+03  0.45131113642E+02 -0.64490006180E+02  0.13653581238E+03  0.00000000000E+00 0.  1.
         12    1    4    4    0    0 -0.52822765396E+01 -0.81307257531E+01  0.15543663246E+02  0.18319842080E+02  0.00000000000E+00 0. -1.
         -5    1    5    5    0  502  0.31659339661E+02 -0.99775654093E+02 -0.11035252572E+03  0.15217511252E+03  0.47000000000E+01 0.  1.
         13    1    6    6    0    0  0.12829547133E+02 -0.21301208641E+02 -0.51189480255E+02  0.56909591968E+02  0.00000000000E+00 0. -1.
        -14    1    6    6    0    0  0.62897448825E+02  0.38979548218E+02 -0.23852214859E+02  0.77745883502E+02  0.00000000000E+00 0.  1.
<mgrwt>
<rscale>  2 0.21951414E+03</rscale>
<asrwt>0</asrwt>
<pdfrwt beam="1">  1       21 0.16726660E-01 0.21973181E+03</pdfrwt>
<pdfrwt beam="2">  1       21 0.68339454E-01 0.21973181E+03</pdfrwt>
<totfact> 0.62014235E+04</totfact>
</mgrwt>
</event>
<event>
12    1  0.1029207E-001  0.2221161E+03  0.7546771E-02  0.1132593E+00
         21   -1    0    0  503  502  0.00000000000E+00  0.00000000000E+00  0.11950911385E+03  0.11950911385E+03  0.00000000000E+00 0.  1.
         21   -1    0    0  501  503 -0.00000000000E+00 -0.00000000000E+00 -0.53302503121E+03  0.53302503121E+03  0.00000000000E+00 0.  1.
          6    2    1    2  501    0 -0.47146910432E+02 -0.12911870831E+03 -0.36294696410E+03  0.42473425425E+03  0.17255206747E+03 0.  0.
         24    2    3    3    0    0 -0.76115799934E+02 -0.29347090210E+02 -0.16067572702E+03  0.19729345825E+03  0.80331517547E+02 0.  0.
         -6    2    1    2    0  502  0.47146910432E+02  0.12911870831E+03 -0.50568953271E+02  0.22779989081E+03  0.17447377803E+03 0.  0.
        -24    2    5    5    0    0 -0.31402582978E+02  0.83529189644E+02 -0.56984197724E+02  0.13663151642E+03  0.86358119188E+02 0.  0.
          5    1    3    3  501    0  0.28968889502E+02 -0.99771618096E+02 -0.20227123707E+03  0.22744079600E+03  0.47000000000E+01 0. -1.
        -13    1    4    4    0    0 -0.14791434438E+02 -0.42713325023E+02 -0.10115292522E+03  0.11079318096E+03  0.00000000000E+00 0.  1.
         14    1    4    4    0    0 -0.61324365496E+02  0.13366234813E+02 -0.59522801801E+02  0.86500277288E+02  0.00000000000E+00 0. -1.
         -5    1    5    5    0  502  0.78549493410E+02  0.45589518662E+02  0.64152444530E+01  0.91168374386E+02  0.47000000000E+01 0.  1.
         11    1    6    6    0    0  0.65329505073E+01 -0.15529313096E+02 -0.14978214546E+02  0.22542979363E+02  0.00000000000E+00 0. -1.
        -12    1    6    6    0    0 -0.37935533485E+02  0.99058502741E+02 -0.42005983178E+02  0.11408853706E+03  0.00000000000E+00 0.  1.
<mgrwt>
<rscale>  2 0.22173858E+03</rscale>
<asrwt>0</asrwt>
<pdfrwt beam="1">  1       21 0.18386017E-01 0.22211612E+03</pdfrwt>
<pdfrwt beam="2">  1       21 0.82003852E-01 0.22211612E+03</pdfrwt>
<totfact> 0.34563539E+04</totfact>
</mgrwt>
</event>
<event>
12    1  0.1029207E-001  0.1822435E+03  0.7546771E-02  0.1166285E+00
         21   -1    0    0  503  502  0.00000000000E+00  0.00000000000E+00  0.74920611671E+03  0.74920611671E+03  0.00000000000E+00 0. -1.
         21   -1    0    0  501  503 -0.00000000000E+00 -0.00000000000E+00 -0.44657432316E+02  0.44657432316E+02  0.00000000000E+00 0. -1.
          6    2    1    2  501    0  0.54068215244E+02 -0.14885976404E+02  0.29126402317E+03  0.34218122786E+03  0.17061153921E+03 0.  0.
         24    2    3    3    0    0  0.72894088770E+02 -0.13215556893E+01  0.91948701288E+02  0.14146477472E+03  0.79009012969E+02 0.  0.
         -6    2    1    2    0  502 -0.54068215244E+02  0.14885976404E+02  0.41328466123E+03  0.45168232117E+03  0.17340053016E+03 0.  0.
        -24    2    5    5    0    0 -0.27856152613E+02 -0.61138685563E+02  0.22576373886E+03  0.24759163599E+03  0.76278754024E+02 0.  0.
          5    1    3    3  501    0 -0.18825873525E+02 -0.13564420715E+02  0.19931532188E+03  0.20071645314E+03  0.47000000000E+01 0. -1.
        -13    1    4    4    0    0  0.34720275649E+02  0.34697539504E+02  0.67769134011E+02  0.83678386178E+02  0.00000000000E+00 0.  1.
         14    1    4    4    0    0  0.38173813120E+02 -0.36019095194E+02  0.24179567277E+02  0.57786388539E+02  0.00000000000E+00 0. -1.
         -5    1    5    5    0  502 -0.26212062631E+02  0.76024661967E+02  0.18752092236E+03  0.20409068518E+03  0.47000000000E+01 0.  1.
         13    1    6    6    0    0 -0.38634320886E+01 -0.70158494686E+01  0.15552375750E+03  0.15572985391E+03  0.00000000000E+00 0. -1.
        -14    1    6    6    0    0 -0.23992720524E+02 -0.54122836095E+02  0.70239981361E+02  0.91861782079E+02  0.00000000000E+00 0.  1.
<mgrwt>
<rscale>  2 0.18157699E+03</rscale>
<asrwt>0</asrwt>
<pdfrwt beam="1">  1       21 0.11526247E+00 0.18224354E+03</pdfrwt>
<pdfrwt beam="2">  1       21 0.68703748E-02 0.18224354E+03</pdfrwt>
<totfact> 0.91496928E+04</totfact>
</mgrwt>
</event>
<event>
12    1  0.1029207E-001  0.2341096E+03  0.7546771E-02  0.1123899E+00
         21   -1    0    0  503  502  0.00000000000E+00  0.00000000000E+00  0.38490091697E+03  0.38490091697E+03  0.00000000000E+00 0.  1.
         21   -1    0    0  501  503 -0.00000000000E+00 -0.00000000000E+00 -0.16243736154E+03  0.16243736154E+03  0.00000000000E+00 0.  1.
          6    2    1    2  501    0 -0.95827434194E+02 -0.12423253256E+03  0.14241923524E+02  0.23454241538E+03  0.17375469185E+03 0.  0.
         24    2    3    3    0    0 -0.20560111107E+02 -0.61147792471E+02 -0.50410631248E+02  0.11686957572E+03  0.83399612067E+02 0.  0.
         -6    2    1    2    0  502  0.95827434194E+02  0.12423253256E+03  0.20822163191E+03  0.31279586313E+03  0.17282472251E+03 0.  0.
        -24    2    5    5    0    0  0.78592652677E+02  0.15750325182E+03  0.18097439008E+03  0.26622891518E+03  0.84510508390E+02 0.  0.
          5    1    3    3  501    0 -0.75267323087E+02 -0.63084740086E+02  0.64652554772E+02  0.11767283967E+03  0.47000000000E+01 0. -1.
        -13    1    4    4    0    0 -0.25012873364E+02 -0.80056316405E+02 -0.31028711938E+02  0.89428399263E+02  0.00000000000E+00 0.  1.
         14    1    4    4    0    0  0.44527622574E+01  0.18908523934E+02 -0.19381919310E+02  0.27441176455E+02  0.00000000000E+00 0. -1.
         -5    1    5    5    0  502  0.17234781516E+02 -0.33270719261E+02  0.27247241827E+02  0.46566947949E+02  0.47000000000E+01 0.  1.
         13    1    6    6    0    0 -0.12220669430E+02 -0.74992645001E+00  0.69086989128E+01  0.14058352381E+02  0.00000000000E+00 0. -1.
        -14    1    6    6    0    0  0.90813322107E+02  0.15825317827E+03  0.17406569116E+03  0.25217056280E+03  0.00000000000E+00 0.  1.
<mgrwt>
<rscale>  2 0.23393708E+03</rscale>
<asrwt>0</asrwt>
<pdfrwt beam="1">  1       21 0.59215525E-01 0.23410962E+03</pdfrwt>
<pdfrwt beam="2">  1       21 0.24990363E-01 0.23410962E+03</pdfrwt>
<totfact> 0.39590998E+04</totfact>
</mgrwt>
</event>
<event>
12    1  0.1029207E-001  0.2517320E+03  0.7546771E-02  0.1113996E+00
         21   -1    0    0  501  502  0.00000000000E+00  0.00000000000E+00  0.22832865254E+03  0.22832865254E+03  0.00000000000E+00 0.  1.
         21   -1    0    0  502  503 -0.00000000000E+00 -0.00000000000E+00 -0.27368600863E+03  0.27368600863E+03  0.00000000000E+00 0.  1.
         -6    2    1    2    0  503 -0.13326316634E+02 -0.16917280744E+03 -0.65772017511E+02  0.24945626063E+03  0.17060315995E+03 0.  0.
        -24    2    3    3    0    0 -0.25782320613E+02 -0.51422368034E+02 -0.80018436613E+02  0.13010229767E+03  0.84939211619E+02 0.  0.
          6    2    1    2  501    0  0.13326316634E+02  0.16917280744E+03  0.20414661428E+02  0.25255840055E+03  0.18593535918E+03 0.  0.
         24    2    5    5    0    0  0.25697083236E+02  0.16194023180E+03  0.73764461237E+02  0.19711800772E+03  0.80804297316E+02 0.  0.
          5    1    5    5  501    0 -0.12370766601E+02  0.72325756396E+01 -0.53349799808E+02  0.55440392822E+02  0.47000000000E+01 0. -1.
        -11    1    6    6    0    0  0.31010160278E+02  0.97965720041E+02  0.83222214513E+02  0.13223028901E+03  0.00000000000E+00 0.  1.
         12    1    6    6    0    0 -0.53130770429E+01  0.63974511761E+02 -0.94577532762E+01  0.64887718713E+02  0.00000000000E+00 0. -1.
         -5    1    3    3    0  503  0.12456003979E+02 -0.11775043941E+03  0.14246419102E+02  0.11935396296E+03  0.47000000000E+01 0.  1.
         11    1    4    4    0    0 -0.16427567659E+02 -0.71125535261E+02 -0.79989136557E+02  0.10829112943E+03  0.00000000000E+00 0. -1.
        -12    1    4    4    0    0 -0.93547529545E+01  0.19703167227E+02 -0.29300056129E-01  0.21811168243E+02  0.00000000000E+00 0.  1.
<mgrwt>
<rscale>  2 0.24890918E+03</rscale>
<asrwt>0</asrwt>
<pdfrwt beam="1">  1       21 0.35127485E-01 0.25173198E+03</pdfrwt>
<pdfrwt beam="2">  1       21 0.42105540E-01 0.25173198E+03</pdfrwt>
<totfact> 0.41266871E+04</totfact>
</mgrwt>
</event>
<event>
12    1  0.1029207E-001  0.1830156E+03  0.7546771E-02  0.1165214E+00
         21   -1    0    0  503  502  0.00000000000E+00  0.00000000000E+00  0.19769324391E+03  0.19769324391E+03  0.00000000000E+00 0. -1.
         21   -1    0    0  501  503 -0.00000000000E+00 -0.00000000000E+00 -0.22966396715E+03  0.22966396715E+03  0.00000000000E+00 0. -1.
          6    2    1    2  501    0 -0.37465487334E+02 -0.44239845370E+02 -0.12650517806E+03  0.22248205883E+03  0.17359112813E+03 0.  0.
         24    2    3    3    0    0  0.27963817728E+02  0.81956408571E+01 -0.10566118193E+03  0.13595439649E+03  0.80437360260E+02 0.  0.
         -6    2    1    2    0  502  0.37465487334E+02  0.44239845370E+02  0.94534454821E+02  0.20487515222E+03  0.17226792559E+03 0.  0.
        -24    2    5    5    0    0 -0.31789516281E+02  0.19468704565E+02  0.95332768890E+02  0.13116903139E+03  0.82020571616E+02 0.  0.
          5    1    3    3  501    0 -0.65429305063E+02 -0.52435486227E+02 -0.20843996131E+02  0.86527662349E+02  0.47000000000E+01 0. -1.
        -13    1    4    4    0    0 -0.19971479806E+02  0.22298747087E+02 -0.17656642999E+02  0.34754153266E+02  0.00000000000E+00 0.  1.
         14    1    4    4    0    0  0.47935297534E+02 -0.14103106229E+02 -0.88004538933E+02  0.10120024322E+03  0.00000000000E+00 0. -1.
         -5    1    5    5    0  502  0.69255003615E+02  0.24771140805E+02 -0.79831406907E+00  0.73706120830E+02  0.47000000000E+01 0.  1.
         11    1    6    6    0    0 -0.34409791790E+02  0.39608576404E+02  0.97523490048E+02  0.11074161010E+03  0.00000000000E+00 0. -1.
        -12    1    6    6    0    0  0.26202755090E+01 -0.20139871839E+02 -0.21907211573E+01  0.20427421292E+02  0.00000000000E+00 0.  1.
<mgrwt>
<rscale>  2 0.18270114E+03</rscale>
<asrwt>0</asrwt>
<pdfrwt beam="1">  1       21 0.30414345E-01 0.18301559E+03</pdfrwt>
<pdfrwt beam="2">  1       21 0.35332918E-01 0.18301559E+03</pdfrwt>
<totfact> 0.80435117E+04</totfact>
</mgrwt>
</event>
<event>
12    1  0.1029207E-001  0.2254692E+03  0.7546771E-02  0.1130022E+00
         21   -1    0    0  503  502  0.00000000000E+00  0.00000000000E+00  0.13950313682E+04  0.13950313682E+04  0.00000000000E+00 0. -1.
         21   -1    0    0  501  503 -0.00000000000E+00 -0.00000000000E+00 -0.43336611877E+02  0.43336611877E+02  0.00000000000E+00 0. -1.
          6    2    1    2  501    0  0.43578545551E+02 -0.13738212761E+03  0.38722184545E+03  0.44808159343E+03  0.17338805657E+03 0.  0.
         24    2    3    3    0    0 -0.10241726933E+02 -0.23712166101E+02  0.18426229610E+03  0.20926754327E+03  0.95776568709E+02 0.  0.
         -6    2    1    2    0  502 -0.43578545551E+02  0.13738212761E+03  0.96447291091E+03  0.99028638668E+03  0.17229681700E+03 0.  0.
        -24    2    5    5    0    0  0.15783896741E+02  0.11110853034E+03  0.42614637189E+03  0.44803943733E+03  0.80897281886E+02 0.  0.
          5    1    3    3  501    0  0.53820272483E+02 -0.11366996151E+03  0.20295954935E+03  0.23881405016E+03  0.47000000000E+01 0. -1.
        -13    1    4    4    0    0  0.11779292724E+02  0.29801651289E+02  0.27716164800E+02  0.42368336619E+02  0.00000000000E+00 0.  1.
         14    1    4    4    0    0 -0.22021019657E+02 -0.53513817390E+02  0.15654613130E+03  0.16689920666E+03  0.00000000000E+00 0. -1.
         -5    1    5    5    0  502 -0.59362442292E+02  0.26273597270E+02  0.53832653902E+03  0.54224694935E+03  0.47000000000E+01 0.  1.
         11    1    6    6    0    0 -0.70842170809E+01  0.10776491992E+03  0.39342811027E+03  0.40798179132E+03  0.00000000000E+00 0. -1.
        -12    1    6    6    0    0  0.22868113822E+02  0.33436104173E+01  0.32718261621E+02  0.40057646011E+02  0.00000000000E+00 0.  1.
<mgrwt>
<rscale>  2 0.22525938E+03</rscale>
<asrwt>0</asrwt>
<pdfrwt beam="1">  1       21 0.21462018E+00 0.22546919E+03</pdfrwt>
<pdfrwt beam="2">  1       21 0.66671721E-02 0.22546919E+03</pdfrwt>
<totfact> 0.17420799E+04</totfact>
</mgrwt>
</event>
<event>
12    1  0.1029207E-001  0.2003644E+03  0.7546771E-02  0.1149626E+00
         21   -1    0    0  501  502  0.00000000000E+00  0.00000000000E+00  0.44648714193E+02  0.44648714193E+02  0.00000000000E+00 0.  1.
         21   -1    0    0  502  503 -0.00000000000E+00 -0.00000000000E+00 -0.92119251073E+03  0.92119251073E+03  0.00000000000E+00 0.  1.
         -6    2    1    2    0  503 -0.85946611240E+02 -0.49428585917E+02 -0.35591225815E+03  0.40798543104E+03  0.17305655535E+03 0.  0.
        -24    2    3    3    0    0  0.14828344149E+02 -0.38721371854E+02 -0.22526774869E+03  0.24257589710E+03  0.79864152318E+02 0.  0.
          6    2    1    2  501    0  0.85946611240E+02  0.49428585917E+02 -0.52063153839E+03  0.55785579388E+03  0.17411456836E+03 0.  0.
         24    2    5    5    0    0  0.21165120294E+02 -0.18396083177E+02 -0.37806652818E+03  0.38714053550E+03  0.78467294526E+02 0.  0.
          5    1    5    5  501    0  0.64781490946E+02  0.67824669094E+02 -0.14256501021E+03  0.17071525838E+03  0.47000000000E+01 0. -1.
        -11    1    6    6    0    0  0.30179530106E+02 -0.13038823052E+02 -0.56246427797E+02  0.65149639937E+02  0.00000000000E+00 0.  1.
         12    1    6    6    0    0 -0.90144098120E+01 -0.53572601253E+01 -0.32182010038E+03  0.32199089557E+03  0.00000000000E+00 0. -1.
         -5    1    3    3    0  503 -0.10077495539E+03 -0.10707214063E+02 -0.13064450946E+03  0.16540953394E+03  0.47000000000E+01 0.  1.
         13    1    4    4    0    0  0.32622051952E+02 -0.51392272978E+02 -0.11450255651E+03  0.12967728962E+03  0.00000000000E+00 0. -1.
        -14    1    4    4    0    0 -0.17793707803E+02  0.12670901124E+02 -0.11076519218E+03  0.11289860748E+03  0.00000000000E+00 0.  1.
<mgrwt>
<rscale>  2 0.20013431E+03</rscale>
<asrwt>0</asrwt>
<pdfrwt beam="1">  1       21 0.68690333E-02 0.20036439E+03</pdfrwt>
<pdfrwt beam="2">  1       21 0.14172192E+00 0.20036439E+03</pdfrwt>
<totfact> 0.53950221E+04</totfact>
</mgrwt>
</event>
<event>
12    1  0.1029207E-001  0.1764804E+03  0.7546771E-02  0.1171514E+00
         21   -1    0    0  501  502  0.00000000000E+00  0.00000000000E+00  0.87681986238E+02  0.87681986238E+02  0.00000000000E+00 0. -1.
         21   -1    0    0  502  503 -0.00000000000E+00 -0.00000000000E+00 -0.41653501795E+03  0.41653501795E+03  0.00000000000E+00 0. -1.
         -6    2    1    2    0  503 -0.47246198562E+02  0.15713703359E+02 -0.26322427147E+03  0.31691063865E+03  0.16931099210E+03 0.  0.
        -24    2    3    3    0    0 -0.40422364880E+02 -0.54428663316E+02 -0.17061661504E+03  0.20044268452E+03  0.80441242389E+02 0.  0.
          6    2    1    2  501    0  0.47246198562E+02 -0.15713703359E+02 -0.65628760247E+02  0.18730636555E+03  0.16821836003E+03 0.  0.
         24    2    5    5    0    0  0.62439895849E+02 -0.16659627407E+02  0.20941423991E+02  0.99282334688E+02  0.72402727597E+02 0.  0.
          5    1    5    5  501    0 -0.15193697287E+02  0.94592404781E+00 -0.86570184238E+02  0.88024030858E+02  0.47000000000E+01 0. -1.
        -11    1    6    6    0    0  0.50601563017E+02 -0.43976951540E+02  0.11290733625E+02  0.67985080071E+02  0.00000000000E+00 0.  1.
         12    1    6    6    0    0  0.11838332832E+02  0.27317324133E+02  0.96506903656E+01  0.31297254617E+02  0.00000000000E+00 0. -1.
         -5    1    3    3    0  503 -0.68238336820E+01  0.70142366675E+02 -0.92607656429E+02  0.11646795413E+03  0.47000000000E+01 0.  1.
         11    1    4    4    0    0  0.88104080992E+01 -0.29797384764E+02 -0.13349602412E+02  0.33818919471E+02  0.00000000000E+00 0. -1.
        -12    1    4    4    0    0 -0.49232772979E+02 -0.24631278553E+02 -0.15726701263E+03  0.16662376505E+03  0.00000000000E+00 0.  1.
<mgrwt>
<rscale>  2 0.17621783E+03</rscale>
<asrwt>0</asrwt>
<pdfrwt beam="1">  1       21 0.13489536E-01 0.17648041E+03</pdfrwt>
<pdfrwt beam="2">  1       21 0.64082311E-01 0.17648041E+03</pdfrwt>
<totfact> 0.10755054E+05</totfact>
</mgrwt>
</event>
<event>
12    1  0.1029207E-001  0.2058802E+03  0.7546771E-02  0.1145032E+00
         21   -1    0    0  501  502  0.00000000000E+00  0.00000000000E+00  0.32711697984E+02  0.32711697984E+02  0.00000000000E+00 0.  1.
         21   -1    0    0  502  503 -0.00000000000E+00 -0.00000000000E+00 -0.13091659917E+04  0.13091659917E+04  0.00000000000E+00 0.  1.
         -6    2    1    2    0  503  0.87003416463E+02  0.62870865824E+02 -0.71651595319E+03  0.74528938605E+03  0.17475359094E+03 0.  0.
        -24    2    3    3    0    0 -0.11062222593E+02  0.24404702056E+02 -0.18160865663E+03  0.20008811934E+03  0.79596413774E+02 0.  0.
          6    2    1    2  501    0 -0.87003416463E+02 -0.62870865824E+02 -0.55993834049E+03  0.59658830360E+03  0.17568243677E+03 0.  0.
         24    2    5    5    0    0 -0.56152803516E+02 -0.18986428565E+02 -0.13194677646E+03  0.16522248084E+03  0.79842936735E+02 0.  0.
          5    1    5    5  501    0 -0.30850612947E+02 -0.43884437259E+02 -0.42799156404E+03  0.43136582275E+03  0.47000000000E+01 0. -1.
        -13    1    6    6    0    0 -0.45437791681E+02 -0.49369085241E+02 -0.85158571350E+02  0.10841532071E+03  0.00000000000E+00 0.  1.
         14    1    6    6    0    0 -0.10715011835E+02  0.30382656676E+02 -0.46788205108E+02  0.56807160134E+02  0.00000000000E+00 0. -1.
         -5    1    3    3    0  503  0.98065639056E+02  0.38466163769E+02 -0.53490729656E+03  0.54520126672E+03  0.47000000000E+01 0.  1.
         13    1    4    4    0    0 -0.14795898460E+02 -0.18694458937E+02 -0.13256240490E+03  0.13468924456E+03  0.00000000000E+00 0. -1.
        -14    1    4    4    0    0  0.37336758673E+01  0.43099160992E+02 -0.49046251725E+02  0.65398874776E+02  0.00000000000E+00 0.  1.
<mgrwt>
<rscale>  2 0.20568191E+03</rscale>
<asrwt>0</asrwt>
<pdfrwt beam="1">  1       21 0.50325696E-02 0.20588021E+03</pdfrwt>
<pdfrwt beam="2">  1       21 0.20141012E+00 0.20588021E+03</pdfrwt>
<totfact> 0.34666325E+04</totfact>
</mgrwt>
</event>
<event>
12    1  0.1029207E-001  0.1744363E+03  0.7546771E-02  0.1174834E+00
         21   -1    0    0  501  502  0.00000000000E+00  0.00000000000E+00  0.24134721147E+02  0.24134721147E+02  0.00000000000E+00 0.  1.
         21   -1    0    0  502  503 -0.00000000000E+00 -0.00000000000E+00 -0.14740332265E+04  0.14740332265E+04  0.00000000000E+00 0.  1.
         -6    2    1    2    0  503  0.81621174474E+01  0.30203940721E+02 -0.10267085281E+04  0.10404368222E+04  0.16552788625E+03 0.  0.
        -24    2    3    3    0    0  0.21010698775E+02  0.21173715798E+02 -0.26401887622E+03  0.27757102399E+03  0.80311460282E+02 0.  0.
          6    2    1    2  501    0 -0.81621174474E+01 -0.30203940721E+02 -0.42318997725E+03  0.45773112544E+03  0.17160748281E+03 0.  0.
         24    2    5    5    0    0 -0.56955425718E+02 -0.48208057706E+02 -0.21498664406E+03  0.24307872477E+03  0.85440458607E+02 0.  0.
          5    1    5    5  501    0  0.48793308271E+02  0.18004116985E+02 -0.20820333320E+03  0.21465240067E+03  0.47000000000E+01 0. -1.
        -11    1    6    6    0    0 -0.22751271575E+02 -0.11209690893E+01 -0.26757197620E+01  0.22935483562E+02  0.00000000000E+00 0.  1.
         12    1    6    6    0    0 -0.34204154143E+02 -0.47087088616E+02 -0.21231092429E+03  0.22014324121E+03  0.00000000000E+00 0. -1.
         -5    1    3    3    0  503 -0.12848581327E+02  0.90302249231E+01 -0.76268965186E+03  0.76286579820E+03  0.47000000000E+01 0.  1.
         13    1    4    4    0    0  0.35426246176E+02 -0.16496256344E+01 -0.23605201056E+03  0.23870126073E+03  0.00000000000E+00 0. -1.
        -14    1    4    4    0    0 -0.14415547401E+02  0.22823341433E+02 -0.27966865659E+02  0.38869763259E+02  0.00000000000E+00 0.  1.
<mgrwt>
<rscale>  2 0.17292235E+03</rscale>
<asrwt>0</asrwt>
<pdfrwt beam="1">  1       21 0.37130339E-02 0.17443631E+03</pdfrwt>
<pdfrwt beam="2">  1       21 0.22677435E+00 0.17443631E+03</pdfrwt>
<totfact> 0.41162138E+04</totfact>
</mgrwt>
</event>
<event>
12    1  0.1029207E-001  0.1735395E+03  0.7546771E-02  0.1174236E+00
         21   -1    0    0  501  502  0.00000000000E+00  0.00000000000E+00  0.23990578351E+02  0.23990578351E+02  0.00000000000E+00 0. -1.
         21   -1    0    0  502  503 -0.00000000000E+00 -0.00000000000E+00 -0.13287027305E+04  0.13287027305E+04  0.00000000000E+00 0. -1.
         -6    2    1    2    0  503 -0.75617374694E+01  0.66935593331E+01 -0.81242061106E+03  0.83074857409E+03  0.17324537647E+03 0.  0.
        -24    2    3    3    0    0  0.58080265774E+02  0.82598013669E+01 -0.34978844420E+03  0.36345644114E+03  0.79417172701E+02 0.  0.
          6    2    1    2  501    0  0.75617374694E+01 -0.66935593331E+01 -0.49229154108E+03  0.52194473475E+03  0.17312816381E+03 0.  0.
         24    2    5    5    0    0  0.68556609987E+02 -0.26897020978E+02 -0.30168600933E+03  0.32074554720E+03  0.80248360197E+02 0.  0.
          5    1    5    5  501    0 -0.60994872518E+02  0.20203461645E+02 -0.19060553175E+03  0.20119918755E+03  0.47000000000E+01 0. -1.
        -11    1    6    6    0    0  0.22677710446E+02 -0.51705286977E+02 -0.16871109148E+03  0.17790769416E+03  0.00000000000E+00 0.  1.
         12    1    6    6    0    0  0.45878899541E+02  0.24808265999E+02 -0.13297491785E+03  0.14283785304E+03  0.00000000000E+00 0. -1.
         -5    1    3    3    0  503 -0.65642003243E+02 -0.15662420338E+01 -0.46263216686E+03  0.46729213295E+03  0.47000000000E+01 0.  1.
         13    1    4    4    0    0 -0.17351539436E+02 -0.98533700797E+01 -0.97056542565E+02  0.99086514105E+02  0.00000000000E+00 0. -1.
        -14    1    4    4    0    0  0.75431805209E+02  0.18113171447E+02 -0.25273190164E+03  0.26436992704E+03  0.00000000000E+00 0.  1.
<mgrwt>
<rscale>  2 0.17351020E+03</rscale>
<asrwt>0</asrwt>
<pdfrwt beam="1">  1       21 0.36908567E-02 0.17353946E+03</pdfrwt>
<pdfrwt beam="2">  1       21 0.20441589E+00 0.17353946E+03</pdfrwt>
<totfact> 0.57130842E+04</totfact>
</mgrwt>
</event>
<event>
12    1  0.1029207E-001  0.1850427E+03  0.7546771E-02  0.1163088E+00
         21   -1    0    0  503  502  0.00000000000E+00  0.00000000000E+00  0.11347321509E+04  0.11347321509E+04  0.00000000000E+00 0. -1.
         21   -1    0    0  501  503 -0.00000000000E+00 -0.00000000000E+00 -0.32191406761E+02  0.32191406761E+02  0.00000000000E+00 0. -1.
          6    2    1    2  501    0 -0.58873117490E+02 -0.30453709568E+02  0.40376495649E+03  0.44414741269E+03  0.17276374539E+03 0.  0.
         24    2    3    3    0    0 -0.46087638354E+02 -0.85116435454E+02  0.31306594994E+03  0.33737718338E+03  0.80275755118E+02 0.  0.
         -6    2    1    2    0  502  0.58873117490E+02  0.30453709568E+02  0.69877578767E+03  0.72277614499E+03  0.17240731407E+03 0.  0.
        -24    2    5    5    0    0  0.26671381394E+02  0.67520318004E+02  0.62504185214E+03  0.63406499283E+03  0.78043207777E+02 0.  0.
          5    1    3    3  501    0 -0.12785479136E+02  0.54662725886E+02  0.90699006547E+02  0.10677022931E+03  0.47000000000E+01 0. -1.
        -13    1    4    4    0    0 -0.48286551242E+01  0.15802163960E+02  0.48005254754E+02  0.50769368522E+02  0.00000000000E+00 0.  1.
         14    1    4    4    0    0 -0.41258983230E+02 -0.10091859941E+03  0.26506069519E+03  0.28660781486E+03  0.00000000000E+00 0. -1.
         -5    1    5    5    0  502  0.32201736096E+02 -0.37066608436E+02  0.73733935533E+02  0.88711152161E+02  0.47000000000E+01 0.  1.
         11    1    6    6    0    0  0.34601477634E+02  0.13349026819E+02  0.42660539967E+03  0.42821446239E+03  0.00000000000E+00 0. -1.
        -12    1    6    6    0    0 -0.79300962399E+01  0.54171291185E+02  0.19843645247E+03  0.20585053045E+03  0.00000000000E+00 0.  1.
<mgrwt>
<rscale>  2 0.18495941E+03</rscale>
<asrwt>0</asrwt>
<pdfrwt beam="1">  1       21 0.17457415E+00 0.18504265E+03</pdfrwt>
<pdfrwt beam="2">  1       21 0.49525250E-02 0.18504265E+03</pdfrwt>
<totfact> 0.54445537E+04</totfact>
</mgrwt>
</event>
<event>
12    1  0.1029207E-001  0.2146735E+03  0.7546771E-02  0.1139375E+00
         21   -1    0    0  501  502  0.00000000000E+00  0.00000000000E+00  0.60857068283E+02  0.60857068283E+02  0.00000000000E+00 0. -1.
         21   -1    0    0  502  503 -0.00000000000E+00 -0.00000000000E+00 -0.79931881354E+03  0.79931881354E+03  0.00000000000E+00 0.  1.
         -6    2    1    2    0  503 -0.36556036451E+02  0.12004848045E+03 -0.23781379175E+03  0.31544375101E+03  0.16492840581E+03 0.  0.
        -24    2    3    3    0    0  0.32721838695E+02  0.68430922860E+02 -0.83759876894E+02  0.13875618801E+03  0.80523616426E+02 0.  0.
          6    2    1    2  501    0  0.36556036451E+02 -0.12004848045E+03 -0.50064795351E+03  0.54473213082E+03  0.17417445144E+03 0.  0.
         24    2    5    5    0    0  0.17885591926E+02 -0.14595667724E+03 -0.31410853813E+03  0.35542057901E+03  0.77694068137E+02 0.  0.
          5    1    5    5  501    0  0.18670444525E+02  0.25908196793E+02 -0.18653941538E+03  0.18931155181E+03  0.47000000000E+01 0. -1.
        -11    1    6    6    0    0  0.33427413916E+02 -0.65364462482E+02 -0.21237005484E+03  0.22470190286E+03  0.00000000000E+00 0.  1.
         12    1    6    6    0    0 -0.15541821989E+02 -0.80592214759E+02 -0.10173848329E+03  0.13071867615E+03  0.00000000000E+00 0. -1.
         -5    1    3    3    0  503 -0.69277875146E+02  0.51617557588E+02 -0.15405391486E+03  0.17668756300E+03  0.47000000000E+01 0.  1.
         11    1    4    4    0    0  0.25843100461E+02  0.29791989080E+02  0.68339470758E+01  0.40026632227E+02  0.00000000000E+00 0. -1.
        -12    1    4    4    0    0  0.68787382337E+01  0.38638933780E+02 -0.90593823970E+02  0.98729555782E+02  0.00000000000E+00 0.  1.
<mgrwt>
<rscale>  2 0.21279109E+03</rscale>
<asrwt>0</asrwt>
<pdfrwt beam="1">  1       21 0.93626270E-02 0.21467352E+03</pdfrwt>
<pdfrwt beam="2">  1       21 0.12297211E+00 0.21467352E+03</pdfrwt>
<totfact> 0.44754153E+04</totfact>
</mgrwt>
</event>
<event>
12    1  0.1029207E-001  0.1899966E+03  0.7546771E-02  0.1158738E+00
         21   -1    0    0  501  502  0.00000000000E+00  0.00000000000E+00  0.67731798867E+03  0.67731798867E+03  0.00000000000E+00 0. -1.
         21   -1    0    0  502  503 -0.00000000000E+00 -0.00000000000E+00 -0.12996456867E+03  0.12996456867E+03  0.00000000000E+00 0. -1.
         -6    2    1    2    0  503  0.74131378974E+02  0.13456235605E+02 -0.37381315339E+02  0.19245459603E+03  0.17310366019E+03 0.  0.
        -24    2    3    3    0    0  0.39063394346E+02  0.74800103069E+02 -0.11232614357E+02  0.11696500613E+03  0.80209954718E+02 0.  0.
          6    2    1    2  501    0 -0.74131378974E+02 -0.13456235605E+02  0.58473473534E+03  0.61482796130E+03  0.17441955069E+03 0.  0.
         24    2    5    5    0    0 -0.32004337749E+01  0.46893765071E+02  0.34658127144E+03  0.35906931739E+03  0.81258408802E+02 0.  0.
          5    1    5    5  501    0 -0.70930945199E+02 -0.60350000676E+02  0.23815346390E+03  0.25575864391E+03  0.47000000000E+01 0. -1.
        -11    1    6    6    0    0 -0.32256649153E+02  0.47724988309E+02  0.15622646322E+03  0.16650787890E+03  0.00000000000E+00 0.  1.
         12    1    6    6    0    0  0.29056215378E+02 -0.83122323804E+00  0.19035480821E+03  0.19256143849E+03  0.00000000000E+00 0. -1.
         -5    1    3    3    0  503  0.35067984628E+02 -0.61343867464E+02 -0.26148700981E+02  0.75489589907E+02  0.47000000000E+01 0.  1.
         13    1    4    4    0    0 -0.11688453863E+02  0.62829006664E+02 -0.10834508441E+02  0.64818906233E+02  0.00000000000E+00 0. -1.
        -14    1    4    4    0    0  0.50751848209E+02  0.11971096405E+02 -0.39810591664E+00  0.52146099893E+02  0.00000000000E+00 0.  1.
<mgrwt>
<rscale>  2 0.18969407E+03</rscale>
<asrwt>0</asrwt>
<pdfrwt beam="1">  1       21 0.10420277E+00 0.18999661E+03</pdfrwt>
<pdfrwt beam="2">  1       21 0.19994549E-01 0.18999661E+03</pdfrwt>
<totfact> 0.17214205E+04</totfact>
</mgrwt>
</event>
<event>
12    1  0.1029207E-001  0.1900024E+03  0.7546771E-02  0.1158914E+00
         21   -1    0    0  503  502  0.00000000000E+00  0.00000000000E+00  0.36777592677E+03  0.36777592677E+03  0.00000000000E+00 0. -1.
         21   -1    0    0  501  503 -0.00000000000E+00 -0.00000000000E+00 -0.21086129822E+03  0.21086129822E+03  0.00000000000E+00 0. -1.
          6    2    1    2  501    0  0.11305688467E+02  0.75721352192E+02 -0.13383286332E+03  0.23240510653E+03  0.17389467061E+03 0.  0.
         24    2    3    3    0    0 -0.44380522271E+02  0.79490066934E+02 -0.11506688060E+03  0.17333388355E+03  0.92281887047E+02 0.  0.
         -6    2    1    2    0  502 -0.11305688467E+02 -0.75721352192E+02  0.29074749187E+03  0.34623211846E+03  0.17170041949E+03 0.  0.
        -24    2    5    5    0    0 -0.30814959989E+02  0.15989126973E+02  0.98182284914E+02  0.13200123228E+03  0.81113194433E+02 0.  0.
          5    1    3    3  501    0  0.55686210738E+02 -0.37687147412E+01 -0.18765982718E+02  0.59071222982E+02  0.47000000000E+01 0. -1.
        -13    1    4    4    0    0 -0.80950958968E+01  0.27013614224E+02  0.12388924571E+02  0.30801808113E+02  0.00000000000E+00 0.  1.
         14    1    4    4    0    0 -0.36285426374E+02  0.52476452710E+02 -0.12745580517E+03  0.14253207544E+03  0.00000000000E+00 0. -1.
         -5    1    5    5    0  502  0.19509271522E+02 -0.91710479165E+02  0.19256520696E+03  0.21423088618E+03  0.47000000000E+01 0.  1.
         11    1    6    6    0    0 -0.57522085888E+02  0.26642245415E+01  0.72800996817E+02  0.92821730187E+02  0.00000000000E+00 0. -1.
        -12    1    6    6    0    0  0.26707125899E+02  0.13324902432E+02  0.25381288098E+02  0.39179502091E+02  0.00000000000E+00 0.  1.
<mgrwt>
<rscale>  2 0.18949883E+03</rscale>
<asrwt>0</asrwt>
<pdfrwt beam="1">  1       21 0.56580912E-01 0.19000236E+03</pdfrwt>
<pdfrwt beam="2">  1       21 0.32440200E-01 0.19000236E+03</pdfrwt>
<totfact> 0.26896868E+04</totfact>
</mgrwt>
</event>
<event>
12    1  0.1029207E-001  0.1807897E+03  0.7546771E-02  0.1167442E+00
         21   -1    0    0  503  502  0.00000000000E+00  0.00000000000E+00  0.14349656141E+03  0.14349656141E+03  0.00000000000E+00 0.  1.
         21   -1    0    0  501  503 -0.00000000000E+00 -0.00000000000E+00 -0.62039070735E+03  0.62039070735E+03  0.00000000000E+00 0.  1.
          6    2    1    2  501    0  0.53921209053E+02  0.41542188799E+01 -0.54269578611E+03  0.57149500056E+03  0.17077196809E+03 0.  0.
         24    2    3    3    0    0  0.45544896910E+02 -0.59944281486E+02 -0.27964636098E+03  0.30057827828E+03  0.80483287973E+02 0.  0.
         -6    2    1    2    0  502 -0.53921209053E+02 -0.41542188799E+01  0.65801640171E+02  0.19239226819E+03  0.17251137554E+03 0.  0.
        -24    2    5    5    0    0 -0.86741072317E+01  0.36461459962E+02 -0.13635922943E+02  0.92245625589E+02  0.83178355640E+02 0.  0.
          5    1    3    3  501    0  0.83763121432E+01  0.64098500366E+02 -0.26304942513E+03  0.27091672229E+03  0.47000000000E+01 0. -1.
        -11    1    4    4    0    0  0.17639364219E+02 -0.62901404452E+02 -0.10479755807E+03  0.12349195128E+03  0.00000000000E+00 0.  1.
         12    1    4    4    0    0  0.27905532690E+02  0.29571229665E+01 -0.17484880291E+03  0.17708632700E+03  0.00000000000E+00 0. -1.
         -5    1    5    5    0  502 -0.45247101821E+02 -0.40615678842E+02  0.79437563114E+02  0.10014664260E+03  0.47000000000E+01 0.  1.
         11    1    6    6    0    0 -0.29405822237E+02 -0.22005025953E+01 -0.33032071769E+02  0.44279367187E+02  0.00000000000E+00 0. -1.
        -12    1    6    6    0    0  0.20731715006E+02  0.38661962557E+02  0.19396148826E+02  0.47966258402E+02  0.00000000000E+00 0.  1.
<mgrwt>
<rscale>  2 0.18037355E+03</rscale>
<asrwt>0</asrwt>
<pdfrwt beam="1">  1       21 0.22076394E-01 0.18078974E+03</pdfrwt>
<pdfrwt beam="2">  1       21 0.95444723E-01 0.18078974E+03</pdfrwt>
<totfact> 0.17703662E+04</totfact>
</mgrwt>
</event>
<event>
12    1  0.1029207E-001  0.1935955E+03  0.7546771E-02  0.1155311E+00
         21   -1    0    0  503  502  0.00000000000E+00  0.00000000000E+00  0.27504146588E+03  0.27504146588E+03  0.00000000000E+00 0. -1.
         21   -1    0    0  501  503 -0.00000000000E+00 -0.00000000000E+00 -0.18295174505E+04  0.18295174505E+04  0.00000000000E+00 0. -1.
          6    2    1    2  501    0  0.49503018957E+02  0.69739923895E+02 -0.17896571405E+04  0.18000977442E+04  0.17368074870E+03 0.  0.
         24    2    3    3    0    0  0.25487565579E+02  0.91084760735E+02 -0.17038067018E+04  0.17083114060E+04  0.80153185961E+02 0.  0.
         -6    2    1    2    0  502 -0.49503018957E+02 -0.69739923895E+02  0.23518115587E+03  0.30446117212E+03  0.17341344638E+03 0.  0.
        -24    2    5    5    0    0 -0.49016264876E+02 -0.78336753217E+02  0.25474413305E+03  0.28257641761E+03  0.80097548903E+02 0.  0.
          5    1    3    3  501    0  0.24015453377E+02 -0.21344836840E+02 -0.85850438642E+02  0.91786338176E+02  0.47000000000E+01 0. -1.
        -13    1    4    4    0    0  0.10208797884E+01  0.75188724238E+02 -0.69006415170E+03  0.69414906173E+03  0.00000000000E+00 0.  1.
         14    1    4    4    0    0  0.24466685791E+02  0.15896036497E+02 -0.10137425501E+04  0.10141623443E+04  0.00000000000E+00 0. -1.
         -5    1    5    5    0  502 -0.48675408070E+00  0.85968293217E+01 -0.19562977181E+02  0.21884754513E+02  0.47000000000E+01 0.  1.
         13    1    6    6    0    0  0.21204181608E+00 -0.66367169467E+02  0.18367833939E+03  0.19530073862E+03  0.00000000000E+00 0. -1.
        -14    1    6    6    0    0 -0.49228306692E+02 -0.11969583750E+02  0.71065793660E+02  0.87275678991E+02  0.00000000000E+00 0.  1.
<mgrwt>
<rscale>  2 0.19353551E+03</rscale>
<asrwt>0</asrwt>
<pdfrwt beam="1">  1       21 0.42314073E-01 0.19359548E+03</pdfrwt>
<pdfrwt beam="2">  1       21 0.28146422E+00 0.19359548E+03</pdfrwt>
<totfact> 0.23422134E+02</totfact>
</mgrwt>
</event>
<event>
12    1  0.1029207E-001  0.2034793E+03  0.7546771E-02  0.1150074E+00
         21   -1    0    0  503  502  0.00000000000E+00  0.00000000000E+00  0.65735791767E+03  0.65735791767E+03  0.00000000000E+00 0. -1.
         21   -1    0    0  501  503 -0.00000000000E+00 -0.00000000000E+00 -0.64606695594E+02  0.64606695594E+02  0.00000000000E+00 0. -1.
          6    2    1    2  501    0 -0.71838637448E+02 -0.73858862009E+01  0.17433980535E+03  0.25669914656E+03  0.17402512166E+03 0.  0.
         24    2    3    3    0    0 -0.70317683723E+02  0.60272459534E+02  0.10817611640E+03  0.16193792673E+03  0.77100414608E+02 0.  0.
         -6    2    1    2    0  502  0.71838637448E+02  0.73858862009E+01  0.41841141673E+03  0.46526546671E+03  0.19023275142E+03 0.  0.
        -24    2    5    5    0    0  0.80928873540E+02  0.75472010374E+01  0.11445467846E+03  0.16113646915E+03  0.79111601257E+02 0.  0.
          5    1    3    3  501    0 -0.15209537253E+01 -0.67658345735E+02  0.66163688948E+02  0.94761219826E+02  0.47000000000E+01 0. -1.
        -13    1    4    4    0    0 -0.72231161852E+02  0.36901257323E+02  0.41199474147E+02  0.90974942729E+02  0.00000000000E+00 0.  1.
         14    1    4    4    0    0  0.19134781290E+01  0.23371202211E+02  0.66976642253E+02  0.70962984004E+02  0.00000000000E+00 0. -1.
         -5    1    5    5    0  502 -0.90902360918E+01 -0.16131483653E+00  0.30395673827E+03  0.30412899755E+03  0.47000000000E+01 0.  1.
         11    1    6    6    0    0  0.46762225104E+02  0.35353462607E+02  0.97835414686E+02  0.11405411602E+03  0.00000000000E+00 0. -1.
        -12    1    6    6    0    0  0.34166648436E+02 -0.27806261570E+02  0.16619263776E+02  0.47082353130E+02  0.00000000000E+00 0.  1.
<mgrwt>
<rscale>  2 0.19960385E+03</rscale>
<asrwt>0</asrwt>
<pdfrwt beam="1">  1       21 0.10113198E+00 0.20347934E+03</pdfrwt>
<pdfrwt beam="2">  1       21 0.99394921E-02 0.20347934E+03</pdfrwt>
<totfact> 0.65212893E+04</totfact>
</mgrwt>
</event>
<event>
12    1  0.1029207E-001  0.2181598E+03  0.7546771E-02  0.1135438E+00
         21   -1    0    0  501  502  0.00000000000E+00  0.00000000000E+00  0.13385071885E+04  0.13385071885E+04  0.00000000000E+00 0. -1.
         21   -1    0    0  502  503 -0.00000000000E+00 -0.00000000000E+00 -0.36122943683E+02  0.36122943683E+02  0.00000000000E+00 0. -1.
         -6    2    1    2    0  503  0.11996201912E+03  0.54677263790E+02  0.74663865392E+03  0.77759842169E+03  0.17265438504E+03 0.  0.
        -24    2    3    3    0    0  0.17047420014E+02 -0.77114409350E+01  0.17322762739E+03  0.19167516687E+03  0.79884152706E+02 0.  0.
          6    2    1    2  501    0 -0.11996201912E+03 -0.54677263790E+02  0.55574559091E+03  0.59703171051E+03  0.17381948202E+03 0.  0.
         24    2    5    5    0    0 -0.36009271374E+02 -0.51588338868E+02  0.14176539070E+03  0.17458727455E+03  0.80157757579E+02 0.  0.
          5    1    5    5  501    0 -0.83952747750E+02 -0.30889249221E+01  0.41398020021E+03  0.42244443596E+03  0.47000000000E+01 0. -1.
        -11    1    6    6    0    0  0.59731447486E+01 -0.10448411953E+02 -0.74893892679E+01  0.14175285611E+02  0.00000000000E+00 0.  1.
         12    1    6    6    0    0 -0.41982416123E+02 -0.41139926915E+02  0.14925477997E+03  0.16041198893E+03  0.00000000000E+00 0. -1.
         -5    1    3    3    0  503  0.10291459911E+03  0.62388704725E+02  0.57341102654E+03  0.58592325482E+03  0.47000000000E+01 0.  1.
         11    1    4    4    0    0  0.76998139278E+01  0.25222647485E+02  0.16180550815E+02  0.30939930597E+02  0.00000000000E+00 0. -1.
        -12    1    4    4    0    0  0.93476060860E+01 -0.32934088420E+02  0.15704707657E+03  0.16073523627E+03  0.00000000000E+00 0.  1.
<mgrwt>
<rscale>  2 0.21792765E+03</rscale>
<asrwt>0</asrwt>
<pdfrwt beam="1">  1       21 0.20592414E+00 0.21815981E+03</pdfrwt>
<pdfrwt beam="2">  1       21 0.55573770E-02 0.21815981E+03</pdfrwt>
<totfact> 0.27167197E+04</totfact>
</mgrwt>
</event>
<event>
12    1  0.1029207E-001  0.2103117E+03  0.7546771E-02  0.1143080E+00
         21   -1    0    0  503  502  0.00000000000E+00  0.00000000000E+00  0.75957071869E+02  0.75957071869E+02  0.00000000000E+00 0.  1.
         21   -1    0    0  501  503 -0.00000000000E+00 -0.00000000000E+00 -0.86145380464E+03  0.86145380464E+03  0.00000000000E+00 0. -1.
          6    2    1    2  501    0  0.61378726383E+02  0.83889502483E+02 -0.66530229699E+03  0.69517604162E+03  0.17273617395E+03 0.  0.
         24    2    3    3    0    0  0.79664760047E+02  0.10638763278E+03 -0.63162645206E+03  0.65049162124E+03  0.80762441480E+02 0.  0.
         -6    2    1    2    0  502 -0.61378726383E+02 -0.83889502483E+02 -0.12019443579E+03  0.24223483489E+03  0.18282837898E+03 0.  0.
        -24    2    5    5    0    0 -0.42658764473E+02 -0.13013276597E+03 -0.10092020305E+03  0.18854626591E+03  0.81304981642E+02 0.  0.
          5    1    3    3  501    0 -0.18286033664E+02 -0.22498130294E+02 -0.33675844928E+02  0.44684420389E+02  0.47000000000E+01 0. -1.
        -11    1    4    4    0    0  0.65747492687E+00  0.50437135354E+02 -0.12677315794E+03  0.13643962207E+03  0.00000000000E+00 0.  1.
         12    1    4    4    0    0  0.79007285120E+02  0.55950497423E+02 -0.50485329412E+03  0.51405199916E+03  0.00000000000E+00 0. -1.
         -5    1    5    5    0  502 -0.18719961910E+02  0.46243263484E+02 -0.19274232734E+02  0.53688568979E+02  0.47000000000E+01 0.  1.
         13    1    6    6    0    0 -0.30252743341E+02 -0.56307206699E+01 -0.36748067599E+02  0.47930720495E+02  0.00000000000E+00 0. -1.
        -14    1    6    6    0    0 -0.12406021131E+02 -0.12450204530E+03 -0.64172135452E+02  0.14061554541E+03  0.00000000000E+00 0.  1.
<mgrwt>
<rscale>  2 0.20809912E+03</rscale>
<asrwt>0</asrwt>
<pdfrwt beam="1">  1       21 0.11685704E-01 0.21031170E+03</pdfrwt>
<pdfrwt beam="2">  1       21 0.13253135E+00 0.21031170E+03</pdfrwt>
<totfact> 0.25057045E+04</totfact>
</mgrwt>
</event>
<event>
12    1  0.1029207E-001  0.2236987E+03  0.7546771E-02  0.1131434E+00
         21   -1    0    0  501  502  0.00000000000E+00  0.00000000000E+00  0.58188381664E+02  0.58188381664E+02  0.00000000000E+00 0.  1.
         21   -1    0    0  502  503 -0.00000000000E+00 -0.00000000000E+00 -0.88564992500E+03  0.88564992500E+03  0.00000000000E+00 0.  1.
         -6    2    1    2    0  503  0.16913715741E+02 -0.14019987762E+03 -0.50138574798E+03  0.54840620062E+03  0.17152146551E+03 0.  0.
        -24    2    3    3    0    0 -0.51232183740E+02 -0.74753368933E+02 -0.33756420220E+03  0.35923247629E+03  0.82979386558E+02 0.  0.
          6    2    1    2  501    0 -0.16913715741E+02  0.14019987762E+03 -0.32607579535E+03  0.39543210604E+03  0.17349076837E+03 0.  0.
         24    2    5    5    0    0  0.17607125627E+02  0.12336805991E+02 -0.75134079847E+02  0.11164611598E+03  0.79734042940E+02 0.  0.
          5    1    5    5  501    0 -0.34520841368E+02  0.12786307163E+03 -0.25094171550E+03  0.28378599006E+03  0.47000000000E+01 0. -1.
        -13    1    6    6    0    0  0.81690827466E+01  0.45060245352E+02 -0.56819120005E+02  0.72976516923E+02  0.00000000000E+00 0.  1.
         14    1    6    6    0    0  0.94380428807E+01 -0.32723439361E+02 -0.18314959842E+02  0.38669599054E+02  0.00000000000E+00 0. -1.
         -5    1    3    3    0  503  0.68145899481E+02 -0.65446508691E+02 -0.16382154578E+03  0.18917372433E+03  0.47000000000E+01 0.  1.
         11    1    4    4    0    0 -0.67693595952E+02 -0.39296995190E+02 -0.16977623759E+03  0.18695092301E+03  0.00000000000E+00 0. -1.
        -12    1    4    4    0    0  0.16461412213E+02 -0.35456373743E+02 -0.16778796461E+03  0.17228155328E+03  0.00000000000E+00 0.  1.
<mgrwt>
<rscale>  2 0.22331681E+03</rscale>
<asrwt>0</asrwt>
<pdfrwt beam="1">  1       21 0.89520585E-02 0.22369874E+03</pdfrwt>
<pdfrwt beam="2">  1       21 0.13625384E+00 0.22369874E+03</pdfrwt>
<totfact> 0.37178017E+04</totfact>
</mgrwt>
</event>
<event>
12    1  0.1029207E-001  0.2347757E+03  0.7546771E-02  0.1123457E+00
         21   -1    0    0  501  502  0.00000000000E+00  0.00000000000E+00  0.13492686765E+04  0.13492686765E+04  0.00000000000E+00 0.  1.
         21   -1    0    0  502  503 -0.00000000000E+00 -0.00000000000E+00 -0.46722204407E+02  0.46722204407E+02  0.00000000000E+00 0.  1.
         -6    2    1    2    0  503  0.15382318427E+03  0.36899352468E+02  0.40006242101E+03  0.46346899216E+03  0.17242514828E+03 0.  0.
        -24    2    3    3    0    0  0.16969894423E+03  0.36075252819E+02  0.40348185668E+03  0.44654263890E+03  0.80644678359E+02 0.  0.
          6    2    1    2  501    0 -0.15382318427E+03 -0.36899352468E+02  0.90248405103E+03  0.93252188870E+03  0.17348336028E+03 0.  0.
         24    2    5    5    0    0 -0.14923895500E+03  0.62871676405E+01  0.84115887459E+03  0.85722940605E+03  0.70584758483E+02 0.  0.
          5    1    5    5  501    0 -0.45842292662E+01 -0.43186520108E+02  0.61325176446E+02  0.75292482647E+02  0.47000000000E+01 0. -1.
        -13    1    6    6    0    0 -0.78606637419E+01  0.89066247440E+00  0.53963638658E+01  0.95762235291E+01  0.00000000000E+00 0.  1.
         14    1    6    6    0    0 -0.14137829126E+03  0.53965051661E+01  0.83576251072E+03  0.84765318252E+03  0.00000000000E+00 0. -1.
         -5    1    3    3    0  503 -0.15875759963E+02  0.82409964872E+00 -0.34194356633E+01  0.16926353266E+02  0.47000000000E+01 0.  1.
         13    1    4    4    0    0  0.66114897876E+02  0.45922275684E+02  0.11936843803E+03  0.14397520315E+03  0.00000000000E+00 0. -1.
        -14    1    4    4    0    0  0.10358404636E+03 -0.98470228646E+01  0.28411341865E+03  0.30256743575E+03  0.00000000000E+00 0.  1.
<mgrwt>
<rscale>  2 0.23458020E+03</rscale>
<asrwt>0</asrwt>
<pdfrwt beam="1">  1       21 0.20757977E+00 0.23477566E+03</pdfrwt>
<pdfrwt beam="2">  1       21 0.71880325E-02 0.23477566E+03</pdfrwt>
<totfact> 0.16827879E+04</totfact>
</mgrwt>
</event>
<event>
12    1  0.1029207E-001  0.2150214E+03  0.7546771E-02  0.1138850E+00
         21   -1    0    0  501  502  0.00000000000E+00  0.00000000000E+00  0.66517527111E+03  0.66517527111E+03  0.00000000000E+00 0. -1.
         21   -1    0    0  502  503 -0.00000000000E+00 -0.00000000000E+00 -0.31168639195E+03  0.31168639195E+03  0.00000000000E+00 0.  1.
         -6    2    1    2    0  503  0.52180903048E+02 -0.10491023548E+03 -0.25609207135E+03  0.33046925325E+03  0.17290972842E+03 0.  0.
        -24    2    3    3    0    0 -0.17237500150E+02 -0.10317452993E+02 -0.15456602837E+03  0.17523930573E+03  0.80091047572E+02 0.  0.
          6    2    1    2  501    0 -0.52180903048E+02  0.10491023548E+03  0.60958095051E+03  0.64639240980E+03  0.18029200779E+03 0.  0.
         24    2    5    5    0    0 -0.39448502132E+01  0.11074622662E+03  0.26627247503E+03  0.29963085639E+03  0.81223953313E+02 0.  0.
          5    1    5    5  501    0 -0.48236052835E+02 -0.58359911344E+01  0.34330847548E+03  0.34676155341E+03  0.47000000000E+01 0. -1.
        -13    1    6    6    0    0 -0.93891595935E+01 -0.10954958485E+02  0.41976225304E+02  0.44386607485E+02  0.00000000000E+00 0.  1.
         14    1    6    6    0    0  0.54443093803E+01  0.12170118510E+03  0.22429624972E+03  0.25524424891E+03  0.00000000000E+00 0. -1.
         -5    1    3    3    0  503  0.69418403198E+02 -0.94592782492E+02 -0.10152604298E+03  0.15522994752E+03  0.47000000000E+01 0.  1.
         13    1    4    4    0    0  0.27681365235E+02 -0.21989206198E+02 -0.79162161411E+02  0.86697352726E+02  0.00000000000E+00 0. -1.
        -14    1    4    4    0    0 -0.44918865385E+02  0.11671753206E+02 -0.75403866955E+02  0.88541953007E+02  0.00000000000E+00 0.  1.
<mgrwt>
<rscale>  2 0.21346685E+03</rscale>
<asrwt>0</asrwt>
<pdfrwt beam="1">  1       21 0.10233466E+00 0.21502142E+03</pdfrwt>
<pdfrwt beam="2">  1       21 0.47951753E-01 0.21502142E+03</pdfrwt>
<totfact> 0.31704419E+03</totfact>
</mgrwt>
</event>
<event>
12    1  0.1029207E-001  0.2458461E+03  0.7546771E-02  0.1116206E+00
         21   -1    0    0  503  502  0.00000000000E+00  0.00000000000E+00  0.94428838035E+03  0.94428838035E+03  0.00000000000E+00 0.  1.
         21   -1    0    0  501  503 -0.00000000000E+00 -0.00000000000E+00 -0.22146143989E+03  0.22146143989E+03  0.00000000000E+00 0.  1.
          6    2    1    2  501    0  0.76736505449E+02  0.15366024666E+03 -0.13036096188E+03  0.27827020454E+03  0.17589873132E+03 0.  0.
         24    2    3    3    0    0  0.62253291804E+02  0.14323457923E+02 -0.24331101814E+02  0.10251774965E+03  0.76401915494E+02 0.  0.
         -6    2    1    2    0  502 -0.76736505449E+02 -0.15366024666E+03  0.85318790234E+03  0.88747961570E+03  0.17375416228E+03 0.  0.
        -24    2    5    5    0    0 -0.34394841738E+02 -0.11491978032E+02  0.39685006515E+03  0.40761406709E+03  0.85698207580E+02 0.  0.
          5    1    3    3  501    0  0.14483213645E+02  0.13933678874E+03 -0.10602986007E+03  0.17575245489E+03  0.47000000000E+01 0. -1.
        -11    1    4    4    0    0  0.67180402082E+02  0.47811819185E+01 -0.43760144432E+02  0.80318219385E+02  0.00000000000E+00 0.  1.
         12    1    4    4    0    0 -0.49271102780E+01  0.95422760042E+01  0.19429042619E+02  0.22199530268E+02  0.00000000000E+00 0. -1.
         -5    1    5    5    0  502 -0.42341663710E+02 -0.14216826863E+03  0.45633783719E+03  0.47986554861E+03  0.47000000000E+01 0.  1.
         13    1    6    6    0    0 -0.59146238379E+02  0.10311258668E+02  0.26118600006E+03  0.26799762349E+03  0.00000000000E+00 0. -1.
        -14    1    6    6    0    0  0.24751396640E+02 -0.21803236700E+02  0.13566406509E+03  0.13961644360E+03  0.00000000000E+00 0.  1.
<mgrwt>
<rscale>  2 0.24546280E+03</rscale>
<asrwt>0</asrwt>
<pdfrwt beam="1">  1       21 0.14527513E+00 0.24584614E+03</pdfrwt>
<pdfrwt beam="2">  1       21 0.34070991E-01 0.24584614E+03</pdfrwt>
<totfact> 0.25813832E+03</totfact>
</mgrwt>
</event>
<event>
12    1  0.1029207E-001  0.2114882E+03  0.7546771E-02  0.1140742E+00
         21   -1    0    0  501  502  0.00000000000E+00  0.00000000000E+00  0.13037489647E+03  0.13037489647E+03  0.00000000000E+00 0. -1.
         21   -1    0    0  502  503 -0.00000000000E+00 -0.00000000000E+00 -0.40378862088E+03  0.40378862088E+03  0.00000000000E+00 0. -1.
         -6    2    1    2    0  503  0.10387811041E+03  0.63495588564E+02 -0.31200321861E+02  0.21377729674E+03  0.17293039330E+03 0.  0.
        -24    2    3    3    0    0  0.12137601098E+03  0.16655965685E+02  0.15661076499E+02  0.14508808760E+03  0.76129669729E+02 0.  0.
          6    2    1    2  501    0 -0.10387811041E+03 -0.63495588564E+02 -0.24221340255E+03  0.32038622062E+03  0.17075610207E+03 0.  0.
         24    2    5    5    0    0 -0.20002939185E+02 -0.10759383594E+01 -0.45084649490E+02  0.97197752356E+02  0.83746655002E+02 0.  0.
          5    1    5    5  501    0 -0.83875171228E+02 -0.62419650204E+02 -0.19712875306E+03  0.22318846826E+03  0.47000000000E+01 0. -1.
        -11    1    6    6    0    0 -0.86454215551E+00  0.27229038570E+02 -0.55206244909E+02  0.61562143007E+02  0.00000000000E+00 0.  1.
         12    1    6    6    0    0 -0.19138397029E+02 -0.28304976930E+02  0.10121595419E+02  0.35635609349E+02  0.00000000000E+00 0. -1.
         -5    1    3    3    0  503 -0.17497900564E+02  0.46839622879E+02 -0.46861398360E+02  0.68689209137E+02  0.47000000000E+01 0.  1.
         13    1    4    4    0    0  0.12115659614E+03  0.34027299513E+02  0.79915599856E+01  0.12609775150E+03  0.00000000000E+00 0. -1.
        -14    1    4    4    0    0  0.21941483274E+00 -0.17371333828E+02  0.76695165132E+01  0.18990336105E+02  0.00000000000E+00 0.  1.
<mgrwt>
<rscale>  2 0.21104329E+03</rscale>
<asrwt>0</asrwt>
<pdfrwt beam="1">  1       21 0.20057676E-01 0.21148823E+03</pdfrwt>
<pdfrwt beam="2">  1       21 0.62121327E-01 0.21148823E+03</pdfrwt>
<totfact> 0.54711196E+04</totfact>
</mgrwt>
</event>
<event>
12    1  0.1029207E-001  0.2265904E+03  0.7546771E-02  0.1129274E+00
         21   -1    0    0  501  502  0.00000000000E+00  0.00000000000E+00  0.22043087793E+03  0.22043087793E+03  0.00000000000E+00 0.  1.
         21   -1    0    0  502  503 -0.00000000000E+00 -0.00000000000E+00 -0.37553367693E+03  0.37553367693E+03  0.00000000000E+00 0. -1.
         -6    2    1    2    0  503 -0.42123172652E+02 -0.13796237929E+03 -0.26208096240E+03  0.34645294841E+03  0.17474333989E+03 0.  0.
        -24    2    3    3    0    0  0.92406184809E+01 -0.10346937440E+03 -0.24390326318E+03  0.28179596754E+03  0.95545094403E+02 0.  0.
          6    2    1    2  501    0  0.42123172652E+02  0.13796237929E+03  0.10697816339E+03  0.24951160646E+03  0.17321586111E+03 0.  0.
         24    2    5    5    0    0  0.92114125570E+02  0.10696663498E+03  0.57741888915E+02  0.17266024171E+03  0.80935531153E+02 0.  0.
          5    1    5    5  501    0 -0.49990952919E+02  0.30995744310E+02  0.49236274479E+02  0.76851364747E+02  0.47000000000E+01 0. -1.
        -11    1    6    6    0    0  0.95501801390E+02  0.56639259975E+02  0.49425603698E+02  0.12153801932E+03  0.00000000000E+00 0.  1.
         12    1    6    6    0    0 -0.33876758193E+01  0.50327375002E+02  0.83162852169E+01  0.51122222388E+02  0.00000000000E+00 0. -1.
         -5    1    3    3    0  503 -0.51363791133E+02 -0.34493004889E+02 -0.18177699220E+02  0.64656980866E+02  0.47000000000E+01 0.  1.
         11    1    4    4    0    0 -0.25776495588E+02 -0.58961000966E+02 -0.55211026958E+02  0.84788471253E+02  0.00000000000E+00 0. -1.
        -12    1    4    4    0    0  0.35017114069E+02 -0.44508373433E+02 -0.18869223622E+03  0.19700749629E+03  0.00000000000E+00 0.  1.
<mgrwt>
<rscale>  2 0.22629587E+03</rscale>
<asrwt>0</asrwt>
<pdfrwt beam="1">  1       21 0.33912443E-01 0.22659041E+03</pdfrwt>
<pdfrwt beam="2">  1       21 0.57774412E-01 0.22659041E+03</pdfrwt>
<totfact> 0.23094447E+04</totfact>
</mgrwt>
</event>
<event>
12    1  0.1029207E-001  0.1894450E+03  0.7546771E-02  0.1159155E+00
         21   -1    0    0  503  502  0.00000000000E+00  0.00000000000E+00  0.25187436353E+02  0.25187436353E+02  0.00000000000E+00 0.  1.
         21   -1    0    0  501  503 -0.00000000000E+00 -0.00000000000E+00 -0.17680327026E+04  0.17680327026E+04  0.00000000000E+00 0.  1.
          6    2    1    2  501    0  0.76483529636E+02 -0.33359870835E+01 -0.12716414888E+04  0.12856755014E+04  0.17328750548E+03 0.  0.
         24    2    3    3    0    0  0.42866196223E+02  0.21692128969E+02 -0.11942617289E+04  0.11975491776E+04  0.74531176784E+02 0.  0.
         -6    2    1    2    0  502 -0.76483529636E+02  0.33359870835E+01 -0.47120377746E+03  0.50754463764E+03  0.17235921846E+03 0.  0.
        -24    2    5    5    0    0 -0.92744727991E+02  0.29098874672E+02 -0.21531432732E+03  0.24980513031E+03  0.81203537485E+02 0.  0.
          5    1    3    3  501    0  0.33617333413E+02 -0.25028116053E+02 -0.77379759908E+02  0.88126323777E+02  0.47000000000E+01 0. -1.
        -11    1    4    4    0    0  0.42805526892E+02 -0.43400798908E+01 -0.10548929689E+04  0.10557700154E+04  0.00000000000E+00 0.  1.
         12    1    4    4    0    0  0.60669330683E-01  0.26032208860E+02 -0.13936876000E+03  0.14177916223E+03  0.00000000000E+00 0. -1.
         -5    1    5    5    0  502  0.16261198354E+02 -0.25762887589E+02 -0.25588945014E+03  0.25773950733E+03  0.47000000000E+01 0.  1.
         13    1    6    6    0    0 -0.82349017616E+00 -0.18111082284E+02 -0.64393181390E+02  0.66896720749E+02  0.00000000000E+00 0. -1.
        -14    1    6    6    0    0 -0.91921237815E+02  0.47209956956E+02 -0.15092114593E+03  0.18290840956E+03  0.00000000000E+00 0.  1.
<mgrwt>
<rscale>  2 0.18923249E+03</rscale>
<asrwt>0</asrwt>
<pdfrwt beam="1">  1       21 0.38749905E-02 0.18944503E+03</pdfrwt>
<pdfrwt beam="2">  1       21 0.27200501E+00 0.18944503E+03</pdfrwt>
<totfact> 0.20514779E+04</totfact>
</mgrwt>
</event>
<event>
12    1  0.1029207E-001  0.2068255E+03  0.7546771E-02  0.1144216E+00
         21   -1    0    0  501  502  0.00000000000E+00  0.00000000000E+00  0.38495986525E+03  0.38495986525E+03  0.00000000000E+00 0. -1.
         21   -1    0    0  502  503 -0.00000000000E+00 -0.00000000000E+00 -0.11087873797E+03  0.11087873797E+03  0.00000000000E+00 0.  1.
         -6    2    1    2    0  503  0.10914286786E+03  0.29677875006E+02  0.13170052341E+03  0.24519747790E+03  0.17315840561E+03 0.  0.
        -24    2    3    3    0    0  0.71124641731E+01 -0.27993920963E+02  0.30397101818E+02  0.90211308994E+02  0.79873961427E+02 0.  0.
          6    2    1    2  501    0 -0.10914286786E+03 -0.29677875006E+02  0.14238060387E+03  0.25064112532E+03  0.17249868253E+03 0.  0.
         24    2    5    5    0    0  0.89809731593E+01 -0.12630549226E+02  0.90502057938E+02  0.12042082483E+03  0.77912540124E+02 0.  0.
          5    1    5    5  501    0 -0.11812384102E+03 -0.17047325779E+02  0.51878545928E+02  0.13022030049E+03  0.47000000000E+01 0. -1.
        -13    1    6    6    0    0 -0.23481047027E+02  0.10769343273E+02  0.54162390233E+01  0.26394582194E+02  0.00000000000E+00 0.  1.
         14    1    6    6    0    0  0.32462020186E+02 -0.23399892499E+02  0.85085818915E+02  0.94026242634E+02  0.00000000000E+00 0. -1.
         -5    1    3    3    0  503  0.10203040369E+03  0.57671795969E+02  0.10130342160E+03  0.15498616891E+03  0.47000000000E+01 0.  1.
         13    1    4    4    0    0  0.13409919861E+02 -0.54556403500E+02  0.28100422205E+02  0.62816087443E+02  0.00000000000E+00 0. -1.
        -14    1    4    4    0    0 -0.62974556879E+01  0.26562482536E+02  0.22966796130E+01  0.27395221552E+02  0.00000000000E+00 0.  1.
<mgrwt>
<rscale>  2 0.20668733E+03</rscale>
<asrwt>0</asrwt>
<pdfrwt beam="1">  1       21 0.59224594E-01 0.20682547E+03</pdfrwt>
<pdfrwt beam="2">  1       21 0.17058268E-01 0.20682547E+03</pdfrwt>
<totfact> 0.82101145E+04</totfact>
</mgrwt>
</event>
<event>
12    1  0.1029207E-001  0.2025153E+03  0.7546771E-02  0.1148041E+00
         21   -1    0    0  503  502  0.00000000000E+00  0.00000000000E+00  0.29154180248E+03  0.29154180248E+03  0.00000000000E+00 0.  1.
         21   -1    0    0  501  503 -0.00000000000E+00 -0.00000000000E+00 -0.18425016625E+03  0.18425016625E+03  0.00000000000E+00 0.  1.
          6    2    1    2  501    0 -0.15093406778E+02  0.10098888748E+03 -0.63631913788E+02  0.21227685525E+03  0.17488818285E+03 0.  0.
         24    2    3    3    0    0  0.16867819018E+02  0.78200136392E+02  0.30595643084E+02  0.11009187786E+03  0.69168949277E+02 0.  0.
         -6    2    1    2    0  502  0.15093406778E+02 -0.10098888748E+03  0.17092355001E+03  0.26351511348E+03  0.17262325672E+03 0.  0.
        -24    2    5    5    0    0 -0.14787766458E+02 -0.11018978787E+01  0.13155764760E+03  0.15197113346E+03  0.74618486625E+02 0.  0.
          5    1    3    3  501    0 -0.31961225796E+02  0.22788751091E+02 -0.94227556872E+02  0.10218497739E+03  0.47000000000E+01 0. -1.
        -13    1    4    4    0    0 -0.11705077999E+02  0.66756602534E+02  0.38987962336E+02  0.78188963671E+02  0.00000000000E+00 0.  1.
         14    1    4    4    0    0  0.28572897017E+02  0.11443533859E+02 -0.83923192518E+01  0.31902914186E+02  0.00000000000E+00 0. -1.
         -5    1    5    5    0  502  0.29881173236E+02 -0.99886989605E+02  0.39365902412E+02  0.11154398002E+03  0.47000000000E+01 0.  1.
         13    1    6    6    0    0  0.22354432008E+02 -0.20546055223E+02  0.32866600379E+02  0.44744546440E+02  0.00000000000E+00 0. -1.
        -14    1    6    6    0    0 -0.37142198466E+02  0.19444157344E+02  0.98691047220E+02  0.10722658702E+03  0.00000000000E+00 0.  1.
<mgrwt>
<rscale>  2 0.20202534E+03</rscale>
<asrwt>0</asrwt>
<pdfrwt beam="1">  1       21 0.44852585E-01 0.20251529E+03</pdfrwt>
<pdfrwt beam="2">  1       21 0.28346180E-01 0.20251529E+03</pdfrwt>
<totfact> 0.56493568E+04</totfact>
</mgrwt>
</event>
<event>
12    1  0.1029207E-001  0.2120246E+03  0.7546771E-02  0.1140195E+00
         21   -1    0    0  501  502  0.00000000000E+00  0.00000000000E+00  0.42227949263E+02  0.42227949263E+02  0.00000000000E+00 0.  1.
         21   -1    0    0  502  503 -0.00000000000E+00 -0.00000000000E+00 -0.11683909183E+04  0.11683909183E+04  0.00000000000E+00 0.  1.
         -6    2    1    2    0  503 -0.11672208327E+03 -0.35467039124E+02 -0.74976412652E+03  0.77916665237E+03  0.17341416076E+03 0.  0.
        -24    2    3    3    0    0  0.29799108440E+01 -0.39659021450E+02 -0.26232906250E+03  0.27720931180E+03  0.80291641312E+02 0.  0.
          6    2    1    2  501    0  0.11672208327E+03  0.35467039124E+02 -0.37639884247E+03  0.43145221515E+03  0.17202607291E+03 0.  0.
         24    2    5    5    0    0  0.11987696420E+03  0.26777806408E+01 -0.17279859357E+03  0.22515088191E+03  0.80348669128E+02 0.  0.
          5    1    5    5  501    0 -0.31548809238E+01  0.32789258483E+02 -0.20360024890E+03  0.20630133324E+03  0.47000000000E+01 0. -1.
        -13    1    6    6    0    0  0.16812675159E+02  0.32399220775E+02 -0.52939539371E+02  0.64303735363E+02  0.00000000000E+00 0.  1.
         14    1    6    6    0    0  0.10306428904E+03 -0.29721440135E+02 -0.11985905420E+03  0.16084714654E+03  0.00000000000E+00 0. -1.
         -5    1    3    3    0  503 -0.11970199412E+03  0.41919823254E+01 -0.48743506402E+03  0.50195734057E+03  0.47000000000E+01 0.  1.
         13    1    4    4    0    0  0.18203019480E+02 -0.48343501093E+02 -0.88301858950E+02  0.10230181968E+03  0.00000000000E+00 0. -1.
        -14    1    4    4    0    0 -0.15223108636E+02  0.86844796433E+01 -0.17402720355E+03  0.17490749212E+03  0.00000000000E+00 0.  1.
<mgrwt>
<rscale>  2 0.21174057E+03</rscale>
<asrwt>0</asrwt>
<pdfrwt beam="1">  1       21 0.64966079E-02 0.21202459E+03</pdfrwt>
<pdfrwt beam="2">  1       21 0.17975244E+00 0.21202459E+03</pdfrwt>
<totfact> 0.31025281E+04</totfact>
</mgrwt>
</event>
<event>
12    1  0.1029207E-001  0.1959270E+03  0.7546771E-02  0.1153261E+00
         21   -1    0    0  503  502  0.00000000000E+00  0.00000000000E+00  0.78184980511E+02  0.78184980511E+02  0.00000000000E+00 0.  1.
         21   -1    0    0  501  503 -0.00000000000E+00 -0.00000000000E+00 -0.16146381516E+04  0.16146381516E+04  0.00000000000E+00 0. -1.
          6    2    1    2  501    0 -0.68287753617E+02  0.61800538563E+02 -0.14743522029E+04  0.14872898285E+04  0.17272548155E+03 0.  0.
         24    2    3    3    0    0  0.42325708990E+01 -0.23466212343E+02 -0.67631165693E+03  0.68142357455E+03  0.79825139400E+02 0.  0.
         -6    2    1    2    0  502  0.68287753617E+02 -0.61800538563E+02 -0.62100968187E+02  0.20553330358E+03  0.17293028876E+03 0.  0.
        -24    2    5    5    0    0  0.18631168178E+02 -0.10167731772E+03 -0.32239160694E+02  0.13503683885E+03  0.80685729818E+02 0.  0.
          5    1    3    3  501    0 -0.72520324516E+02  0.85266750906E+02 -0.79804054593E+03  0.80586625393E+03  0.47000000000E+01 0. -1.
        -11    1    4    4    0    0 -0.34253343520E+02  0.16023711215E+00 -0.19385684178E+03  0.19685982912E+03  0.00000000000E+00 0.  1.
         12    1    4    4    0    0  0.38485914419E+02 -0.23626449455E+02 -0.48245481515E+03  0.48456374543E+03  0.00000000000E+00 0. -1.
         -5    1    5    5    0  502  0.49656585439E+02  0.39876779161E+02 -0.29861807493E+02  0.70496464737E+02  0.47000000000E+01 0.  1.
         11    1    6    6    0    0  0.16027597940E+01  0.13978560337E+02 -0.14311479664E+01  0.14142742752E+02  0.00000000000E+00 0. -1.
        -12    1    6    6    0    0  0.17028408384E+02 -0.11565587806E+03 -0.30808012728E+02  0.12089409609E+03  0.00000000000E+00 0.  1.
<mgrwt>
<rscale>  2 0.19588185E+03</rscale>
<asrwt>0</asrwt>
<pdfrwt beam="1">  1       21 0.12028458E-01 0.19592705E+03</pdfrwt>
<pdfrwt beam="2">  1       21 0.24840588E+00 0.19592705E+03</pdfrwt>
<totfact> 0.39566262E+03</totfact>
</mgrwt>
</event>
<event>
12    1  0.1029207E-001  0.2081686E+03  0.7546771E-02  0.1143392E+00
         21   -1    0    0  501  502  0.00000000000E+00  0.00000000000E+00  0.26606798636E+03  0.26606798636E+03  0.00000000000E+00 0.  1.
         21   -1    0    0  502  503 -0.00000000000E+00 -0.00000000000E+00 -0.35163364199E+03  0.35163364199E+03  0.00000000000E+00 0.  1.
         -6    2    1    2    0  503  0.11035981993E+03 -0.14061270741E+02 -0.26983736705E+03  0.33969042367E+03  0.17378253677E+03 0.  0.
        -24    2    3    3    0    0  0.33702546086E+02 -0.56639147889E+02 -0.86776051911E+02  0.13665656355E+03  0.82468651551E+02 0.  0.
          6    2    1    2  501    0 -0.11035981993E+03  0.14061270741E+02  0.18427171142E+03  0.27801120468E+03  0.17594646092E+03 0.  0.
         24    2    5    5    0    0 -0.12845270851E+03  0.55695360556E+02  0.15696398660E+03  0.22482707278E+03  0.79419443800E+02 0.  0.
          5    1    5    5  501    0  0.18092888579E+02 -0.41634089815E+02  0.27307724822E+02  0.53184131908E+02  0.47000000000E+01 0. -1.
        -11    1    6    6    0    0 -0.79224905162E+02 -0.57227068938E+01  0.99780671969E+02  0.12753633784E+03  0.00000000000E+00 0.  1.
         12    1    6    6    0    0 -0.49227803345E+02  0.61418067450E+02  0.57183314632E+02  0.97290734932E+02  0.00000000000E+00 0. -1.
         -5    1    3    3    0  503  0.76657273841E+02  0.42577877148E+02 -0.18306131514E+03  0.20303386013E+03  0.47000000000E+01 0.  1.
         11    1    4    4    0    0  0.36535825909E+01 -0.14075103461E+02 -0.83167891887E+02  0.84429588677E+02  0.00000000000E+00 0. -1.
        -12    1    4    4    0    0  0.30048963496E+02 -0.42564044428E+02 -0.36081600232E+01  0.52226974869E+02  0.00000000000E+00 0.  1.
<mgrwt>
<rscale>  2 0.20771066E+03</rscale>
<asrwt>0</asrwt>
<pdfrwt beam="1">  1       21 0.40933537E-01 0.20816860E+03</pdfrwt>
<pdfrwt beam="2">  1       21 0.54097483E-01 0.20816860E+03</pdfrwt>
<totfact> 0.18395284E+04</totfact>
</mgrwt>
</event>
<event>
11    1  0.1029207E-001  0.1840644E+03  0.7546771E-02  0.1165551E+00
         21   -1    0    0  503  502  0.00000000000E+00  0.00000000000E+00  0.14421772505E+04  0.14421772505E+04  0.00000000000E+00 0.  1.
         21   -1    0    0  501  503 -0.00000000000E+00 -0.00000000000E+00 -0.37640346390E+02  0.37640346390E+02  0.00000000000E+00 0.  1.
          6    2    1    2  501    0  0.55801614167E+02 -0.22277911940E+02  0.22723622390E+03  0.28821506793E+03  0.16679777703E+03 0.  0.
         24    2    3    3    0    0 -0.25599369372E+02 -0.21789540582E+02  0.16317253633E+03  0.18452030097E+03  0.79324353561E+02 0.  0.
         -6    2    1    2    0  502 -0.55801614167E+02  0.22277911940E+02  0.11773006802E+04  0.11916025290E+04  0.17398152177E+03 0.  0.
          5    1    3    3  501    0  0.81400983539E+02 -0.48837135733E+00  0.64063687573E+02  0.10369476695E+03  0.47000000000E+01 0. -1.
        -11    1    4    4    0    0 -0.40057043747E+02  0.17851108464E+02  0.78619799455E+02  0.90023895125E+02  0.00000000000E+00 0.  1.
         12    1    4    4    0    0  0.14457674375E+02 -0.39640649047E+02  0.84552736876E+02  0.94496405849E+02  0.00000000000E+00 0. -1.
         -5    1    5    5    0  502 -0.12252538929E+02 -0.39860764962E+02  0.90051941958E+03  0.90149671122E+03  0.47000000000E+01 0.  1.
         13    1    5    5    0    0 -0.37575784816E+02  0.29550155279E+02  0.21224731039E+03  0.21756394933E+03  0.00000000000E+00 0. -1.
        -14    1    5    5    0    0 -0.59732904214E+01  0.32588521623E+02  0.64533950238E+02  0.72541868417E+02  0.00000000000E+00 0.  1.
<mgrwt>
<rscale>  2 0.18234681E+03</rscale>
<asrwt>0</asrwt>
<pdfrwt beam="1">  1       21 0.22187338E+00 0.18406438E+03</pdfrwt>
<pdfrwt beam="2">  1       21 0.57908236E-02 0.18406438E+03</pdfrwt>
<totfact> 0.20670650E+04</totfact>
</mgrwt>
</event>
<event>
12    1  0.1029207E-001  0.1853825E+03  0.7546771E-02  0.1162862E+00
         21   -1    0    0  503  502  0.00000000000E+00  0.00000000000E+00  0.84789924263E+03  0.84789924263E+03  0.00000000000E+00 0.  1.
         21   -1    0    0  501  503 -0.00000000000E+00 -0.00000000000E+00 -0.46683930243E+02  0.46683930243E+02  0.00000000000E+00 0.  1.
          6    2    1    2  501    0  0.61495073738E+02 -0.23464293768E+02  0.23547593073E+03  0.29924485336E+03  0.17252927616E+03 0.  0.
         24    2    3    3    0    0  0.64128211692E+02 -0.12980805419E+02  0.66614315311E+02  0.12997237448E+03  0.90412511744E+02 0.  0.
         -6    2    1    2    0  502 -0.61495073738E+02  0.23464293768E+02  0.56573938166E+03  0.59533831951E+03  0.17330449950E+03 0.  0.
        -24    2    5    5    0    0 -0.25215400889E+02  0.45664213897E+02  0.53244417350E+03  0.54111920848E+03  0.81192136385E+02 0.  0.
          5    1    3    3  501    0 -0.26331379548E+01 -0.10483488349E+02  0.16886161542E+03  0.16927247888E+03  0.47000000000E+01 0. -1.
        -13    1    4    4    0    0 -0.15408434400E+02  0.19613991398E+02  0.21318192080E+02  0.32811489189E+02  0.00000000000E+00 0.  1.
         14    1    4    4    0    0  0.79536646092E+02 -0.32594796817E+02  0.45296123231E+02  0.97160885293E+02  0.00000000000E+00 0. -1.
         -5    1    5    5    0  502 -0.36279672848E+02 -0.22199920129E+02  0.33295208153E+02  0.54219111037E+02  0.47000000000E+01 0.  1.
         13    1    6    6    0    0 -0.19630193868E+02  0.36956383556E+02  0.98106500269E+02  0.10665835266E+03  0.00000000000E+00 0. -1.
        -14    1    6    6    0    0 -0.55852070216E+01  0.87078303414E+01  0.43433767323E+03  0.43446085582E+03  0.00000000000E+00 0.  1.
<mgrwt>
<rscale>  2 0.18520109E+03</rscale>
<asrwt>0</asrwt>
<pdfrwt beam="1">  1       21 0.13044603E+00 0.18538249E+03</pdfrwt>
<pdfrwt beam="2">  1       21 0.71821438E-02 0.18538249E+03</pdfrwt>
<totfact> 0.62233936E+04</totfact>
</mgrwt>
</event>
<event>
12    1  0.1029207E-001  0.1945501E+03  0.7546771E-02  0.1154736E+00
         21   -1    0    0  503  502  0.00000000000E+00  0.00000000000E+00  0.14035008749E+04  0.14035008749E+04  0.00000000000E+00 0.  1.
         21   -1    0    0  501  503 -0.00000000000E+00 -0.00000000000E+00 -0.29442919826E+02  0.29442919826E+02  0.00000000000E+00 0.  1.
          6    2    1    2  501    0  0.78817060899E+02  0.42032890400E+02  0.46881225948E+03  0.50702830423E+03  0.17121294836E+03 0.  0.
         24    2    3    3    0    0  0.69781031004E+02  0.75880970856E+02  0.44784799257E+03  0.46593167573E+03  0.76793150571E+02 0.  0.
         -6    2    1    2    0  502 -0.78817060899E+02 -0.42032890400E+02  0.90524569564E+03  0.92591549054E+03  0.17283180607E+03 0.  0.
        -24    2    5    5    0    0 -0.42806860255E+01 -0.59115241851E+02  0.32258213604E+03  0.33823667384E+03  0.82655168920E+02 0.  0.
          5    1    3    3  501    0  0.90360298950E+01 -0.33848080456E+02  0.20964266911E+02  0.41096628498E+02  0.47000000000E+01 0. -1.
        -11    1    4    4    0    0  0.31227356700E+02  0.47676730505E+02  0.10236146133E+03  0.11715838512E+03  0.00000000000E+00 0.  1.
         12    1    4    4    0    0  0.38553674304E+02  0.28204240352E+02  0.34548653124E+03  0.34877329061E+03  0.00000000000E+00 0. -1.
         -5    1    5    5    0  502 -0.74536374873E+02  0.17082351450E+02  0.58266355960E+03  0.58767881670E+03  0.47000000000E+01 0.  1.
         11    1    6    6    0    0 -0.30570876656E+02 -0.64692345112E+02  0.26813841329E+03  0.27752096623E+03  0.00000000000E+00 0. -1.
        -12    1    6    6    0    0  0.26290190630E+02  0.55771032615E+01  0.54443722743E+02  0.60715707608E+02  0.00000000000E+00 0.  1.
<mgrwt>
<rscale>  2 0.19418988E+03</rscale>
<asrwt>0</asrwt>
<pdfrwt beam="1">  1       21 0.21592316E+00 0.19455006E+03</pdfrwt>
<pdfrwt beam="2">  1       21 0.45296811E-02 0.19455006E+03</pdfrwt>
<totfact> 0.33838104E+04</totfact>
</mgrwt>
</event>
<event>
12    1  0.1029207E-001  0.2014751E+03  0.7546771E-02  0.1149340E+00
         21   -1    0    0  503  502  0.00000000000E+00  0.00000000000E+00  0.22443884369E+04  0.22443884369E+04  0.00000000000E+00 0.  1.
         21   -1    0    0  501  503 -0.00000000000E+00 -0.00000000000E+00 -0.17747197169E+02  0.17747197169E+02  0.00000000000E+00 0.  1.
          6    2    1    2  501    0  0.84809497116E+02 -0.57931012126E+02  0.11365265871E+04  0.11535589904E+04  0.16869205159E+03 0.  0.
         24    2    3    3    0    0  0.12049723083E+03 -0.58895616466E+02  0.10028776439E+04  0.10151441256E+04  0.82254183856E+02 0.  0.
         -6    2    1    2    0  502 -0.84809497116E+02  0.57931012126E+02  0.10901146526E+04  0.11085766436E+04  0.17333079921E+03 0.  0.
        -24    2    5    5    0    0 -0.21509900043E+02  0.23222979493E+02  0.91616587874E+03  0.92018409479E+03  0.79855296416E+02 0.  0.
          5    1    3    3  501    0 -0.35687733709E+02  0.96460433929E+00  0.13364894315E+03  0.13841486482E+03  0.47000000000E+01 0. -1.
        -13    1    4    4    0    0  0.60802495961E+02 -0.23805248489E+02  0.75372945513E+03  0.75655252620E+03  0.00000000000E+00 0.  1.
         14    1    4    4    0    0  0.59694734864E+02 -0.35090367976E+02  0.24914818880E+03  0.25859159939E+03  0.00000000000E+00 0. -1.
         -5    1    5    5    0  502 -0.63299597074E+02  0.34708032634E+02  0.17394877387E+03  0.18839254882E+03  0.47000000000E+01 0.  1.
         13    1    6    6    0    0 -0.26197767296E+02 -0.19724122805E+02  0.62187956602E+03  0.62274357377E+03  0.00000000000E+00 0. -1.
        -14    1    6    6    0    0  0.46878672532E+01  0.42947102298E+02  0.29428631272E+03  0.29744052103E+03  0.00000000000E+00 0.  1.
<mgrwt>
<rscale>  2 0.20047351E+03</rscale>
<asrwt>0</asrwt>
<pdfrwt beam="1">  1       21 0.34529030E+00 0.20147511E+03</pdfrwt>
<pdfrwt beam="2">  1       21 0.27303398E-02 0.20147511E+03</pdfrwt>
<totfact> 0.13643674E+04</totfact>
</mgrwt>
</event>
<event>
12    1  0.1029207E-001  0.2357276E+03  0.7546771E-02  0.1122758E+00
         21   -1    0    0  503  502  0.00000000000E+00  0.00000000000E+00  0.19312519386E+03  0.19312519386E+03  0.00000000000E+00 0. -1.
         21   -1    0    0  501  503 -0.00000000000E+00 -0.00000000000E+00 -0.57458859504E+03  0.57458859504E+03  0.00000000000E+00 0.  1.
          6    2    1    2  501    0  0.15430156728E+03 -0.42019057678E+02 -0.46214280000E+03  0.51856192504E+03  0.17249906561E+03 0.  0.
         24    2    3    3    0    0  0.51460426479E+02  0.13216988425E+02 -0.32571219037E+03  0.33894365684E+03  0.77275528306E+02 0.  0.
         -6    2    1    2    0  502 -0.15430156728E+03  0.42019057678E+02  0.80679398817E+02  0.24915186386E+03  0.17318461536E+03 0.  0.
        -24    2    5    5    0    0 -0.70098271745E+01  0.36551047802E+02  0.25430385369E+02  0.91673931051E+02  0.79826614371E+02 0.  0.
          5    1    3    3  501    0  0.10284114080E+03 -0.55236046102E+02 -0.13643060962E+03  0.17961826820E+03  0.47000000000E+01 0. -1.
        -11    1    4    4    0    0  0.56285156893E+01 -0.23272806950E+02 -0.18471026667E+03  0.18625570151E+03  0.00000000000E+00 0.  1.
         12    1    4    4    0    0  0.45831910789E+02  0.36489795375E+02 -0.14100192370E+03  0.15268795533E+03  0.00000000000E+00 0. -1.
         -5    1    5    5    0  502 -0.14729174010E+03  0.54680098755E+01  0.55249013448E+02  0.15747793281E+03  0.47000000000E+01 0.  1.
         13    1    6    6    0    0  0.14960906160E+02  0.45724429782E+02  0.41013173084E+02  0.63218925635E+02  0.00000000000E+00 0. -1.
        -14    1    6    6    0    0 -0.21970733335E+02 -0.91733819796E+01 -0.15582787716E+02  0.28455005416E+02  0.00000000000E+00 0.  1.
<mgrwt>
<rscale>  2 0.23560167E+03</rscale>
<asrwt>0</asrwt>
<pdfrwt beam="1">  1       21 0.29711569E-01 0.23572757E+03</pdfrwt>
<pdfrwt beam="2">  1       21 0.88398244E-01 0.23572757E+03</pdfrwt>
<totfact> 0.11569580E+04</totfact>
</mgrwt>
</event>
<event>
12    1  0.1029207E-001  0.1750738E+03  0.7546771E-02  0.1173977E+00
         21   -1    0    0  501  502  0.00000000000E+00  0.00000000000E+00  0.61488624709E+03  0.61488624709E+03  0.00000000000E+00 0.  1.
         21   -1    0    0  502  503 -0.00000000000E+00 -0.00000000000E+00 -0.53266439844E+02  0.53266439844E+02  0.00000000000E+00 0.  1.
         -6    2    1    2    0  503 -0.16910014904E+02 -0.21552166825E+02  0.17587130330E+03  0.24453407750E+03  0.16767753349E+03 0.  0.
        -24    2    3    3    0    0 -0.57202019982E+02 -0.78983523789E+01  0.17542414338E+03  0.20173031278E+03  0.81160544327E+02 0.  0.
          6    2    1    2  501    0  0.16910014904E+02  0.21552166825E+02  0.38574850395E+03  0.42361860944E+03  0.17291724455E+03 0.  0.
         24    2    5    5    0    0  0.35359786359E+02  0.25522760000E+02  0.96984429302E+02  0.13420032998E+03  0.81865885873E+02 0.  0.
          5    1    5    5  501    0 -0.18449771455E+02 -0.39705931746E+01  0.28876407465E+03  0.28941827946E+03  0.47000000000E+01 0. -1.
        -11    1    6    6    0    0 -0.10599389756E+02  0.36601261481E+02  0.17986076474E+02  0.42136662803E+02  0.00000000000E+00 0.  1.
         12    1    6    6    0    0  0.45959176115E+02 -0.11078501481E+02  0.78998352828E+02  0.92063667175E+02  0.00000000000E+00 0. -1.
         -5    1    3    3    0  503  0.40292005078E+02 -0.13653814446E+02  0.44715992028E+00  0.42803764719E+02  0.47000000000E+01 0.  1.
         13    1    4    4    0    0 -0.13739382423E+02  0.35544594623E+02  0.64136217727E+02  0.74603238941E+02  0.00000000000E+00 0. -1.
        -14    1    4    4    0    0 -0.43462637559E+02 -0.43442947002E+02  0.11128792565E+03  0.12712707384E+03  0.00000000000E+00 0.  1.
<mgrwt>
<rscale>  2 0.17376587E+03</rscale>
<asrwt>0</asrwt>
<pdfrwt beam="1">  1       21 0.94597879E-01 0.17507375E+03</pdfrwt>
<pdfrwt beam="2">  1       21 0.81948373E-02 0.17507375E+03</pdfrwt>
<totfact> 0.10842258E+05</totfact>
</mgrwt>
</event>
<event>
12    1  0.1029207E-001  0.1781359E+03  0.7546771E-02  0.1169717E+00
         21   -1    0    0  501  502  0.00000000000E+00  0.00000000000E+00  0.29034937477E+03  0.29034937477E+03  0.00000000000E+00 0.  1.
         21   -1    0    0  502  503 -0.00000000000E+00 -0.00000000000E+00 -0.31321208857E+03  0.31321208857E+03  0.00000000000E+00 0.  1.
         -6    2    1    2    0  503 -0.28528049457E+02 -0.29004058135E+02 -0.25508363184E+03  0.31112710157E+03  0.17342816698E+03 0.  0.
        -24    2    3    3    0    0 -0.29461331290E+01  0.58288673452E+02 -0.10500625359E+03  0.13557151238E+03  0.62825731383E+02 0.  0.
          6    2    1    2  501    0  0.28528049457E+02  0.29004058135E+02  0.23222091804E+03  0.29243436178E+03  0.17302085475E+03 0.  0.
         24    2    5    5    0    0  0.99370319350E+01  0.84955192750E+02  0.16660714247E+03  0.20409743325E+03  0.81127633747E+02 0.  0.
          5    1    5    5  501    0  0.18591017522E+02 -0.55951134615E+02  0.65613775571E+02  0.88336928529E+02  0.47000000000E+01 0. -1.
        -13    1    6    6    0    0 -0.46613941032E+01  0.24472103190E+02  0.12902526312E+03  0.13140826059E+03  0.00000000000E+00 0.  1.
         14    1    6    6    0    0  0.14598426038E+02  0.60483089560E+02  0.37581879352E+02  0.72689172654E+02  0.00000000000E+00 0. -1.
         -5    1    3    3    0  503 -0.25581916328E+02 -0.87292731588E+02 -0.15007737825E+03  0.17555558919E+03  0.47000000000E+01 0.  1.
         11    1    4    4    0    0  0.13889061632E+02  0.58366564029E+02 -0.10219251366E+03  0.11850262308E+03  0.00000000000E+00 0. -1.
        -12    1    4    4    0    0 -0.16835194761E+02 -0.77890576822E-01 -0.28137399308E+01  0.17068889301E+02  0.00000000000E+00 0.  1.
<mgrwt>
<rscale>  2 0.17803673E+03</rscale>
<asrwt>0</asrwt>
<pdfrwt beam="1">  1       21 0.44669135E-01 0.17813594E+03</pdfrwt>
<pdfrwt beam="2">  1       21 0.48186475E-01 0.17813594E+03</pdfrwt>
<totfact> 0.19968512E+04</totfact>
</mgrwt>
</event>
<event>
12    1  0.1029207E-001  0.1771783E+03  0.7546771E-02  0.1170891E+00
         21   -1    0    0  503  502  0.00000000000E+00  0.00000000000E+00  0.10211167979E+03  0.10211167979E+03  0.00000000000E+00 0.  1.
         21   -1    0    0  501  503 -0.00000000000E+00 -0.00000000000E+00 -0.30527389115E+03  0.30527389115E+03  0.00000000000E+00 0.  1.
          6    2    1    2  501    0  0.15639348335E+02  0.36767722972E+02 -0.10638625693E+03  0.20666443205E+03  0.17261430167E+03 0.  0.
         24    2    3    3    0    0 -0.19521747594E+02 -0.39954599370E+02 -0.40425486305E+02  0.99447219463E+02  0.79234215312E+02 0.  0.
         -6    2    1    2    0  502 -0.15639348335E+02 -0.36767722972E+02 -0.96775954426E+02  0.20072113889E+03  0.17125108926E+03 0.  0.
        -24    2    5    5    0    0  0.20365690023E+02 -0.49970821928E+02  0.63227604736E+00  0.95930213839E+02  0.79311801013E+02 0.  0.
          5    1    3    3  501    0  0.35161095928E+02  0.76722322341E+02 -0.65960770629E+02  0.10721721258E+03  0.47000000000E+01 0. -1.
        -11    1    4    4    0    0 -0.24318912240E+01 -0.16818668982E+02 -0.61490294646E+02  0.63795282404E+02  0.00000000000E+00 0.  1.
         12    1    4    4    0    0 -0.17089856370E+02 -0.23135930387E+02  0.21064808342E+02  0.35651937060E+02  0.00000000000E+00 0. -1.
         -5    1    5    5    0  502 -0.36005038358E+02  0.13203098956E+02 -0.97408230474E+02  0.10479092505E+03  0.47000000000E+01 0.  1.
         13    1    6    6    0    0  0.24491971311E+02 -0.76742379923E+01 -0.32949312871E+02  0.41766108343E+02  0.00000000000E+00 0. -1.
        -14    1    6    6    0    0 -0.41262812875E+01 -0.42296583936E+02  0.33581588919E+02  0.54164105496E+02  0.00000000000E+00 0.  1.
<mgrwt>
<rscale>  2 0.17684541E+03</rscale>
<asrwt>0</asrwt>
<pdfrwt beam="1">  1       21 0.15709489E-01 0.17717831E+03</pdfrwt>
<pdfrwt beam="2">  1       21 0.46965214E-01 0.17717831E+03</pdfrwt>
<totfact> 0.15723535E+05</totfact>
</mgrwt>
</event>
<event>
12    1  0.1029207E-001  0.2181969E+03  0.7546771E-02  0.1135290E+00
         21   -1    0    0  501  502  0.00000000000E+00  0.00000000000E+00  0.82704633521E+03  0.82704633521E+03  0.00000000000E+00 0.  1.
         21   -1    0    0  502  503 -0.00000000000E+00 -0.00000000000E+00 -0.61335456787E+02  0.61335456787E+02  0.00000000000E+00 0.  1.
         -6    2    1    2    0  503 -0.12598255163E+03 -0.39108927826E+02  0.27185563484E+03  0.34859056634E+03  0.17380674670E+03 0.  0.
        -24    2    3    3    0    0 -0.93569672363E+02 -0.88333645006E+02  0.23270625034E+03  0.27767912981E+03  0.79971143299E+02 0.  0.
          6    2    1    2  501    0  0.12598255163E+03  0.39108927826E+02  0.49385524358E+03  0.53979122565E+03  0.17343717631E+03 0.  0.
         24    2    5    5    0    0  0.13623001913E+03 -0.16234877734E+02  0.33027900259E+03  0.36673856309E+03  0.81183525031E+02 0.  0.
          5    1    5    5  501    0 -0.10247467500E+02  0.55343805559E+02  0.16357624100E+03  0.17305266257E+03  0.47000000000E+01 0. -1.
        -11    1    6    6    0    0  0.63053291479E+02 -0.18480739256E+02  0.24821387292E+03  0.25676328009E+03  0.00000000000E+00 0.  1.
         12    1    6    6    0    0  0.73176727651E+02  0.22458615227E+01  0.82065129666E+02  0.10997528300E+03  0.00000000000E+00 0. -1.
         -5    1    3    3    0  503 -0.32412879267E+02  0.49224717180E+02  0.39149384499E+02  0.70911436528E+02  0.47000000000E+01 0.  1.
         13    1    4    4    0    0 -0.34320241774E+02 -0.56649062342E+02  0.49933681549E+02  0.82947982572E+02  0.00000000000E+00 0. -1.
        -14    1    4    4    0    0 -0.59249430588E+02 -0.31684582663E+02  0.18277256879E+03  0.19473114724E+03  0.00000000000E+00 0.  1.
<mgrwt>
<rscale>  2 0.21812332E+03</rscale>
<asrwt>0</asrwt>
<pdfrwt beam="1">  1       21 0.12723789E+00 0.21819692E+03</pdfrwt>
<pdfrwt beam="2">  1       21 0.94362247E-02 0.21819692E+03</pdfrwt>
<totfact> 0.40441231E+04</totfact>
</mgrwt>
</event>
<event>
12    1  0.1029207E-001  0.2135879E+03  0.7546771E-02  0.1139047E+00
         21   -1    0    0  501  502  0.00000000000E+00  0.00000000000E+00  0.91250343884E+03  0.91250343884E+03  0.00000000000E+00 0. -1.
         21   -1    0    0  502  503 -0.00000000000E+00 -0.00000000000E+00 -0.64241013531E+02  0.64241013531E+02  0.00000000000E+00 0.  1.
         -6    2    1    2    0  503  0.11484165516E+03  0.48920590109E+02  0.19249259391E+03  0.28752946671E+03  0.17331464342E+03 0.  0.
        -24    2    3    3    0    0  0.26106907626E+02  0.68276940804E+02  0.49612962073E+02  0.11816240107E+03  0.78470349489E+02 0.  0.
          6    2    1    2  501    0 -0.11484165516E+03 -0.48920590109E+02  0.65576983140E+03  0.68921498566E+03  0.17146834922E+03 0.  0.
         24    2    5    5    0    0 -0.69025298127E+02 -0.13310249064E+02  0.60230760096E+03  0.61017363544E+03  0.67792069589E+02 0.  0.
          5    1    5    5  501    0 -0.45816357031E+02 -0.35610341045E+02  0.53462230442E+02  0.79041350221E+02  0.47000000000E+01 0. -1.
        -13    1    6    6    0    0 -0.45705626303E+02  0.23702372769E+02  0.39181304163E+03  0.39518130819E+03  0.00000000000E+00 0.  1.
         14    1    6    6    0    0 -0.23319671825E+02 -0.37012621833E+02  0.21049455933E+03  0.21499232725E+03  0.00000000000E+00 0. -1.
         -5    1    3    3    0  503  0.88734747532E+02 -0.19356350695E+02  0.14287963184E+03  0.16936706565E+03  0.47000000000E+01 0.  1.
         11    1    4    4    0    0 -0.27271972217E+02  0.21649599620E+02  0.25999737771E+02  0.43456322860E+02  0.00000000000E+00 0. -1.
        -12    1    4    4    0    0  0.53378879843E+02  0.46627341185E+02  0.23613224301E+02  0.74706078207E+02  0.00000000000E+00 0.  1.
<mgrwt>
<rscale>  2 0.21321307E+03</rscale>
<asrwt>0</asrwt>
<pdfrwt beam="1">  1       21 0.14038513E+00 0.21358791E+03</pdfrwt>
<pdfrwt beam="2">  1       21 0.98832335E-02 0.21358791E+03</pdfrwt>
<totfact> 0.29063458E+04</totfact>
</mgrwt>
</event>
<event>
12    1  0.1029207E-001  0.2026080E+03  0.7546771E-02  0.1147934E+00
         21   -1    0    0  501  502  0.00000000000E+00  0.00000000000E+00  0.46707739035E+03  0.46707739035E+03  0.00000000000E+00 0.  1.
         21   -1    0    0  502  503 -0.00000000000E+00 -0.00000000000E+00 -0.94717042858E+02  0.94717042858E+02  0.00000000000E+00 0. -1.
         -6    2    1    2    0  503 -0.98586612663E+02 -0.22106181988E+02  0.10578106079E+03  0.22695940038E+03  0.17353078436E+03 0.  0.
        -24    2    3    3    0    0 -0.11374862362E+03  0.30651005988E+02  0.57466270550E+02  0.15368173383E+03  0.80233842724E+02 0.  0.
          6    2    1    2  501    0  0.98586612663E+02  0.22106181988E+02  0.26657928671E+03  0.33483503283E+03  0.17561884759E+03 0.  0.
         24    2    5    5    0    0  0.11916392449E+03 -0.25870060614E+02  0.21858972514E+03  0.26377003697E+03  0.83209756227E+02 0.  0.
          5    1    5    5  501    0 -0.20577311831E+02  0.47976242602E+02  0.47989561565E+02  0.71064995853E+02  0.47000000000E+01 0. -1.
        -13    1    6    6    0    0  0.77758720222E+02 -0.80469882908E+01  0.20049394610E+03  0.21519524859E+03  0.00000000000E+00 0.  1.
         14    1    6    6    0    0  0.41405204272E+02 -0.17823072323E+02  0.18095779040E+02  0.48574788387E+02  0.00000000000E+00 0. -1.
         -5    1    3    3    0  503  0.15162010959E+02 -0.52757187976E+02  0.48314790236E+02  0.73277666550E+02  0.47000000000E+01 0.  1.
         11    1    4    4    0    0 -0.56799420484E+02  0.55053542954E+02  0.43097023434E+02  0.90080076532E+02  0.00000000000E+00 0. -1.
        -12    1    4    4    0    0 -0.56949203137E+02 -0.24402536966E+02  0.14369247116E+02  0.63601657298E+02  0.00000000000E+00 0.  1.
<mgrwt>
<rscale>  2 0.20215463E+03</rscale>
<asrwt>0</asrwt>
<pdfrwt beam="1">  1       21 0.71858059E-01 0.20260795E+03</pdfrwt>
<pdfrwt beam="2">  1       21 0.14571853E-01 0.20260795E+03</pdfrwt>
<totfact> 0.71982203E+04</totfact>
</mgrwt>
</event>
<event>
12    1  0.1029207E-001  0.2389942E+03  0.7546771E-02  0.1120579E+00
         21   -1    0    0  501  502  0.00000000000E+00  0.00000000000E+00  0.58211026177E+03  0.58211026177E+03  0.00000000000E+00 0.  1.
         21   -1    0    0  502  503 -0.00000000000E+00 -0.00000000000E+00 -0.99373563740E+02  0.99373563740E+02  0.00000000000E+00 0.  1.
         -6    2    1    2    0  503 -0.92009274189E+02  0.13623330145E+03  0.19875112032E+03  0.31031534861E+03  0.17253518131E+03 0.  0.
        -24    2    3    3    0    0 -0.58373534351E+02  0.12264582027E+02  0.13454983435E+03  0.16663688289E+03  0.78142839277E+02 0.  0.
          6    2    1    2  501    0  0.92009274189E+02 -0.13623330145E+03  0.28398557771E+03  0.37116847690E+03  0.17347337241E+03 0.  0.
         24    2    5    5    0    0  0.72441186843E+02 -0.15280250531E+03  0.16307664614E+03  0.24748133815E+03  0.77824732815E+02 0.  0.
          5    1    5    5  501    0  0.19568087346E+02  0.16569203852E+02  0.12090893157E+03  0.12368713875E+03  0.47000000000E+01 0. -1.
        -11    1    6    6    0    0 -0.15561890069E+02 -0.31438753837E+02  0.42415737866E+02  0.55042369898E+02  0.00000000000E+00 0.  1.
         12    1    6    6    0    0  0.88003076912E+02 -0.12136375147E+03  0.12066090827E+03  0.19243896825E+03  0.00000000000E+00 0. -1.
         -5    1    3    3    0  503 -0.33635739837E+02  0.12396871943E+03  0.64201285967E+02  0.14367846572E+03  0.47000000000E+01 0.  1.
         13    1    4    4    0    0 -0.20748017262E+01 -0.25467606634E+02  0.16198179265E+02  0.30253674180E+02  0.00000000000E+00 0. -1.
        -14    1    4    4    0    0 -0.56298732625E+02  0.37732188661E+02  0.11835165509E+03  0.13638320871E+03  0.00000000000E+00 0.  1.
<mgrwt>
<rscale>  2 0.23882400E+03</rscale>
<asrwt>0</asrwt>
<pdfrwt beam="1">  1       21 0.89555423E-01 0.23899420E+03</pdfrwt>
<pdfrwt beam="2">  1       21 0.15288241E-01 0.23899420E+03</pdfrwt>
<totfact> 0.39348340E+04</totfact>
</mgrwt>
</event>
<event>
12    1  0.1029207E-001  0.1852361E+03  0.7546771E-02  0.1162925E+00
         21   -1    0    0  503  502  0.00000000000E+00  0.00000000000E+00  0.11744245902E+04  0.11744245902E+04  0.00000000000E+00 0.  1.
         21   -1    0    0  501  503 -0.00000000000E+00 -0.00000000000E+00 -0.48011830168E+02  0.48011830168E+02  0.00000000000E+00 0.  1.
          6    2    1    2  501    0  0.23851802384E+02 -0.60910266657E+02  0.17974642366E+03  0.25781755948E+03  0.17286453685E+03 0.  0.
         24    2    3    3    0    0  0.18330436787E+02 -0.10342971115E+03  0.16626030482E+03  0.21262514818E+03  0.80828550776E+02 0.  0.
         -6    2    1    2    0  502 -0.23851802384E+02  0.60910266657E+02  0.94666633638E+03  0.96461886089E+03  0.17330154439E+03 0.  0.
        -24    2    5    5    0    0 -0.17365086757E+02  0.81585706120E+02  0.38176814033E+03  0.39928567313E+03  0.82002208012E+02 0.  0.
          5    1    3    3  501    0  0.55213655965E+01  0.42519444489E+02  0.13486118835E+02  0.45192411298E+02  0.47000000000E+01 0. -1.
        -13    1    4    4    0    0  0.38814481669E+02 -0.17421501538E+02  0.39341172994E+02  0.57946532214E+02  0.00000000000E+00 0.  1.
         14    1    4    4    0    0 -0.20484044882E+02 -0.86008209608E+02  0.12691913183E+03  0.15467861597E+03  0.00000000000E+00 0. -1.
         -5    1    5    5    0  502 -0.64867156264E+01 -0.20675439464E+02  0.56489819605E+03  0.56533318776E+03  0.47000000000E+01 0.  1.
         13    1    6    6    0    0 -0.14963228492E+02  0.26840742320E+02  0.28888315583E+02  0.42176515176E+02  0.00000000000E+00 0. -1.
        -14    1    6    6    0    0 -0.24018582653E+01  0.54744963800E+02  0.35287982475E+03  0.35710915796E+03  0.00000000000E+00 0.  1.
<mgrwt>
<rscale>  2 0.18513377E+03</rscale>
<asrwt>0</asrwt>
<pdfrwt beam="1">  1       21 0.18068068E+00 0.18523605E+03</pdfrwt>
<pdfrwt beam="2">  1       21 0.73864363E-02 0.18523605E+03</pdfrwt>
<totfact> 0.24944235E+04</totfact>
</mgrwt>
</event>
<event>
12    1  0.1029207E-001  0.2126225E+03  0.7546771E-02  0.1140128E+00
         21   -1    0    0  501  502  0.00000000000E+00  0.00000000000E+00  0.17185509263E+03  0.17185509263E+03  0.00000000000E+00 0.  1.
         21   -1    0    0  502  503 -0.00000000000E+00 -0.00000000000E+00 -0.36852776418E+03  0.36852776418E+03  0.00000000000E+00 0. -1.
         -6    2    1    2    0  503 -0.10706847165E+03 -0.48888384003E+02 -0.24604812153E+03  0.32518916242E+03  0.17707224947E+03 0.  0.
        -24    2    3    3    0    0 -0.12392056987E+03 -0.62896654051E+02 -0.13027937351E+03  0.20727089469E+03  0.81708089544E+02 0.  0.
          6    2    1    2  501    0  0.10706847165E+03  0.48888384003E+02  0.49375449980E+02  0.21519369440E+03  0.17325316544E+03 0.  0.
         24    2    5    5    0    0  0.70739844917E+02 -0.19618207667E+02 -0.20096076086E+02  0.11097610876E+03  0.80764130096E+02 0.  0.
          5    1    5    5  501    0  0.36328626729E+02  0.68506591670E+02  0.69471526067E+02  0.10421758564E+03  0.47000000000E+01 0. -1.
        -13    1    6    6    0    0  0.75042023308E+02 -0.10253758955E+01  0.96165351069E+01  0.75662635464E+02  0.00000000000E+00 0.  1.
         14    1    6    6    0    0 -0.43021783914E+01 -0.18592831772E+02 -0.29712611193E+02  0.35313473294E+02  0.00000000000E+00 0. -1.
         -5    1    3    3    0  503  0.16852098220E+02  0.14008270049E+02 -0.11576874803E+03  0.11791826773E+03  0.47000000000E+01 0.  1.
         13    1    4    4    0    0 -0.22456699404E+00 -0.25997688827E+02 -0.33093847329E+01  0.26208439137E+02  0.00000000000E+00 0. -1.
        -14    1    4    4    0    0 -0.12369600287E+03 -0.36898965224E+02 -0.12696998877E+03  0.18106245555E+03  0.00000000000E+00 0.  1.
<mgrwt>
<rscale>  2 0.21182553E+03</rscale>
<asrwt>0</asrwt>
<pdfrwt beam="1">  1       21 0.26439245E-01 0.21262247E+03</pdfrwt>
<pdfrwt beam="2">  1       21 0.56696579E-01 0.21262247E+03</pdfrwt>
<totfact> 0.39391398E+04</totfact>
</mgrwt>
</event>
<event>
12    1  0.1029207E-001  0.2217133E+03  0.7546771E-02  0.1132908E+00
         21   -1    0    0  503  502  0.00000000000E+00  0.00000000000E+00  0.19888887963E+03  0.19888887963E+03  0.00000000000E+00 0. -1.
         21   -1    0    0  501  503 -0.00000000000E+00 -0.00000000000E+00 -0.41829623403E+03  0.41829623403E+03  0.00000000000E+00 0. -1.
          6    2    1    2  501    0  0.10317473179E+03  0.92195479092E+02 -0.30834486165E+03  0.37978066836E+03  0.17323905653E+03 0.  0.
         24    2    3    3    0    0  0.39800624111E+02  0.11603284270E+03 -0.25230099107E+03  0.29176076801E+03  0.80130177757E+02 0.  0.
         -6    2    1    2    0  502 -0.10317473179E+03 -0.92195479092E+02  0.88937507248E+02  0.23740444531E+03  0.17118983268E+03 0.  0.
        -24    2    5    5    0    0 -0.37308897143E+02 -0.98297401468E+02  0.75566633837E+01  0.13242600286E+03  0.80157408458E+02 0.  0.
          5    1    3    3  501    0  0.63374107683E+02 -0.23837363612E+02 -0.56043870576E+02  0.88019900350E+02  0.47000000000E+01 0. -1.
        -13    1    4    4    0    0  0.11976120913E+02  0.96875529573E+00 -0.90410208691E+02  0.91205108379E+02  0.00000000000E+00 0.  1.
         14    1    4    4    0    0  0.27824503198E+02  0.11506408741E+03 -0.16189078238E+03  0.20055565963E+03  0.00000000000E+00 0. -1.
         -5    1    5    5    0  502 -0.65865834651E+02  0.61019223754E+01  0.81380843864E+02  0.10497844245E+03  0.47000000000E+01 0.  1.
         13    1    6    6    0    0 -0.29431415684E+01 -0.42918870157E+02  0.40775674021E+02  0.59273493990E+02  0.00000000000E+00 0. -1.
        -14    1    6    6    0    0 -0.34365755575E+02 -0.55378531310E+02 -0.33219010638E+02  0.73152508871E+02  0.00000000000E+00 0.  1.
<mgrwt>
<rscale>  2 0.22131288E+03</rscale>
<asrwt>0</asrwt>
<pdfrwt beam="1">  1       21 0.30598289E-01 0.22171333E+03</pdfrwt>
<pdfrwt beam="2">  1       21 0.64353267E-01 0.22171333E+03</pdfrwt>
<totfact> 0.22463882E+04</totfact>
</mgrwt>
</event>
<event>
12    1  0.1029207E-001  0.1836262E+03  0.7546771E-02  0.1164519E+00
         21   -1    0    0  503  502  0.00000000000E+00  0.00000000000E+00  0.41904396700E+03  0.41904396700E+03  0.00000000000E+00 0.  1.
         21   -1    0    0  501  503 -0.00000000000E+00 -0.00000000000E+00 -0.50893740786E+03  0.50893740786E+03  0.00000000000E+00 0.  1.
          6    2    1    2  501    0  0.23812265517E+02 -0.56034139742E+02 -0.47086041474E+03  0.50539895860E+03  0.17323893438E+03 0.  0.
         24    2    3    3    0    0  0.53491292146E+02 -0.91481792392E+02 -0.30078084224E+03  0.32908522777E+03  0.81226445208E+02 0.  0.
         -6    2    1    2    0  502 -0.23812265517E+02  0.56034139742E+02  0.38096697388E+03  0.42258241626E+03  0.17243321761E+03 0.  0.
        -24    2    5    5    0    0 -0.61032742901E+02  0.20952150542E+02  0.13148730199E+03  0.16787021280E+03  0.82021396247E+02 0.  0.
          5    1    3    3  501    0 -0.29679026630E+02  0.35447652650E+02 -0.17007957250E+03  0.17631373083E+03  0.47000000000E+01 0. -1.
        -13    1    4    4    0    0  0.56719858576E+02 -0.99053777358E+02 -0.29980167738E+03  0.32079563421E+03  0.00000000000E+00 0.  1.
         14    1    4    4    0    0 -0.32285664297E+01  0.75719849658E+01 -0.97916485467E+00  0.82895935561E+01  0.00000000000E+00 0. -1.
         -5    1    5    5    0  502  0.37220477384E+02  0.35081989200E+02  0.24947967189E+03  0.25471220346E+03  0.47000000000E+01 0.  1.
         11    1    6    6    0    0 -0.52144559978E+02  0.20774375784E+02  0.25741798164E+02  0.61751680117E+02  0.00000000000E+00 0. -1.
        -12    1    6    6    0    0 -0.88881829230E+01  0.17777475807E+00  0.10574550382E+03  0.10611853268E+03  0.00000000000E+00 0.  1.
<mgrwt>
<rscale>  2 0.18343591E+03</rscale>
<asrwt>0</asrwt>
<pdfrwt beam="1">  1       21 0.64468303E-01 0.18362619E+03</pdfrwt>
<pdfrwt beam="2">  1       21 0.78298062E-01 0.18362619E+03</pdfrwt>
<totfact> 0.32279694E+03</totfact>
</mgrwt>
</event>
<event>
12    1  0.1029207E-001  0.1999983E+03  0.7546771E-02  0.1150153E+00
         21   -1    0    0  501  502  0.00000000000E+00  0.00000000000E+00  0.10966873966E+03  0.10966873966E+03  0.00000000000E+00 0.  1.
         21   -1    0    0  502  503 -0.00000000000E+00 -0.00000000000E+00 -0.37089311600E+03  0.37089311600E+03  0.00000000000E+00 0. -1.
         -6    2    1    2    0  503  0.76942717964E+02  0.58352024376E+02 -0.16885024176E+03  0.26026137817E+03  0.17291743761E+03 0.  0.
        -24    2    3    3    0    0 -0.69109657298E+01  0.33681086367E+02 -0.14523268616E+03  0.16959730379E+03  0.80551445026E+02 0.  0.
          6    2    1    2  501    0 -0.76942717964E+02 -0.58352024376E+02 -0.92374134593E+02  0.22030047749E+03  0.17514045519E+03 0.  0.
         24    2    5    5    0    0 -0.11967736383E+03 -0.62840413599E+02 -0.74690436197E+02  0.17359717157E+03  0.79282581455E+02 0.  0.
          5    1    5    5  501    0  0.42734645868E+02  0.44883892223E+01 -0.17683698396E+02  0.46703305924E+02  0.47000000000E+01 0. -1.
        -11    1    6    6    0    0 -0.54602261223E+02 -0.62537642277E+02 -0.13195606670E+02  0.84062403413E+02  0.00000000000E+00 0.  1.
         12    1    6    6    0    0 -0.65075102609E+02 -0.30277132217E+00 -0.61494829527E+02  0.89534768155E+02  0.00000000000E+00 0. -1.
         -5    1    3    3    0  503  0.83853683694E+02  0.24670938010E+02 -0.23617555594E+02  0.90664074382E+02  0.47000000000E+01 0.  1.
         11    1    4    4    0    0 -0.31863040863E+02 -0.13154095100E+02 -0.54585700249E+02  0.64559137716E+02  0.00000000000E+00 0. -1.
        -12    1    4    4    0    0  0.24952075133E+02  0.46835181467E+02 -0.90646985912E+02  0.10503816607E+03  0.00000000000E+00 0.  1.
<mgrwt>
<rscale>  2 0.19951057E+03</rscale>
<asrwt>0</asrwt>
<pdfrwt beam="1">  1       21 0.16872114E-01 0.19999830E+03</pdfrwt>
<pdfrwt beam="2">  1       21 0.57060478E-01 0.19999830E+03</pdfrwt>
<totfact> 0.90982782E+04</totfact>
</mgrwt>
</event>
<event>
12    1  0.1029207E-001  0.1973599E+03  0.7546771E-02  0.1152566E+00
         21   -1    0    0  501  502  0.00000000000E+00  0.00000000000E+00  0.48778483819E+02  0.48778483819E+02  0.00000000000E+00 0.  1.
         21   -1    0    0  502  503 -0.00000000000E+00 -0.00000000000E+00 -0.99342693865E+03  0.99342693865E+03  0.00000000000E+00 0. -1.
         -6    2    1    2    0  503  0.86767904300E+02  0.18018708503E+02 -0.70689031438E+03  0.73320725426E+03  0.17333671873E+03 0.  0.
        -24    2    3    3    0    0  0.76820533559E+02  0.73445020318E+02 -0.39841892761E+03  0.41960286545E+03  0.77674689748E+02 0.  0.
          6    2    1    2  501    0 -0.86767904300E+02 -0.18018708503E+02 -0.23775814045E+03  0.30899816821E+03  0.17634509217E+03 0.  0.
         24    2    5    5    0    0 -0.10806789009E+03 -0.29825879978E+02 -0.24663018802E+03  0.28265615005E+03  0.80621321819E+02 0.  0.
          5    1    5    5  501    0  0.21299985786E+02  0.11807171475E+02  0.88720475717E+01  0.26342018162E+02  0.47000000000E+01 0. -1.
        -11    1    6    6    0    0 -0.20802690154E+02  0.22371651153E+02 -0.97375555423E+02  0.10205509045E+03  0.00000000000E+00 0.  1.
         12    1    6    6    0    0 -0.87265199932E+02 -0.52197531130E+02 -0.14925463260E+03  0.18060105960E+03  0.00000000000E+00 0. -1.
         -5    1    3    3    0  503  0.99473707413E+01 -0.55426311815E+02 -0.30847138677E+03  0.31360438881E+03  0.47000000000E+01 0.  1.
         11    1    4    4    0    0 -0.20399947917E+01  0.48680013510E+02 -0.13524795607E+03  0.14375644304E+03  0.00000000000E+00 0. -1.
        -12    1    4    4    0    0  0.78860528350E+02  0.24765006809E+02 -0.26317097155E+03  0.27584642241E+03  0.00000000000E+00 0.  1.
<mgrwt>
<rscale>  2 0.19668562E+03</rscale>
<asrwt>0</asrwt>
<pdfrwt beam="1">  1       21 0.75043829E-02 0.19735991E+03</pdfrwt>
<pdfrwt beam="2">  1       21 0.15283490E+00 0.19735991E+03</pdfrwt>
<totfact> 0.38043592E+04</totfact>
</mgrwt>
</event>
<event>
12    1  0.1029207E-001  0.2833239E+03  0.7546771E-02  0.1094244E+00
         21   -1    0    0  501  502  0.00000000000E+00  0.00000000000E+00  0.36935375359E+03  0.36935375359E+03  0.00000000000E+00 0. -1.
         21   -1    0    0  502  503 -0.00000000000E+00 -0.00000000000E+00 -0.29407032555E+03  0.29407032555E+03  0.00000000000E+00 0. -1.
         -6    2    1    2    0  503 -0.22040331322E+03  0.15862379197E+02 -0.13415016684E+03  0.31109629644E+03  0.17307629197E+03 0.  0.
        -24    2    3    3    0    0 -0.16686797748E+03 -0.53701425634E+02 -0.84123950877E+02  0.20995348948E+03  0.79214036709E+02 0.  0.
          6    2    1    2  501    0  0.22040331322E+03 -0.15862379197E+02  0.20943359488E+03  0.35232778269E+03  0.17732230609E+03 0.  0.
         24    2    5    5    0    0  0.19950166696E+03  0.17793978812E+02  0.10430443558E+03  0.23988286557E+03  0.80912502802E+02 0.  0.
          5    1    5    5  501    0  0.20901646257E+02 -0.33656358009E+02  0.10512915930E+03  0.11244491712E+03  0.47000000000E+01 0. -1.
        -13    1    6    6    0    0 -0.60063266551E+01 -0.54834332468E+01  0.90872636170E+01  0.12195177740E+02  0.00000000000E+00 0.  1.
         14    1    6    6    0    0  0.20550799362E+03  0.23277412059E+02  0.95217171964E+02  0.22768768783E+03  0.00000000000E+00 0. -1.
         -5    1    3    3    0  503 -0.53535335739E+02  0.69563804831E+02 -0.50026215967E+02  0.10114280696E+03  0.47000000000E+01 0.  1.
         13    1    4    4    0    0 -0.12191569155E+03 -0.40692647095E+00 -0.62201565858E+02  0.13686722117E+03  0.00000000000E+00 0. -1.
        -14    1    4    4    0    0 -0.44952285933E+02 -0.53294499163E+02 -0.21922385019E+02  0.73086268317E+02  0.00000000000E+00 0.  1.
<mgrwt>
<rscale>  2 0.28266212E+03</rscale>
<asrwt>0</asrwt>
<pdfrwt beam="1">  1       21 0.56823654E-01 0.28332391E+03</pdfrwt>
<pdfrwt beam="2">  1       21 0.45241589E-01 0.28332391E+03</pdfrwt>
<totfact> 0.12973380E+04</totfact>
</mgrwt>
</event>
<event>
12    1  0.1029207E-001  0.1843998E+03  0.7546771E-02  0.1163824E+00
         21   -1    0    0  501  502  0.00000000000E+00  0.00000000000E+00  0.97251061787E+02  0.97251061787E+02  0.00000000000E+00 0.  1.
         21   -1    0    0  502  503 -0.00000000000E+00 -0.00000000000E+00 -0.47095975752E+03  0.47095975752E+03  0.00000000000E+00 0.  1.
         -6    2    1    2    0  503  0.13267581783E+01 -0.62055982490E+02 -0.33239952519E+03  0.38012197577E+03  0.17363918587E+03 0.  0.
        -24    2    3    3    0    0 -0.28693704169E+02  0.24038534303E+02 -0.19788542139E+03  0.21755005906E+03  0.82269121848E+02 0.  0.
          6    2    1    2  501    0 -0.13267581783E+01  0.62055982490E+02 -0.41309170546E+02  0.18808884354E+03  0.17267964629E+03 0.  0.
         24    2    5    5    0    0  0.12920880079E+02 -0.90231684506E+01  0.30544694463E+02  0.85911014184E+02  0.78735997405E+02 0.  0.
          5    1    5    5  501    0 -0.14247638258E+02  0.71079150941E+02 -0.71853865009E+02  0.10217782935E+03  0.47000000000E+01 0. -1.
        -11    1    6    6    0    0  0.44646617224E+02 -0.15938823768E+02  0.13784028655E+02  0.49369686839E+02  0.00000000000E+00 0.  1.
         12    1    6    6    0    0 -0.31725737144E+02  0.69156553172E+01  0.16760665808E+02  0.36541327345E+02  0.00000000000E+00 0. -1.
         -5    1    3    3    0  503  0.30020462347E+02 -0.86094516793E+02 -0.13451410380E+03  0.16257191671E+03  0.47000000000E+01 0.  1.
         13    1    4    4    0    0  0.20538791143E+02  0.24008921572E+02 -0.33932119285E+02  0.46364414973E+02  0.00000000000E+00 0. -1.
        -14    1    4    4    0    0 -0.49232495312E+02  0.29612731089E-01 -0.16395330211E+03  0.17118564409E+03  0.00000000000E+00 0.  1.
<mgrwt>
<rscale>  2 0.18417353E+03</rscale>
<asrwt>0</asrwt>
<pdfrwt beam="1">  1       21 0.14961702E-01 0.18439976E+03</pdfrwt>
<pdfrwt beam="2">  1       21 0.72455347E-01 0.18439976E+03</pdfrwt>
<totfact> 0.67909112E+04</totfact>
</mgrwt>
</event>
<event>
12    1  0.1029207E-001  0.2700841E+03  0.7546771E-02  0.1101306E+00
         21   -1    0    0  501  502  0.00000000000E+00  0.00000000000E+00  0.86154721509E+02  0.86154721509E+02  0.00000000000E+00 0.  1.
         21   -1    0    0  502  503 -0.00000000000E+00 -0.00000000000E+00 -0.87921634988E+03  0.87921634988E+03  0.00000000000E+00 0. -1.
         -6    2    1    2    0  503 -0.25799797622E+02  0.20608490106E+03 -0.30100879986E+03  0.40406777274E+03  0.17183669972E+03 0.  0.
        -24    2    3    3    0    0 -0.77998395206E+01  0.14089371485E+03 -0.29407506641E+03  0.33592046237E+03  0.80315228780E+02 0.  0.
          6    2    1    2  501    0  0.25799797622E+02 -0.20608490106E+03 -0.49205282851E+03  0.56130329865E+03  0.17265222567E+03 0.  0.
         24    2    5    5    0    0  0.58613748845E+02 -0.11254660595E+03 -0.18368136984E+03  0.23735698432E+03  0.80605101045E+02 0.  0.
          5    1    5    5  501    0 -0.32813951223E+02 -0.93538295112E+02 -0.30837145867E+03  0.32394631433E+03  0.47000000000E+01 0. -1.
        -13    1    6    6    0    0  0.16408255225E+02 -0.23389557106E+01 -0.75382654613E+02  0.77183198753E+02  0.00000000000E+00 0.  1.
         14    1    6    6    0    0  0.42205493620E+02 -0.11020765024E+03 -0.10829871523E+03  0.16017378557E+03  0.00000000000E+00 0. -1.
         -5    1    3    3    0  503 -0.17999958102E+02  0.65191186207E+02 -0.69337334510E+01  0.68147310367E+02  0.47000000000E+01 0.  1.
         11    1    4    4    0    0  0.19954446297E+02  0.41093269477E+02 -0.37089165374E+02  0.58842526386E+02  0.00000000000E+00 0. -1.
        -12    1    4    4    0    0 -0.27754285818E+02  0.99800445376E+02 -0.25698590104E+03  0.27707793598E+03  0.00000000000E+00 0.  1.
<mgrwt>
<rscale>  2 0.26995383E+03</rscale>
<asrwt>0</asrwt>
<pdfrwt beam="1">  1       21 0.13254572E-01 0.27008407E+03</pdfrwt>
<pdfrwt beam="2">  1       21 0.13526406E+00 0.27008407E+03</pdfrwt>
<totfact> 0.18346460E+04</totfact>
</mgrwt>
</event>
<event>
12    1  0.1029207E-001  0.1860727E+03  0.7546771E-02  0.1162832E+00
         21   -1    0    0  503  502  0.00000000000E+00  0.00000000000E+00  0.29670309600E+03  0.29670309600E+03  0.00000000000E+00 0.  1.
         21   -1    0    0  501  503 -0.00000000000E+00 -0.00000000000E+00 -0.13429894471E+03  0.13429894471E+03  0.00000000000E+00 0.  1.
          6    2    1    2  501    0 -0.29448991667E+02  0.61525364601E+02 -0.19306074960E+01  0.18275024052E+03  0.16953262095E+03 0.  0.
         24    2    3    3    0    0 -0.75664262989E+01  0.10451571896E+03 -0.15056723221E+02  0.13253667513E+03  0.79740071622E+02 0.  0.
         -6    2    1    2    0  502  0.29448991667E+02 -0.61525364601E+02  0.16433475878E+03  0.24825180019E+03  0.17311969777E+03 0.  0.
        -24    2    5    5    0    0  0.15103048963E+02 -0.32054621459E+02  0.18892929984E+03  0.20700483396E+03  0.76818748372E+02 0.  0.
          5    1    3    3  501    0 -0.21882565368E+02 -0.42990354364E+02  0.13126115725E+02  0.50213565393E+02  0.47000000000E+01 0. -1.
        -13    1    4    4    0    0 -0.36794578450E+02  0.30987947939E+02 -0.22415471951E+02  0.53071153215E+02  0.00000000000E+00 0.  1.
         14    1    4    4    0    0  0.29228152151E+02  0.73527771026E+02  0.73587487305E+01  0.79465521914E+02  0.00000000000E+00 0. -1.
         -5    1    5    5    0  502  0.14345942704E+02 -0.29470743141E+02 -0.24594541056E+02  0.41246966229E+02  0.47000000000E+01 0.  1.
         11    1    6    6    0    0  0.17207772651E+02  0.97051490546E+01  0.14506708720E+03  0.14640613767E+03  0.00000000000E+00 0. -1.
        -12    1    6    6    0    0 -0.21047236884E+01 -0.41759770514E+02  0.43862212639E+02  0.60598696296E+02  0.00000000000E+00 0.  1.
<mgrwt>
<rscale>  2 0.18523387E+03</rscale>
<asrwt>0</asrwt>
<pdfrwt beam="1">  1       21 0.45646630E-01 0.18607268E+03</pdfrwt>
<pdfrwt beam="2">  1       21 0.20661376E-01 0.18607268E+03</pdfrwt>
<totfact> 0.10019657E+05</totfact>
</mgrwt>
</event>
<event>
12    1  0.1029207E-001  0.1793900E+03  0.7546771E-02  0.1168552E+00
         21   -1    0    0  503  502  0.00000000000E+00  0.00000000000E+00  0.13939935480E+03  0.13939935480E+03  0.00000000000E+00 0.  1.
         21   -1    0    0  501  503 -0.00000000000E+00 -0.00000000000E+00 -0.75488805007E+03  0.75488805007E+03  0.00000000000E+00 0.  1.
          6    2    1    2  501    0  0.13364122829E+01  0.52370214829E+02 -0.68076104720E+03  0.70400027798E+03  0.17157028474E+03 0.  0.
         24    2    3    3    0    0  0.16906947369E+02  0.93996837456E+02 -0.58640004531E+03  0.59959095870E+03  0.80765427588E+02 0.  0.
         -6    2    1    2    0  502 -0.13364122829E+01 -0.52370214829E+02  0.65272351935E+02  0.19028712690E+03  0.17089261347E+03 0.  0.
        -24    2    5    5    0    0  0.59372526617E+02 -0.55465347483E+02  0.23192366036E+02  0.11620629050E+03  0.79777906846E+02 0.  0.
          5    1    3    3  501    0 -0.15570535086E+02 -0.41626622628E+02 -0.94361001895E+02  0.10440931928E+03  0.47000000000E+01 0. -1.
        -13    1    4    4    0    0  0.54234984261E+01  0.73089897106E+02 -0.55667361650E+03  0.56147757097E+03  0.00000000000E+00 0.  1.
         14    1    4    4    0    0  0.11483448942E+02  0.20906940350E+02 -0.29726428806E+02  0.38113387726E+02  0.00000000000E+00 0. -1.
         -5    1    5    5    0  502 -0.60708938899E+02  0.30951326542E+01  0.42079985899E+02  0.74080836400E+02  0.47000000000E+01 0.  1.
         13    1    6    6    0    0  0.47080637872E+02 -0.60649708548E+02 -0.12784368918E+02  0.77835812439E+02  0.00000000000E+00 0. -1.
        -14    1    6    6    0    0  0.12291888744E+02  0.51843610650E+01  0.35976734954E+02  0.38370478059E+02  0.00000000000E+00 0.  1.
<mgrwt>
<rscale>  2 0.17922782E+03</rscale>
<asrwt>0</asrwt>
<pdfrwt beam="1">  1       21 0.21446054E-01 0.17939004E+03</pdfrwt>
<pdfrwt beam="2">  1       21 0.11613662E+00 0.17939004E+03</pdfrwt>
<totfact> 0.11700659E+04</totfact>
</mgrwt>
</event>
<event>
12    1  0.1029207E-001  0.1826911E+03  0.7546771E-02  0.1165410E+00
         21   -1    0    0  503  502  0.00000000000E+00  0.00000000000E+00  0.66782616373E+02  0.66782616373E+02  0.00000000000E+00 0. -1.
         21   -1    0    0  501  503 -0.00000000000E+00 -0.00000000000E+00 -0.54234684153E+03  0.54234684153E+03  0.00000000000E+00 0. -1.
          6    2    1    2  501    0 -0.51281964782E+01 -0.56976482241E+02 -0.32570535178E+03  0.37344343931E+03  0.17350333787E+03 0.  0.
         24    2    3    3    0    0  0.50639828250E+02  0.78329890524E+01 -0.15604424927E+03  0.18339786620E+03  0.81604054272E+02 0.  0.
         -6    2    1    2    0  502  0.51281964782E+01  0.56976482241E+02 -0.14985887337E+03  0.23568601860E+03  0.17267773309E+03 0.  0.
        -24    2    5    5    0    0 -0.19454521597E+01 -0.38695976024E+02 -0.71823900011E+02  0.11193302735E+03  0.76610486577E+02 0.  0.
          5    1    3    3  501    0 -0.55768024728E+02 -0.64809471294E+02 -0.16966110251E+03  0.19004557311E+03  0.47000000000E+01 0. -1.
        -11    1    4    4    0    0 -0.49758446786E+00  0.29331657180E+02 -0.17496180000E+02  0.34157137143E+02  0.00000000000E+00 0.  1.
         12    1    4    4    0    0  0.51137412718E+02 -0.21498668128E+02 -0.13854806927E+03  0.14924072906E+03  0.00000000000E+00 0. -1.
         -5    1    5    5    0  502  0.70736486379E+01  0.95672458265E+02 -0.78034973362E+02  0.12375299125E+03  0.47000000000E+01 0.  1.
         13    1    6    6    0    0  0.16684726563E+01 -0.63963906754E+01  0.16523657504E+02  0.17796878153E+02  0.00000000000E+00 0. -1.
        -14    1    6    6    0    0 -0.36139248161E+01 -0.32299585348E+02 -0.88347557514E+02  0.94136149194E+02  0.00000000000E+00 0.  1.
<mgrwt>
<rscale>  2 0.18249478E+03</rscale>
<asrwt>0</asrwt>
<pdfrwt beam="1">  1       21 0.10274249E-01 0.18269107E+03</pdfrwt>
<pdfrwt beam="2">  1       21 0.83437976E-01 0.18269107E+03</pdfrwt>
<totfact> 0.97085427E+04</totfact>
</mgrwt>
</event>
<event>
12    1  0.1029207E-001  0.1927923E+03  0.7546771E-02  0.1156911E+00
         21   -1    0    0  503  502  0.00000000000E+00  0.00000000000E+00  0.21270867899E+03  0.21270867899E+03  0.00000000000E+00 0.  1.
         21   -1    0    0  501  503 -0.00000000000E+00 -0.00000000000E+00 -0.17102337637E+03  0.17102337637E+03  0.00000000000E+00 0. -1.
          6    2    1    2  501    0 -0.70525674026E+02  0.11590278351E+02  0.16808578056E+02  0.19352363281E+03  0.17905491591E+03 0.  0.
         24    2    3    3    0    0 -0.63385217666E+02 -0.43358603570E+02  0.54115527750E+02  0.12655898365E+03  0.84799950926E+02 0.  0.
         -6    2    1    2    0  502  0.70525674026E+02 -0.11590278351E+02  0.24876724561E+02  0.19020842255E+03  0.17450555101E+03 0.  0.
        -24    2    5    5    0    0  0.13400235303E+02  0.43791672891E+02 -0.25371222756E+02  0.95988347819E+02  0.80453632933E+02 0.  0.
          5    1    3    3  501    0 -0.71404563598E+01  0.54948881922E+02 -0.37306949694E+02  0.66964649159E+02  0.47000000000E+01 0. -1.
        -13    1    4    4    0    0 -0.52721040477E+02 -0.57641068388E+02  0.97185677916E+01  0.78717542097E+02  0.00000000000E+00 0.  1.
         14    1    4    4    0    0 -0.10664177189E+02  0.14282464818E+02  0.44396959958E+02  0.47841441553E+02  0.00000000000E+00 0. -1.
         -5    1    5    5    0  502  0.57125438723E+02 -0.55381951242E+02  0.50247947318E+02  0.94220074731E+02  0.47000000000E+01 0.  1.
         11    1    6    6    0    0  0.24728114469E+02 -0.11547277399E+02 -0.28442816572E+02  0.39418435726E+02  0.00000000000E+00 0. -1.
        -12    1    6    6    0    0 -0.11327879166E+02  0.55338950290E+02  0.30715938157E+01  0.56569912093E+02  0.00000000000E+00 0.  1.
<mgrwt>
<rscale>  2 0.19172912E+03</rscale>
<asrwt>0</asrwt>
<pdfrwt beam="1">  1       21 0.32724412E-01 0.19279229E+03</pdfrwt>
<pdfrwt beam="2">  1       21 0.26311289E-01 0.19279229E+03</pdfrwt>
<totfact> 0.12344789E+05</totfact>
</mgrwt>
</event>
<event>
12    1  0.1029207E-001  0.2157662E+03  0.7546771E-02  0.1137548E+00
         21   -1    0    0  503  502  0.00000000000E+00  0.00000000000E+00  0.92239959070E+02  0.92239959070E+02  0.00000000000E+00 0.  1.
         21   -1    0    0  501  503 -0.00000000000E+00 -0.00000000000E+00 -0.74379189818E+03  0.74379189818E+03  0.00000000000E+00 0.  1.
          6    2    1    2  501    0 -0.20131398172E+02 -0.12679394303E+03 -0.56680768119E+03  0.60648661756E+03  0.17341595267E+03 0.  0.
         24    2    3    3    0    0 -0.28738748854E+02 -0.15547198027E+03 -0.41137368367E+03  0.44812521478E+03  0.81181575311E+02 0.  0.
         -6    2    1    2    0  502  0.20131398172E+02  0.12679394303E+03 -0.84744257917E+02  0.22954523969E+03  0.17037444243E+03 0.  0.
        -24    2    5    5    0    0 -0.39119856383E+02  0.11855263712E+03 -0.79086096172E+02  0.16927306465E+03  0.82544950651E+02 0.  0.
          5    1    3    3  501    0  0.86073506824E+01  0.28678037239E+02 -0.15543399752E+03  0.15836140278E+03  0.47000000000E+01 0. -1.
        -13    1    4    4    0    0 -0.26994795944E+02 -0.55159503285E+02 -0.25533296490E+03  0.26261418998E+03  0.00000000000E+00 0.  1.
         14    1    4    4    0    0 -0.17439529105E+01 -0.10031247698E+03 -0.15604071877E+03  0.18551102481E+03  0.00000000000E+00 0. -1.
         -5    1    5    5    0  502  0.59251254554E+02  0.82413059079E+01 -0.56581617453E+01  0.60272175037E+02  0.47000000000E+01 0.  1.
         11    1    6    6    0    0 -0.58193160403E+02  0.89722727841E+02 -0.81739938598E+02  0.13460322942E+03  0.00000000000E+00 0. -1.
        -12    1    6    6    0    0  0.19073304021E+02  0.28829909278E+02  0.26538424267E+01  0.34669835230E+02  0.00000000000E+00 0.  1.
<mgrwt>
<rscale>  2 0.21515443E+03</rscale>
<asrwt>0</asrwt>
<pdfrwt beam="1">  1       21 0.14190763E-01 0.21576624E+03</pdfrwt>
<pdfrwt beam="2">  1       21 0.11442952E+00 0.21576624E+03</pdfrwt>
<totfact> 0.25396532E+04</totfact>
</mgrwt>
</event>
<event>
12    1  0.1029207E-001  0.2718871E+03  0.7546771E-02  0.1100205E+00
         21   -1    0    0  501  502  0.00000000000E+00  0.00000000000E+00  0.27306252467E+04  0.27306252467E+04  0.00000000000E+00 0.  1.
         21   -1    0    0  502  503 -0.00000000000E+00 -0.00000000000E+00 -0.34556837041E+02  0.34556837041E+02  0.00000000000E+00 0.  1.
         -6    2    1    2    0  503  0.77538635514E+02 -0.19435386220E+03  0.70455297372E+03  0.75519366347E+03  0.17359986414E+03 0.  0.
        -24    2    3    3    0    0  0.76073923009E+02 -0.40878745791E+02  0.31922233356E+03  0.34039425535E+03  0.80666208602E+02 0.  0.
          6    2    1    2  501    0 -0.77538635514E+02  0.19435386220E+03  0.19915154360E+04  0.20099884203E+04  0.17359163075E+03 0.  0.
         24    2    5    5    0    0 -0.36471168978E+02  0.20510442928E+03  0.14768218467E+04  0.14935257476E+04  0.78856950467E+02 0.  0.
          5    1    5    5  501    0 -0.41067466536E+02 -0.10750567085E+02  0.51469358926E+03  0.51646267274E+03  0.47000000000E+01 0. -1.
        -11    1    6    6    0    0 -0.40125376996E+02  0.62602948849E+02  0.68001640517E+03  0.68406979643E+03  0.00000000000E+00 0.  1.
         12    1    6    6    0    0  0.36542080185E+01  0.14250148043E+03  0.79680544154E+03  0.80945595114E+03  0.00000000000E+00 0. -1.
         -5    1    3    3    0  503  0.14647125052E+01 -0.15347511641E+03  0.38533064015E+03  0.41479940812E+03  0.47000000000E+01 0.  1.
         13    1    4    4    0    0  0.87812408382E+02 -0.36960866885E+02  0.21156175047E+03  0.23202478102E+03  0.00000000000E+00 0. -1.
        -14    1    4    4    0    0 -0.11738485373E+02 -0.39178789061E+01  0.10766058309E+03  0.10836947433E+03  0.00000000000E+00 0.  1.
<mgrwt>
<rscale>  2 0.27188575E+03</rscale>
<asrwt>0</asrwt>
<pdfrwt beam="1">  1       21 0.42009602E+00 0.27188707E+03</pdfrwt>
<pdfrwt beam="2">  1       21 0.53164386E-02 0.27188707E+03</pdfrwt>
<totfact> 0.14264927E+03</totfact>
</mgrwt>
</event>
<event>
12    1  0.1029207E-001  0.2303536E+03  0.7546771E-02  0.1126467E+00
         21   -1    0    0  501  502  0.00000000000E+00  0.00000000000E+00  0.60216684977E+03  0.60216684977E+03  0.00000000000E+00 0.  1.
         21   -1    0    0  502  503 -0.00000000000E+00 -0.00000000000E+00 -0.12955846986E+03  0.12955846986E+03  0.00000000000E+00 0.  1.
         -6    2    1    2    0  503  0.91240898506E+02 -0.12124580436E+03  0.28827433945E+02  0.23172102029E+03  0.17273726773E+03 0.  0.
        -24    2    3    3    0    0  0.78072523448E+02 -0.15264057804E+03  0.30134168253E+02  0.19732864511E+03  0.92930409987E+02 0.  0.
          6    2    1    2  501    0 -0.91240898506E+02  0.12124580436E+03  0.44378094597E+03  0.50000429934E+03  0.17331279444E+03 0.  0.
         24    2    5    5    0    0 -0.72589132992E+02  0.24966930671E+02  0.13010114132E+03  0.17131809683E+03  0.80814933477E+02 0.  0.
          5    1    5    5  501    0 -0.18651765514E+02  0.96278873688E+02  0.31367980465E+03  0.32868620251E+03  0.47000000000E+01 0. -1.
        -13    1    6    6    0    0 -0.95287771937E+00  0.32240905927E+02  0.15051922724E+02  0.35594162002E+02  0.00000000000E+00 0.  1.
         14    1    6    6    0    0 -0.71636255273E+02 -0.72739752564E+01  0.11504921860E+03  0.13572393483E+03  0.00000000000E+00 0. -1.
         -5    1    3    3    0  503  0.13168375058E+02  0.31394773685E+02 -0.13067343081E+01  0.34392375186E+02  0.47000000000E+01 0.  1.
         13    1    4    4    0    0  0.93853858529E+02 -0.11289346962E+03  0.42450209740E+02  0.15282507173E+03  0.00000000000E+00 0. -1.
        -14    1    4    4    0    0 -0.15781335081E+02 -0.39747108425E+02 -0.12316041487E+02  0.44503573374E+02  0.00000000000E+00 0.  1.
<mgrwt>
<rscale>  2 0.23024533E+03</rscale>
<asrwt>0</asrwt>
<pdfrwt beam="1">  1       21 0.92641052E-01 0.23035358E+03</pdfrwt>
<pdfrwt beam="2">  1       21 0.19932073E-01 0.23035358E+03</pdfrwt>
<totfact> 0.22333265E+04</totfact>
</mgrwt>
</event>
<event>
12    1  0.1029207E-001  0.1903922E+03  0.7546771E-02  0.1158269E+00
         21   -1    0    0  503  502  0.00000000000E+00  0.00000000000E+00  0.45806239038E+03  0.45806239038E+03  0.00000000000E+00 0.  1.
         21   -1    0    0  501  503 -0.00000000000E+00 -0.00000000000E+00 -0.81725655044E+02  0.81725655044E+02  0.00000000000E+00 0.  1.
          6    2    1    2  501    0  0.56240911452E+02  0.64689194984E+02  0.13710148416E+03  0.23403862410E+03  0.16920262570E+03 0.  0.
         24    2    3    3    0    0 -0.26006682951E+02  0.25330630286E+01  0.39028329793E+02  0.91671194072E+02  0.78725048935E+02 0.  0.
         -6    2    1    2    0  502 -0.56240911452E+02 -0.64689194984E+02  0.23923525117E+03  0.30574942132E+03  0.17000432691E+03 0.  0.
        -24    2    5    5    0    0 -0.50803468129E+02 -0.98006148886E+02  0.11983772754E+03  0.18158242145E+03  0.80155456740E+02 0.  0.
          5    1    3    3  501    0  0.82247594403E+02  0.62156131955E+02  0.98073154369E+02  0.14236743003E+03  0.47000000000E+01 0. -1.
        -13    1    4    4    0    0  0.15747770695E+02 -0.20564083494E+02  0.35335137691E+02  0.43811479859E+02  0.00000000000E+00 0.  1.
         14    1    4    4    0    0 -0.41754453645E+02  0.23097146522E+02  0.36931921025E+01  0.47859714214E+02  0.00000000000E+00 0. -1.
         -5    1    5    5    0  502 -0.54374433234E+01  0.33316953902E+02  0.11939752363E+03  0.12416699987E+03  0.47000000000E+01 0.  1.
         11    1    6    6    0    0 -0.34550544891E+02 -0.55362521430E+02  0.14595083528E+02  0.66871259855E+02  0.00000000000E+00 0. -1.
        -12    1    6    6    0    0 -0.16252923237E+02 -0.42643627456E+02  0.10524264401E+03  0.11471116160E+03  0.00000000000E+00 0.  1.
<mgrwt>
<rscale>  2 0.19021311E+03</rscale>
<asrwt>0</asrwt>
<pdfrwt beam="1">  1       21 0.70471135E-01 0.19039224E+03</pdfrwt>
<pdfrwt beam="2">  1       21 0.12573178E-01 0.19039224E+03</pdfrwt>
<totfact> 0.98630637E+04</totfact>
</mgrwt>
</event>
<event>
12    1  0.1029207E-001  0.3167149E+03  0.7546771E-02  0.1077172E+00
         21   -1    0    0  501  502  0.00000000000E+00  0.00000000000E+00  0.23953150358E+03  0.23953150358E+03  0.00000000000E+00 0. -1.
         21   -1    0    0  502  503 -0.00000000000E+00 -0.00000000000E+00 -0.42062444984E+03  0.42062444984E+03  0.00000000000E+00 0.  1.
         -6    2    1    2    0  503 -0.19059973875E+03 -0.18491082385E+03 -0.11251353453E+03  0.33610125657E+03  0.17258182415E+03 0.  0.
        -24    2    3    3    0    0 -0.62676565706E+02 -0.11059975159E+03 -0.97084240860E+00  0.15076282065E+03  0.81042140984E+02 0.  0.
          6    2    1    2  501    0  0.19059973875E+03  0.18491082385E+03 -0.68579411730E+02  0.32405469685E+03  0.17259211351E+03 0.  0.
         24    2    5    5    0    0  0.13110587518E+03  0.95090053898E+02  0.23293032092E+02  0.18238632899E+03  0.80568845107E+02 0.  0.
          5    1    5    5  501    0  0.59493863576E+02  0.89820769953E+02 -0.91872443822E+02  0.14166836786E+03  0.47000000000E+01 0. -1.
        -13    1    6    6    0    0  0.32112447633E+02 -0.47246767895E+01 -0.16322652329E+02  0.36331265362E+02  0.00000000000E+00 0.  1.
         14    1    6    6    0    0  0.98993427542E+02  0.99814730688E+02  0.39615684420E+02  0.14605506363E+03  0.00000000000E+00 0. -1.
         -5    1    3    3    0  503 -0.12792317305E+03 -0.74311072260E+02 -0.11154269212E+03  0.18533843592E+03  0.47000000000E+01 0.  1.
         13    1    4    4    0    0 -0.65011389669E+02 -0.56462585905E+02 -0.27550390446E+02  0.90407568309E+02  0.00000000000E+00 0. -1.
        -14    1    4    4    0    0  0.23348239635E+01 -0.54137165687E+02  0.26579548037E+02  0.60355252343E+02  0.00000000000E+00 0.  1.
<mgrwt>
<rscale>  2 0.31671347E+03</rscale>
<asrwt>0</asrwt>
<pdfrwt beam="1">  1       21 0.36851001E-01 0.31671487E+03</pdfrwt>
<pdfrwt beam="2">  1       21 0.64711453E-01 0.31671487E+03</pdfrwt>
<totfact> 0.14672657E+04</totfact>
</mgrwt>
</event>
<event>
12    1  0.1029207E-001  0.1756746E+03  0.7546771E-02  0.1174741E+00
         21   -1    0    0  503  502  0.00000000000E+00  0.00000000000E+00  0.60667063815E+02  0.60667063815E+02  0.00000000000E+00 0. -1.
         21   -1    0    0  501  503 -0.00000000000E+00 -0.00000000000E+00 -0.48252291306E+03  0.48252291306E+03  0.00000000000E+00 0. -1.
          6    2    1    2  501    0  0.15016179867E+02 -0.18625368392E+02 -0.18139751797E+03  0.24539513532E+03  0.16352774354E+03 0.  0.
         24    2    3    3    0    0  0.17589383573E+02  0.49297515015E+02 -0.11838908742E+03  0.15259270115E+03  0.80801763737E+02 0.  0.
         -6    2    1    2    0  502 -0.15016179867E+02  0.18625368392E+02 -0.24045833127E+03  0.29779484155E+03  0.17403783661E+03 0.  0.
        -24    2    5    5    0    0  0.33759876385E+02  0.70888310384E+01 -0.23055710577E+03  0.24648870523E+03  0.80063237559E+02 0.  0.
          5    1    3    3  501    0 -0.25732037062E+01 -0.67922883407E+02 -0.63008430543E+02  0.92802434166E+02  0.47000000000E+01 0. -1.
        -11    1    4    4    0    0 -0.11261576667E+02  0.28828232106E+02 -0.20761070982E+01  0.31019353572E+02  0.00000000000E+00 0.  1.
         12    1    4    4    0    0  0.28850960241E+02  0.20469282909E+02 -0.11631298033E+03  0.12157334758E+03  0.00000000000E+00 0. -1.
         -5    1    5    5    0  502 -0.48776056252E+02  0.11536537354E+02 -0.99012255066E+01  0.51306136320E+02  0.47000000000E+01 0.  1.
         13    1    6    6    0    0  0.28406173685E+02  0.38844991130E+02 -0.18175990664E+03  0.18802262550E+03  0.00000000000E+00 0. -1.
        -14    1    6    6    0    0  0.53537026994E+01 -0.31756160091E+02 -0.48797199131E+02  0.58466079733E+02  0.00000000000E+00 0.  1.
<mgrwt>
<rscale>  2 0.17301322E+03</rscale>
<asrwt>0</asrwt>
<pdfrwt beam="1">  1       21 0.93333945E-02 0.17567458E+03</pdfrwt>
<pdfrwt beam="2">  1       21 0.74234294E-01 0.17567458E+03</pdfrwt>
<totfact> 0.14993477E+05</totfact>
</mgrwt>
</event>
<event>
12    1  0.1029207E-001  0.1763935E+03  0.7546771E-02  0.1171913E+00
         21   -1    0    0  501  502  0.00000000000E+00  0.00000000000E+00  0.56846456154E+03  0.56846456154E+03  0.00000000000E+00 0.  1.
         21   -1    0    0  502  503 -0.00000000000E+00 -0.00000000000E+00 -0.81815077819E+02  0.81815077819E+02  0.00000000000E+00 0.  1.
         -6    2    1    2    0  503 -0.21857804009E+02  0.24722231760E+02  0.54886643026E+02  0.18473550975E+03  0.17327929086E+03 0.  0.
        -24    2    3    3    0    0  0.17818049483E+02 -0.17242830386E+02  0.82840602415E+02  0.12040236404E+03  0.83781655333E+02 0.  0.
          6    2    1    2  501    0  0.21857804009E+02 -0.24722231760E+02  0.43176284070E+03  0.46554412961E+03  0.17094804378E+03 0.  0.
         24    2    5    5    0    0  0.67388578619E+02  0.21095968015E+02  0.29101684050E+03  0.31061225607E+03  0.82479765848E+02 0.  0.
          5    1    5    5  501    0 -0.45530774610E+02 -0.45818199776E+02  0.14074600020E+03  0.15493187354E+03  0.47000000000E+01 0. -1.
        -13    1    6    6    0    0 -0.38241892549E+01  0.27722756082E+02  0.14897360543E+03  0.15157938759E+03  0.00000000000E+00 0.  1.
         14    1    6    6    0    0  0.71212767874E+02 -0.66267880670E+01  0.14204323507E+03  0.15903286848E+03  0.00000000000E+00 0. -1.
         -5    1    3    3    0  503 -0.39675853492E+02  0.41965062146E+02 -0.27953959389E+02  0.64333145709E+02  0.47000000000E+01 0.  1.
         11    1    4    4    0    0  0.99798147757E+01  0.23502930084E+02  0.73585695829E+02  0.77889916267E+02  0.00000000000E+00 0. -1.
        -12    1    4    4    0    0  0.78382347073E+01 -0.40745760470E+02  0.92549065860E+01  0.42512447771E+02  0.00000000000E+00 0.  1.
<mgrwt>
<rscale>  2 0.17581830E+03</rscale>
<asrwt>0</asrwt>
<pdfrwt beam="1">  1       21 0.87456084E-01 0.17639349E+03</pdfrwt>
<pdfrwt beam="2">  1       21 0.12586935E-01 0.17639349E+03</pdfrwt>
<totfact> 0.60925725E+04</totfact>
</mgrwt>
</event>
<event>
12    1  0.1029207E-001  0.2051952E+03  0.7546771E-02  0.1145706E+00
         21   -1    0    0  503  502  0.00000000000E+00  0.00000000000E+00  0.12034109903E+03  0.12034109903E+03  0.00000000000E+00 0. -1.
         21   -1    0    0  501  503 -0.00000000000E+00 -0.00000000000E+00 -0.42398933057E+03  0.42398933057E+03  0.00000000000E+00 0.  1.
          6    2    1    2  501    0 -0.21045762172E+02  0.10773628328E+03 -0.26695442749E+03  0.33588022464E+03  0.17175805108E+03 0.  0.
         24    2    3    3    0    0 -0.12667428389E+02  0.10155624265E+03 -0.90208970831E+02  0.15876603597E+03  0.81208753199E+02 0.  0.
         -6    2    1    2    0  502  0.21045762172E+02 -0.10773628328E+03 -0.36693804054E+02  0.20845020496E+03  0.17336384240E+03 0.  0.
        -24    2    5    5    0    0  0.78868704564E+02 -0.72709681774E+02 -0.42746377713E+02  0.14041286868E+03  0.79884607408E+02 0.  0.
          5    1    3    3  501    0 -0.83783337827E+01  0.61800406248E+01 -0.17674545666E+03  0.17711418867E+03  0.47000000000E+01 0. -1.
        -11    1    4    4    0    0 -0.29371101212E+01  0.10005187874E+03 -0.10233346600E+03  0.14314727842E+03  0.00000000000E+00 0.  1.
         12    1    4    4    0    0 -0.97303182678E+01  0.15043639100E+01  0.12124495168E+02  0.15618757551E+02  0.00000000000E+00 0. -1.
         -5    1    5    5    0  502 -0.57822942392E+02 -0.35026601504E+02  0.60525736593E+01  0.68037336278E+02  0.47000000000E+01 0.  1.
         11    1    6    6    0    0  0.24984502021E+02 -0.47198903440E+02 -0.58033594969E+02  0.78866088861E+02  0.00000000000E+00 0. -1.
        -12    1    6    6    0    0  0.53884202543E+02 -0.25510778334E+02  0.15287217256E+02  0.61546779821E+02  0.00000000000E+00 0.  1.
<mgrwt>
<rscale>  2 0.20485560E+03</rscale>
<asrwt>0</asrwt>
<pdfrwt beam="1">  1       21 0.18514015E-01 0.20519516E+03</pdfrwt>
<pdfrwt beam="2">  1       21 0.65229129E-01 0.20519516E+03</pdfrwt>
<totfact> 0.57296856E+04</totfact>
</mgrwt>
</event>
<event>
12    1  0.1029207E-001  0.1990128E+03  0.7546771E-02  0.1150944E+00
         21   -1    0    0  503  502  0.00000000000E+00  0.00000000000E+00  0.69353651819E+02  0.69353651819E+02  0.00000000000E+00 0. -1.
         21   -1    0    0  501  503 -0.00000000000E+00 -0.00000000000E+00 -0.72557892614E+03  0.72557892614E+03  0.00000000000E+00 0. -1.
          6    2    1    2  501    0 -0.91267201467E+02  0.26097131590E+02 -0.51555805262E+03  0.55263568549E+03  0.17491521634E+03 0.  0.
         24    2    3    3    0    0  0.24316271378E+02  0.11668325342E+02 -0.22507053062E+03  0.23962958317E+03  0.77705614399E+02 0.  0.
         -6    2    1    2    0  502  0.91267201467E+02 -0.26097131590E+02 -0.14066722170E+03  0.24229689247E+03  0.17294436822E+03 0.  0.
        -24    2    5    5    0    0  0.87897026464E+01  0.16324920053E+01 -0.13232458114E+03  0.15475741859E+03  0.79750485460E+02 0.  0.
          5    1    3    3  501    0 -0.11558347285E+03  0.14428806247E+02 -0.29048752200E+03  0.31300610231E+03  0.47000000000E+01 0. -1.
        -13    1    4    4    0    0  0.18858931521E+02 -0.22577982422E+02 -0.18186156440E+03  0.18422554979E+03  0.00000000000E+00 0.  1.
         14    1    4    4    0    0  0.54573398565E+01  0.34246307764E+02 -0.43208966218E+02  0.55404033386E+02  0.00000000000E+00 0. -1.
         -5    1    5    5    0  502  0.82477498821E+02 -0.27729623595E+02 -0.83426405578E+01  0.87539473884E+02  0.47000000000E+01 0.  1.
         11    1    6    6    0    0  0.10980375797E+02 -0.13761286233E+01  0.84562949150E+01  0.13927358196E+02  0.00000000000E+00 0. -1.
        -12    1    6    6    0    0 -0.21906731505E+01  0.30086206286E+01 -0.14078087606E+03  0.14083006039E+03  0.00000000000E+00 0.  1.
<mgrwt>
<rscale>  2 0.19857889E+03</rscale>
<asrwt>0</asrwt>
<pdfrwt beam="1">  1       21 0.10669793E-01 0.19901280E+03</pdfrwt>
<pdfrwt beam="2">  1       21 0.11162752E+00 0.19901280E+03</pdfrwt>
<totfact> 0.45442477E+04</totfact>
</mgrwt>
</event>
<event>
12    1  0.1029207E-001  0.1762960E+03  0.7546771E-02  0.1171518E+00
         21   -1    0    0  501  502  0.00000000000E+00  0.00000000000E+00  0.12864623538E+03  0.12864623538E+03  0.00000000000E+00 0.  1.
         21   -1    0    0  502  503 -0.00000000000E+00 -0.00000000000E+00 -0.28969211867E+03  0.28969211867E+03  0.00000000000E+00 0.  1.
         -6    2    1    2    0  503 -0.18383722681E+01 -0.32936223693E+02 -0.16620859119E+03  0.24229232740E+03  0.17318227879E+03 0.  0.
        -24    2    3    3    0    0  0.57208842174E+02 -0.67753415118E-01 -0.13395179522E+03  0.16726232834E+03  0.82223760730E+02 0.  0.
          6    2    1    2  501    0  0.18383722681E+01  0.32936223693E+02  0.51627079045E+01  0.17604602665E+03  0.17285073185E+03 0.  0.
         24    2    5    5    0    0  0.83908309105E+01  0.74602419393E+02  0.44491332587E+02  0.11818552805E+03  0.79702028470E+02 0.  0.
          5    1    5    5  501    0 -0.65524586424E+01 -0.41666195701E+02 -0.39328624682E+02  0.57860498596E+02  0.47000000000E+01 0. -1.
        -13    1    6    6    0    0 -0.27836707430E+02  0.16092023251E+02  0.36910740108E+02  0.48951386376E+02  0.00000000000E+00 0.  1.
         14    1    6    6    0    0  0.36227538340E+02  0.58510396142E+02  0.75805924790E+01  0.69234141673E+02  0.00000000000E+00 0. -1.
         -5    1    3    3    0  503 -0.59047214442E+02 -0.32868470278E+02 -0.32256795978E+02  0.75029999057E+02  0.47000000000E+01 0.  1.
         11    1    4    4    0    0  0.59223709361E+01  0.11511514176E+02  0.84532990194E+01  0.15461167500E+02  0.00000000000E+00 0. -1.
        -12    1    4    4    0    0  0.51286471238E+02 -0.11579267592E+02 -0.14240509423E+03  0.15180116085E+03  0.00000000000E+00 0.  1.
<mgrwt>
<rscale>  2 0.17621451E+03</rscale>
<asrwt>0</asrwt>
<pdfrwt beam="1">  1       21 0.19791729E-01 0.17629599E+03</pdfrwt>
<pdfrwt beam="2">  1       21 0.44568018E-01 0.17629599E+03</pdfrwt>
<totfact> 0.11444685E+05</totfact>
</mgrwt>
</event>
<event>
12    1  0.1029207E-001  0.2814597E+03  0.7546771E-02  0.1095422E+00
         21   -1    0    0  501  502  0.00000000000E+00  0.00000000000E+00  0.14000907998E+03  0.14000907998E+03  0.00000000000E+00 0. -1.
         21   -1    0    0  502  503 -0.00000000000E+00 -0.00000000000E+00 -0.73844620868E+03  0.73844620868E+03  0.00000000000E+00 0.  1.
         -6    2    1    2    0  503  0.21796364245E+03  0.22025810822E+02 -0.80589265139E+02  0.28906071065E+03  0.17049392662E+03 0.  0.
        -24    2    3    3    0    0  0.15540279842E+03 -0.25167056093E+02 -0.10748486902E+03  0.20607583612E+03  0.78299697918E+02 0.  0.
          6    2    1    2  501    0 -0.21796364245E+03 -0.22025810822E+02 -0.51784786356E+03  0.58939457802E+03  0.17670957254E+03 0.  0.
         24    2    5    5    0    0 -0.21665958098E+03 -0.40190733481E+02 -0.52012847305E+03  0.57044843933E+03  0.79505498947E+02 0.  0.
          5    1    5    5  501    0 -0.13040614708E+01  0.18164922659E+02  0.22806094916E+01  0.18946138688E+02  0.47000000000E+01 0. -1.
        -13    1    6    6    0    0 -0.13319239072E+03 -0.23359403101E+02 -0.40687167989E+03  0.42875452015E+03  0.00000000000E+00 0.  1.
         14    1    6    6    0    0 -0.83467190262E+02 -0.16831330380E+02 -0.11325679317E+03  0.14169391917E+03  0.00000000000E+00 0. -1.
         -5    1    3    3    0  503  0.62560844033E+02  0.47192866915E+02  0.26895603883E+02  0.82984874538E+02  0.47000000000E+01 0.  1.
         11    1    4    4    0    0  0.38336917329E+02 -0.12194133291E+02  0.81177979546E+01  0.41040404002E+02  0.00000000000E+00 0. -1.
        -12    1    4    4    0    0  0.11706588109E+03 -0.12972922802E+02 -0.11560266698E+03  0.16503543211E+03  0.00000000000E+00 0.  1.
<mgrwt>
<rscale>  2 0.28048963E+03</rscale>
<asrwt>0</asrwt>
<pdfrwt beam="1">  1       21 0.21539858E-01 0.28145969E+03</pdfrwt>
<pdfrwt beam="2">  1       21 0.11360711E+00 0.28145969E+03</pdfrwt>
<totfact> 0.11508508E+04</totfact>
</mgrwt>
</event>
<event>
12    1  0.1029207E-001  0.1961237E+03  0.7546771E-02  0.1153244E+00
         21   -1    0    0  503  502  0.00000000000E+00  0.00000000000E+00  0.48016374683E+03  0.48016374683E+03  0.00000000000E+00 0.  1.
         21   -1    0    0  501  503 -0.00000000000E+00 -0.00000000000E+00 -0.91539809321E+02  0.91539809321E+02  0.00000000000E+00 0.  1.
          6    2    1    2  501    0 -0.77773936377E+02 -0.47191778349E+02  0.29730818730E+03  0.35616945372E+03  0.17374887742E+03 0.  0.
         24    2    3    3    0    0 -0.96647908948E+02 -0.69219144796E+02  0.15972403209E+03  0.21548213560E+03  0.82393422233E+02 0.  0.
         -6    2    1    2    0  502  0.77773936377E+02  0.47191778349E+02  0.91315750204E+02  0.21553410243E+03  0.17274412856E+03 0.  0.
        -24    2    5    5    0    0 -0.14208276968E+02  0.56019220238E+00  0.77454479399E+02  0.11137337458E+03  0.78756861515E+02 0.  0.
          5    1    3    3  501    0  0.18873972571E+02  0.22027366447E+02  0.13758415522E+03  0.14068731812E+03  0.47000000000E+01 0. -1.
        -13    1    4    4    0    0 -0.69518546610E+02 -0.88222663815E+01  0.45800584058E+02  0.83715913702E+02  0.00000000000E+00 0.  1.
         14    1    4    4    0    0 -0.27129362338E+02 -0.60396878415E+02  0.11392344803E+03  0.13176622190E+03  0.00000000000E+00 0. -1.
         -5    1    5    5    0  502  0.91982213345E+02  0.46631586147E+02  0.13861270805E+02  0.10416072785E+03  0.47000000000E+01 0.  1.
         13    1    6    6    0    0 -0.12880898005E+02 -0.29855343510E+02  0.51500331604E+01  0.32920843109E+02  0.00000000000E+00 0. -1.
        -14    1    6    6    0    0 -0.13273789633E+01  0.30415535712E+02  0.72304446238E+02  0.78452531466E+02  0.00000000000E+00 0.  1.
<mgrwt>
<rscale>  2 0.19590097E+03</rscale>
<asrwt>0</asrwt>
<pdfrwt beam="1">  1       21 0.73871344E-01 0.19612374E+03</pdfrwt>
<pdfrwt beam="2">  1       21 0.14083048E-01 0.19612374E+03</pdfrwt>
<totfact> 0.72234549E+04</totfact>
</mgrwt>
</event>
<event>
12    1  0.1029207E-001  0.2151980E+03  0.7546771E-02  0.1137658E+00
         21   -1    0    0  501  502  0.00000000000E+00  0.00000000000E+00  0.41762133136E+02  0.41762133136E+02  0.00000000000E+00 0. -1.
         21   -1    0    0  502  503 -0.00000000000E+00 -0.00000000000E+00 -0.11253140025E+04  0.11253140025E+04  0.00000000000E+00 0. -1.
         -6    2    1    2    0  503 -0.11422183567E+03 -0.58671446770E+02 -0.61911318011E+03  0.65520362341E+03  0.17176056573E+03 0.  0.
        -24    2    3    3    0    0 -0.48537147067E+02  0.15483709236E+02 -0.44476052976E+03  0.45461847400E+03  0.79186035250E+02 0.  0.
          6    2    1    2  501    0  0.11422183567E+03  0.58671446770E+02 -0.46443868921E+03  0.51187251218E+03  0.17268817642E+03 0.  0.
         24    2    5    5    0    0  0.41425663869E+02  0.41499488122E+02 -0.40223656436E+03  0.41447973457E+03  0.80999404466E+02 0.  0.
          5    1    5    5  501    0  0.72796171805E+02  0.17171958648E+02 -0.62202124854E+02  0.97392777605E+02  0.47000000000E+01 0. -1.
        -11    1    6    6    0    0 -0.15078309708E+02  0.34629395099E+02 -0.99267107229E+02  0.10620974064E+03  0.00000000000E+00 0.  1.
         12    1    6    6    0    0  0.56503973577E+02  0.68700930226E+01 -0.30296945713E+03  0.30826999394E+03  0.00000000000E+00 0. -1.
         -5    1    3    3    0  503 -0.65684688606E+02 -0.74155156006E+02 -0.17435265035E+03  0.20058514941E+03  0.47000000000E+01 0.  1.
         13    1    4    4    0    0 -0.60759002887E+02  0.30119711490E+01 -0.19547855607E+03  0.20472565615E+03  0.00000000000E+00 0. -1.
        -14    1    4    4    0    0  0.12221855820E+02  0.12471738087E+02 -0.24928197369E+03  0.24989281786E+03  0.00000000000E+00 0.  1.
<mgrwt>
<rscale>  2 0.21501183E+03</rscale>
<asrwt>0</asrwt>
<pdfrwt beam="1">  1       21 0.64249427E-02 0.21519798E+03</pdfrwt>
<pdfrwt beam="2">  1       21 0.17312525E+00 0.21519798E+03</pdfrwt>
<totfact> 0.35076907E+04</totfact>
</mgrwt>
</event>
<event>
12    1  0.1029207E-001  0.2445573E+03  0.7546771E-02  0.1117109E+00
         21   -1    0    0  503  502  0.00000000000E+00  0.00000000000E+00  0.15814402028E+03  0.15814402028E+03  0.00000000000E+00 0. -1.
         21   -1    0    0  501  503 -0.00000000000E+00 -0.00000000000E+00 -0.51587357909E+03  0.51587357909E+03  0.00000000000E+00 0. -1.
          6    2    1    2  501    0  0.12415517157E+03  0.11585003820E+03 -0.35535893192E+03  0.43137945878E+03  0.17599013889E+03 0.  0.
         24    2    3    3    0    0  0.74302139206E+02  0.48757289188E+02 -0.82998899389E+02  0.14644290597E+03  0.81600406068E+02 0.  0.
         -6    2    1    2    0  502 -0.12415517157E+03 -0.11585003820E+03 -0.23706268835E+01  0.24263814059E+03  0.17329717084E+03 0.  0.
        -24    2    5    5    0    0 -0.23669952621E+02 -0.15221886456E+02  0.33941012705E+02  0.95791522246E+02  0.85041465805E+02 0.  0.
          5    1    3    3  501    0  0.49853032360E+02  0.67092749013E+02 -0.27236003253E+03  0.28493655281E+03  0.47000000000E+01 0. -1.
        -11    1    4    4    0    0  0.11139640631E+02  0.14389806760E+02  0.15900454753E+02  0.24165731798E+02  0.00000000000E+00 0.  1.
         12    1    4    4    0    0  0.63162498575E+02  0.34367482428E+02 -0.98899354142E+02  0.12227717418E+03  0.00000000000E+00 0. -1.
         -5    1    5    5    0  502 -0.10048521894E+03 -0.10062815174E+03 -0.36311639589E+02  0.14684661835E+03  0.47000000000E+01 0.  1.
         13    1    6    6    0    0 -0.52775576161E+02 -0.15760656078E+02  0.37251751213E+02  0.66493252948E+02  0.00000000000E+00 0. -1.
        -14    1    6    6    0    0  0.29105623540E+02  0.53876962190E+00 -0.33107385081E+01  0.29298269298E+02  0.00000000000E+00 0.  1.
<mgrwt>
<rscale>  2 0.24407317E+03</rscale>
<asrwt>0</asrwt>
<pdfrwt beam="1">  1       21 0.24329849E-01 0.24455729E+03</pdfrwt>
<pdfrwt beam="2">  1       21 0.79365166E-01 0.24455729E+03</pdfrwt>
<totfact> 0.21709311E+04</totfact>
</mgrwt>
</event>
<event>
12    1  0.1029207E-001  0.3512942E+03  0.7546771E-02  0.1062104E+00
         21   -1    0    0  501  502  0.00000000000E+00  0.00000000000E+00  0.39282284289E+03  0.39282284289E+03  0.00000000000E+00 0.  1.
         21   -1    0    0  502  503 -0.00000000000E+00 -0.00000000000E+00 -0.42127119247E+03  0.42127119247E+03  0.00000000000E+00 0. -1.
         -6    2    1    2    0  503 -0.10249193054E+03 -0.28867729745E+03  0.19118340905E+03  0.39994834394E+03  0.17195465691E+03 0.  0.
        -24    2    3    3    0    0 -0.44615780799E+01 -0.10781180392E+03  0.24776811209E+02  0.13530609002E+03  0.77785325608E+02 0.  0.
          6    2    1    2  501    0  0.10249193054E+03  0.28867729745E+03 -0.21963175863E+03  0.41414569142E+03  0.17157903844E+03 0.  0.
         24    2    5    5    0    0  0.11752032438E+03  0.23543558228E+03 -0.22839179057E+03  0.35793749793E+03  0.81948168867E+02 0.  0.
          5    1    5    5  501    0 -0.15028393840E+02  0.53241715170E+02  0.87600319376E+01  0.56208193488E+02  0.47000000000E+01 0. -1.
        -13    1    6    6    0    0  0.11230468098E+03  0.14221959665E+03 -0.13584229765E+03  0.22647711777E+03  0.00000000000E+00 0.  1.
         14    1    6    6    0    0  0.52156433938E+01  0.93215985628E+02 -0.92549492915E+02  0.13146038016E+03  0.00000000000E+00 0. -1.
         -5    1    3    3    0  503 -0.98030352458E+02 -0.18086549353E+03  0.16640659784E+03  0.26464225392E+03  0.47000000000E+01 0.  1.
         11    1    4    4    0    0  0.17872854537E+02 -0.77880895904E+02  0.46151936842E+02  0.92276075720E+02  0.00000000000E+00 0. -1.
        -12    1    4    4    0    0 -0.22334432617E+02 -0.29930908014E+02 -0.21375125633E+02  0.43030014300E+02  0.00000000000E+00 0.  1.
<mgrwt>
<rscale>  2 0.35124822E+03</rscale>
<asrwt>0</asrwt>
<pdfrwt beam="1">  1       21 0.60434284E-01 0.35129415E+03</pdfrwt>
<pdfrwt beam="2">  1       21 0.64810953E-01 0.35129415E+03</pdfrwt>
<totfact> 0.51083772E+03</totfact>
</mgrwt>
</event>
<event>
12    1  0.1029207E-001  0.2712327E+03  0.7546771E-02  0.1101125E+00
         21   -1    0    0  503  502  0.00000000000E+00  0.00000000000E+00  0.84789421979E+03  0.84789421979E+03  0.00000000000E+00 0. -1.
         21   -1    0    0  501  503 -0.00000000000E+00 -0.00000000000E+00 -0.89737023736E+02  0.89737023736E+02  0.00000000000E+00 0. -1.
          6    2    1    2  501    0 -0.53932320777E+02 -0.19770074562E+03  0.28031315933E+03  0.39005463508E+03  0.17768756572E+03 0.  0.
         24    2    3    3    0    0  0.17212354809E+02 -0.99636354994E+02  0.70769333565E+02  0.14796189564E+03  0.81613452283E+02 0.  0.
         -6    2    1    2    0  502  0.53932320777E+02  0.19770074562E+03  0.47784403672E+03  0.54757660845E+03  0.17178748105E+03 0.  0.
        -24    2    5    5    0    0  0.83683463966E+02  0.14250258426E+03  0.43247752429E+03  0.47003837280E+03  0.81174837372E+02 0.  0.
          5    1    3    3  501    0 -0.71144675586E+02 -0.98064390622E+02  0.20954382576E+03  0.24209273944E+03  0.47000000000E+01 0. -1.
        -13    1    4    4    0    0 -0.25465222285E+02 -0.53898971274E+01  0.19322051681E+02  0.32417128470E+02  0.00000000000E+00 0.  1.
         14    1    4    4    0    0  0.42677577094E+02 -0.94246457867E+02  0.51447281883E+02  0.11554476717E+03  0.00000000000E+00 0. -1.
         -5    1    5    5    0  502 -0.29751143189E+02  0.55198161352E+02  0.45366512437E+02  0.77538235654E+02  0.47000000000E+01 0.  1.
         11    1    6    6    0    0  0.94561402571E+02  0.11403200521E+03  0.30644283059E+03  0.34037092339E+03  0.00000000000E+00 0. -1.
        -12    1    6    6    0    0 -0.10877938605E+02  0.28470579051E+02  0.12603469369E+03  0.12966744940E+03  0.00000000000E+00 0.  1.
<mgrwt>
<rscale>  2 0.27027053E+03</rscale>
<asrwt>0</asrwt>
<pdfrwt beam="1">  1       21 0.13044526E+00 0.27123265E+03</pdfrwt>
<pdfrwt beam="2">  1       21 0.13805697E-01 0.27123265E+03</pdfrwt>
<totfact> 0.18685792E+04</totfact>
</mgrwt>
</event>
<event>
12    1  0.1029207E-001  0.2191366E+03  0.7546771E-02  0.1134718E+00
         21   -1    0    0  501  502  0.00000000000E+00  0.00000000000E+00  0.76393474781E+03  0.76393474781E+03  0.00000000000E+00 0. -1.
         21   -1    0    0  502  503 -0.00000000000E+00 -0.00000000000E+00 -0.11820505770E+03  0.11820505770E+03  0.00000000000E+00 0. -1.
         -6    2    1    2    0  503 -0.13227093109E+03  0.20709383300E+02  0.19874222128E+02  0.21902902559E+03  0.17220409861E+03 0.  0.
        -24    2    3    3    0    0 -0.16306310482E+03  0.41674931337E+01  0.82806625942E+01  0.18190366074E+03  0.80083882665E+02 0.  0.
          6    2    1    2  501    0  0.13227093109E+03 -0.20709383300E+02  0.62585546798E+03  0.66311077992E+03  0.17348303052E+03 0.  0.
         24    2    5    5    0    0  0.73685711712E+02  0.43448476623E+02  0.21581753439E+03  0.24394296638E+03  0.74924017971E+02 0.  0.
          5    1    5    5  501    0  0.58585219383E+02 -0.64157859923E+02  0.41003793359E+03  0.41916781354E+03  0.47000000000E+01 0. -1.
        -11    1    6    6    0    0  0.11803236205E+01  0.29566861440E+02  0.11647142823E+03  0.12017148602E+03  0.00000000000E+00 0.  1.
         12    1    6    6    0    0  0.72505388091E+02  0.13881615183E+02  0.99346106155E+02  0.12377148036E+03  0.00000000000E+00 0. -1.
         -5    1    3    3    0  503  0.30792173728E+02  0.16541890166E+02  0.11593559534E+02  0.37125364858E+02  0.47000000000E+01 0.  1.
         13    1    4    4    0    0 -0.40988334162E+02 -0.13330805253E+02  0.35233646530E+02  0.55670133410E+02  0.00000000000E+00 0. -1.
        -14    1    4    4    0    0 -0.12207477066E+03  0.17498298386E+02 -0.26952983935E+02  0.12623352733E+03  0.00000000000E+00 0.  1.
<mgrwt>
<rscale>  2 0.21888337E+03</rscale>
<asrwt>0</asrwt>
<pdfrwt beam="1">  1       21 0.11752842E+00 0.21913658E+03</pdfrwt>
<pdfrwt beam="2">  1       21 0.18185394E-01 0.21913658E+03</pdfrwt>
<totfact> 0.15053649E+04</totfact>
</mgrwt>
</event>
<event>
12    1  0.1029207E-001  0.2031175E+03  0.7546771E-02  0.1148360E+00
         21   -1    0    0  501  502  0.00000000000E+00  0.00000000000E+00  0.66524572276E+03  0.66524572276E+03  0.00000000000E+00 0.  1.
         21   -1    0    0  502  503 -0.00000000000E+00 -0.00000000000E+00 -0.60455951267E+02  0.60455951267E+02  0.00000000000E+00 0.  1.
         -6    2    1    2    0  503 -0.65455578790E+02  0.70735627026E+02  0.31925773449E+03  0.37529441255E+03  0.17214073699E+03 0.  0.
        -24    2    3    3    0    0 -0.31512334223E+02 -0.29290024427E+02  0.14739109925E+03  0.17350862239E+03  0.80809486861E+02 0.  0.
          6    2    1    2  501    0  0.65455578790E+02 -0.70735627026E+02  0.28553203700E+03  0.35040726148E+03  0.17879805093E+03 0.  0.
         24    2    5    5    0    0  0.27797159773E+02 -0.14936001421E+02  0.26704482929E+03  0.28043854283E+03  0.79605711005E+02 0.  0.
          5    1    5    5  501    0  0.37658419016E+02 -0.55799625605E+02  0.18487207713E+02  0.69968718650E+02  0.47000000000E+01 0. -1.
        -13    1    6    6    0    0  0.20540876057E+02 -0.45519050711E+02  0.11829633611E+03  0.12840535309E+03  0.00000000000E+00 0.  1.
         14    1    6    6    0    0  0.72562837163E+01  0.30583049290E+02  0.14874849318E+03  0.15203318974E+03  0.00000000000E+00 0. -1.
         -5    1    3    3    0  503 -0.33943244567E+02  0.10002565145E+03  0.17186663524E+03  0.20178579016E+03  0.47000000000E+01 0.  1.
         13    1    4    4    0    0  0.24363982882E+02  0.47890085973E+01  0.54353667093E+02  0.59756668178E+02  0.00000000000E+00 0. -1.
        -14    1    4    4    0    0 -0.55876317104E+02 -0.34079033024E+02  0.93037432156E+02  0.11375195421E+03  0.00000000000E+00 0.  1.
<mgrwt>
<rscale>  2 0.20164275E+03</rscale>
<asrwt>0</asrwt>
<pdfrwt beam="1">  1       21 0.10234549E+00 0.20311747E+03</pdfrwt>
<pdfrwt beam="2">  1       21 0.93009160E-02 0.20311747E+03</pdfrwt>
<totfact> 0.71269034E+04</totfact>
</mgrwt>
</event>
<event>
12    1  0.1029207E-001  0.1745954E+03  0.7546771E-02  0.1173275E+00
         21   -1    0    0  501  502  0.00000000000E+00  0.00000000000E+00  0.63130584259E+02  0.63130584259E+02  0.00000000000E+00 0.  1.
         21   -1    0    0  502  503 -0.00000000000E+00 -0.00000000000E+00 -0.64721423035E+03  0.64721423035E+03  0.00000000000E+00 0.  1.
         -6    2    1    2    0  503 -0.11245315829E+02  0.21012459280E+02 -0.47149291247E+03  0.50259438474E+03  0.17241684515E+03 0.  0.
        -24    2    3    3    0    0  0.15803234593E+02 -0.30464409379E+02 -0.12936151804E+03  0.15552454575E+03  0.79219060314E+02 0.  0.
          6    2    1    2  501    0  0.11245315829E+02 -0.21012459280E+02 -0.11259073362E+03  0.20775042987E+03  0.17296123045E+03 0.  0.
         24    2    5    5    0    0 -0.19709578933E+02 -0.74418347551E+02 -0.80222085927E+02  0.13789190308E+03  0.81560014161E+02 0.  0.
          5    1    5    5  501    0  0.30954894762E+02  0.53405888271E+02 -0.32368647692E+02  0.69858526789E+02  0.47000000000E+01 0. -1.
        -13    1    6    6    0    0 -0.31625721696E+01 -0.56081710099E+00  0.15518178676E+02  0.15847089574E+02  0.00000000000E+00 0.  1.
         14    1    6    6    0    0 -0.16547006764E+02 -0.73857530450E+02 -0.95740264603E+02  0.12204481350E+03  0.00000000000E+00 0. -1.
         -5    1    3    3    0  503 -0.27048550422E+02  0.51476868659E+02 -0.34213139442E+03  0.34706983899E+03  0.47000000000E+01 0.  1.
         13    1    4    4    0    0  0.20928094297E+02 -0.27336859954E+02 -0.97769402446E+01  0.35789350421E+02  0.00000000000E+00 0. -1.
        -14    1    4    4    0    0 -0.51248597040E+01 -0.31275494250E+01 -0.11958457780E+03  0.11973519533E+03  0.00000000000E+00 0.  1.
<mgrwt>
<rscale>  2 0.17446047E+03</rscale>
<asrwt>0</asrwt>
<pdfrwt beam="1">  1       21 0.97123975E-02 0.17459544E+03</pdfrwt>
<pdfrwt beam="2">  1       21 0.99571421E-01 0.17459544E+03</pdfrwt>
<totfact> 0.71444106E+04</totfact>
</mgrwt>
</event>
<event>
12    1  0.1029207E-001  0.1971786E+03  0.7546771E-02  0.1152190E+00
         21   -1    0    0  501  502  0.00000000000E+00  0.00000000000E+00  0.22381291645E+03  0.22381291645E+03  0.00000000000E+00 0. -1.
         21   -1    0    0  502  503 -0.00000000000E+00 -0.00000000000E+00 -0.18534996724E+03  0.18534996724E+03  0.00000000000E+00 0. -1.
         -6    2    1    2    0  503 -0.75874591060E+02  0.57241453267E+02 -0.32478719032E+02  0.19961066041E+03  0.17249930730E+03 0.  0.
        -24    2    3    3    0    0 -0.11948727991E+03  0.54946329124E+02 -0.20121381815E+02  0.15398031955E+03  0.77516189654E+02 0.  0.
          6    2    1    2  501    0  0.75874591060E+02 -0.57241453267E+02  0.70941668241E+02  0.20955222327E+03  0.17275959147E+03 0.  0.
         24    2    5    5    0    0 -0.71221410485E+00  0.16249646427E+02  0.33817754288E+01  0.83643885279E+02  0.81977465694E+02 0.  0.
          5    1    5    5  501    0  0.76586805165E+02 -0.73491099694E+02  0.67559892812E+02  0.12590833799E+03  0.47000000000E+01 0. -1.
        -11    1    6    6    0    0 -0.23867047578E+02  0.25923801999E+01  0.34810665525E+02  0.42286390594E+02  0.00000000000E+00 0.  1.
         12    1    6    6    0    0  0.23154833473E+02  0.13657266227E+02 -0.31428890096E+02  0.41357494685E+02  0.00000000000E+00 0. -1.
         -5    1    3    3    0  503  0.43612688854E+02  0.22951241429E+01 -0.12357337217E+02  0.45630340860E+02  0.47000000000E+01 0.  1.
         13    1    4    4    0    0 -0.10623359364E+03  0.31654664058E+02 -0.42848052402E+02  0.11884254192E+03  0.00000000000E+00 0. -1.
        -14    1    4    4    0    0 -0.13253686272E+02  0.23291665065E+02  0.22726670587E+02  0.35137777637E+02  0.00000000000E+00 0.  1.
<mgrwt>
<rscale>  2 0.19712161E+03</rscale>
<asrwt>0</asrwt>
<pdfrwt beam="1">  1       21 0.34432756E-01 0.19717863E+03</pdfrwt>
<pdfrwt beam="2">  1       21 0.28515380E-01 0.19717863E+03</pdfrwt>
<totfact> 0.95424178E+04</totfact>
</mgrwt>
</event>
<event>
12    1  0.1029207E-001  0.2032967E+03  0.7546771E-02  0.1147014E+00
         21   -1    0    0  501  502  0.00000000000E+00  0.00000000000E+00  0.19590824319E+03  0.19590824319E+03  0.00000000000E+00 0. -1.
         21   -1    0    0  502  503 -0.00000000000E+00 -0.00000000000E+00 -0.49235901694E+03  0.49235901694E+03  0.00000000000E+00 0. -1.
         -6    2    1    2    0  503  0.91245611418E+02 -0.56568623523E+02 -0.40842971886E+03  0.45617068958E+03  0.17248504868E+03 0.  0.
        -24    2    3    3    0    0  0.94839826519E+02 -0.74973201127E+02 -0.41171831762E+03  0.43656069874E+03  0.80359797436E+02 0.  0.
          6    2    1    2  501    0 -0.91245611418E+02  0.56568623523E+02  0.11197894511E+03  0.23209657055E+03  0.17263766433E+03 0.  0.
         24    2    5    5    0    0 -0.53874190242E+02  0.73214585426E+02  0.10122146521E+02  0.12223024911E+03  0.81086201381E+02 0.  0.
          5    1    5    5  501    0 -0.37371421176E+02 -0.16645961902E+02  0.10185679859E+03  0.10986632144E+03  0.47000000000E+01 0. -1.
        -13    1    6    6    0    0  0.99929391555E+01 -0.97029323335E+01  0.10702759200E+02  0.17565727521E+02  0.00000000000E+00 0.  1.
         14    1    6    6    0    0 -0.63867129398E+02  0.82917517759E+02 -0.58061267883E+00  0.10466452159E+03  0.00000000000E+00 0. -1.
         -5    1    3    3    0  503 -0.35942151002E+01  0.18404577603E+02  0.32885987603E+01  0.19609990840E+02  0.47000000000E+01 0.  1.
         11    1    4    4    0    0  0.61318183085E+02  0.12469515302E+01 -0.19397087458E+03  0.20343592271E+03  0.00000000000E+00 0. -1.
        -12    1    4    4    0    0  0.33521643434E+02 -0.76220152657E+02 -0.21774744304E+03  0.23312477603E+03  0.00000000000E+00 0.  1.
<mgrwt>
<rscale>  2 0.20326426E+03</rscale>
<asrwt>0</asrwt>
<pdfrwt beam="1">  1       21 0.30139730E-01 0.20329666E+03</pdfrwt>
<pdfrwt beam="2">  1       21 0.75747541E-01 0.20329666E+03</pdfrwt>
<totfact> 0.16311596E+04</totfact>
</mgrwt>
</event>
<event>
12    1  0.1029207E-001  0.2412763E+03  0.7546771E-02  0.1118948E+00
         21   -1    0    0  503  502  0.00000000000E+00  0.00000000000E+00  0.96863219912E+02  0.96863219912E+02  0.00000000000E+00 0.  1.
         21   -1    0    0  501  503 -0.00000000000E+00 -0.00000000000E+00 -0.62479678673E+03  0.62479678673E+03  0.00000000000E+00 0. -1.
          6    2    1    2  501    0  0.15393549808E+03  0.69007385335E+02 -0.19347682445E+03  0.30925782812E+03  0.17247888523E+03 0.  0.
         24    2    3    3    0    0  0.72155066278E+02  0.73556447924E+02 -0.40954840427E+02  0.13607070790E+03  0.78873531519E+02 0.  0.
         -6    2    1    2    0  502 -0.15393549808E+03 -0.69007385335E+02 -0.33445674236E+03  0.41240217852E+03  0.17249952909E+03 0.  0.
        -24    2    5    5    0    0 -0.68720725821E+02  0.20952063256E+02 -0.10126527110E+03  0.14829119413E+03  0.81080799302E+02 0.  0.
          5    1    3    3  501    0  0.81780431805E+02 -0.45490625892E+01 -0.15252198403E+03  0.17318712021E+03  0.47000000000E+01 0. -1.
        -11    1    4    4    0    0  0.85477443104E+02  0.74245547845E+02 -0.45437690242E+02  0.12199745222E+03  0.00000000000E+00 0.  1.
         12    1    4    4    0    0 -0.13322376826E+02 -0.68909992101E+00  0.44828498144E+01  0.14073255681E+02  0.00000000000E+00 0. -1.
         -5    1    5    5    0  502 -0.85214772262E+02 -0.89959448590E+02 -0.23319147127E+03  0.26411098439E+03  0.47000000000E+01 0.  1.
         13    1    6    6    0    0 -0.49876534842E+02  0.18420181158E+02 -0.11373781963E+03  0.12555183558E+03  0.00000000000E+00 0. -1.
        -14    1    6    6    0    0 -0.18844190979E+02  0.25318820978E+01  0.12472548537E+02  0.22739358557E+02  0.00000000000E+00 0.  1.
<mgrwt>
<rscale>  2 0.24127259E+03</rscale>
<asrwt>0</asrwt>
<pdfrwt beam="1">  1       21 0.14902034E-01 0.24127628E+03</pdfrwt>
<pdfrwt beam="2">  1       21 0.96122580E-01 0.24127628E+03</pdfrwt>
<totfact> 0.34896127E+04</totfact>
</mgrwt>
</event>
<event>
12    1  0.1029207E-001  0.1742350E+03  0.7546771E-02  0.1173557E+00
         21   -1    0    0  503  502  0.00000000000E+00  0.00000000000E+00  0.23272961584E+04  0.23272961584E+04  0.00000000000E+00 0.  1.
         21   -1    0    0  501  503 -0.00000000000E+00 -0.00000000000E+00 -0.19122237959E+02  0.19122237959E+02  0.00000000000E+00 0.  1.
          6    2    1    2  501    0  0.12390579287E+02  0.18586221568E+02  0.49225678331E+03  0.52218251862E+03  0.17279718733E+03 0.  0.
         24    2    3    3    0    0  0.47725099456E+02 -0.27021226199E+02  0.41153061062E+03  0.42284786926E+03  0.80218733923E+02 0.  0.
         -6    2    1    2    0  502 -0.12390579287E+02 -0.18586221568E+02  0.18159171371E+04  0.18242358777E+04  0.17257611253E+03 0.  0.
        -24    2    5    5    0    0 -0.32352624598E+00 -0.68599504824E+02  0.15401295205E+04  0.15436510568E+04  0.78445193725E+02 0.  0.
          5    1    3    3  501    0 -0.35334520169E+02  0.45607447767E+02  0.80726172688E+02  0.99334649364E+02  0.47000000000E+01 0. -1.
        -13    1    4    4    0    0 -0.13217592154E+02 -0.18361280611E+02  0.37576963313E+02  0.43861937256E+02  0.00000000000E+00 0.  1.
         14    1    4    4    0    0  0.60942691609E+02 -0.86599455874E+01  0.37395364731E+03  0.37898593200E+03  0.00000000000E+00 0. -1.
         -5    1    5    5    0  502 -0.12067053041E+02  0.50013283256E+02  0.27578761661E+03  0.28058482095E+03  0.47000000000E+01 0.  1.
         13    1    6    6    0    0 -0.14125941312E+02 -0.43390399851E+02  0.32565391190E+03  0.32883542898E+03  0.00000000000E+00 0. -1.
        -14    1    6    6    0    0  0.13802415066E+02 -0.25209104973E+02  0.12144756086E+04  0.12148156278E+04  0.00000000000E+00 0.  1.
<mgrwt>
<rscale>  2 0.17418018E+03</rscale>
<asrwt>0</asrwt>
<pdfrwt beam="1">  1       21 0.35804534E+00 0.17423502E+03</pdfrwt>
<pdfrwt beam="2">  1       21 0.29418846E-02 0.17423502E+03</pdfrwt>
<totfact> 0.10483060E+04</totfact>
</mgrwt>
</event>
<event>
12    1  0.1029207E-001  0.2000371E+03  0.7546771E-02  0.1149797E+00
         21   -1    0    0  503  502  0.00000000000E+00  0.00000000000E+00  0.37988884647E+02  0.37988884647E+02  0.00000000000E+00 0.  1.
         21   -1    0    0  501  503 -0.00000000000E+00 -0.00000000000E+00 -0.10637840179E+04  0.10637840179E+04  0.00000000000E+00 0.  1.
          6    2    1    2  501    0 -0.45979367829E+02  0.89078649546E+02 -0.45331328138E+03  0.49548742404E+03  0.17310617618E+03 0.  0.
         24    2    3    3    0    0 -0.53491638837E+02  0.10593017544E+03 -0.45482306182E+03  0.47638827281E+03  0.77454576415E+02 0.  0.
         -6    2    1    2    0  502  0.45979367829E+02 -0.89078649546E+02 -0.57248185191E+03  0.60628547854E+03  0.17261953152E+03 0.  0.
        -24    2    5    5    0    0 -0.17378567701E+02 -0.57477857741E+02 -0.45695051448E+03  0.47070370261E+03  0.95668616717E+02 0.  0.
          5    1    3    3  501    0  0.75122710083E+01 -0.16851525897E+02  0.15097804403E+01  0.19099151230E+02  0.47000000000E+01 0. -1.
        -11    1    4    4    0    0 -0.52371157013E+02  0.10928826624E+03 -0.33055802579E+03  0.35207282150E+03  0.00000000000E+00 0.  1.
         12    1    4    4    0    0 -0.11204818244E+01 -0.33580907999E+01 -0.12426503603E+03  0.12431545131E+03  0.00000000000E+00 0. -1.
         -5    1    5    5    0  502  0.63357935530E+02 -0.31600791805E+02 -0.11553133742E+03  0.13558177593E+03  0.47000000000E+01 0.  1.
         13    1    6    6    0    0  0.14119056224E+02  0.20367596999E+02 -0.16729433309E+03  0.16912001845E+03  0.00000000000E+00 0. -1.
        -14    1    6    6    0    0 -0.31497623925E+02 -0.77845454740E+02 -0.28965618139E+03  0.30158368416E+03  0.00000000000E+00 0.  1.
<mgrwt>
<rscale>  2 0.19993181E+03</rscale>
<asrwt>0</asrwt>
<pdfrwt beam="1">  1       21 0.58444434E-02 0.20003714E+03</pdfrwt>
<pdfrwt beam="2">  1       21 0.16365909E+00 0.20003714E+03</pdfrwt>
<totfact> 0.48613538E+04</totfact>
</mgrwt>
</event>
<event>
12    1  0.1029207E-001  0.2723398E+03  0.7546771E-02  0.1099960E+00
         21   -1    0    0  501  502  0.00000000000E+00  0.00000000000E+00  0.26745173318E+03  0.26745173318E+03  0.00000000000E+00 0.  1.
         21   -1    0    0  502  503 -0.00000000000E+00 -0.00000000000E+00 -0.27882738322E+03  0.27882738322E+03  0.00000000000E+00 0. -1.
         -6    2    1    2    0  503  0.15346734935E+03  0.14381978892E+03  0.14977576121E+02  0.27275134658E+03  0.17301043400E+03 0.  0.
        -24    2    3    3    0    0  0.12051259786E+03  0.17192537817E+03 -0.53535956871E+01  0.22467446710E+03  0.79801837581E+02 0.  0.
          6    2    1    2  501    0 -0.15346734935E+03 -0.14381978892E+03 -0.26353226159E+02  0.27352776982E+03  0.17287738236E+03 0.  0.
         24    2    5    5    0    0 -0.56232807650E+02 -0.30191048200E+02 -0.63132435858E+02  0.11944711859E+03  0.78792649626E+02 0.  0.
          5    1    5    5  501    0 -0.97234541701E+02 -0.11362874072E+03  0.36779209699E+02  0.15408065123E+03  0.47000000000E+01 0. -1.
        -13    1    6    6    0    0 -0.14003187576E+02 -0.11393344641E+02  0.18365773669E+02  0.25752654365E+02  0.00000000000E+00 0.  1.
         14    1    6    6    0    0 -0.42229620075E+02 -0.18797703559E+02 -0.81498209527E+02  0.93694464227E+02  0.00000000000E+00 0. -1.
         -5    1    3    3    0  503  0.32954751496E+02 -0.28105589249E+02  0.20331171808E+02  0.48076879477E+02  0.47000000000E+01 0.  1.
         11    1    4    4    0    0  0.12990161027E+03  0.13922097110E+03 -0.13772052120E+01  0.19041744626E+03  0.00000000000E+00 0. -1.
        -12    1    4    4    0    0 -0.93890124189E+01  0.32704407068E+02 -0.39763904751E+01  0.34257020843E+02  0.00000000000E+00 0.  1.
<mgrwt>
<rscale>  2 0.27231868E+03</rscale>
<asrwt>0</asrwt>
<pdfrwt beam="1">  1       21 0.41146421E-01 0.27233980E+03</pdfrwt>
<pdfrwt beam="2">  1       21 0.42896520E-01 0.27233980E+03</pdfrwt>
<totfact> 0.28610433E+04</totfact>
</mgrwt>
</event>
<event>
12    1  0.1029207E-001  0.1821014E+03  0.7546771E-02  0.1166250E+00
         21   -1    0    0  503  502  0.00000000000E+00  0.00000000000E+00  0.28938696865E+03  0.28938696865E+03  0.00000000000E+00 0.  1.
         21   -1    0    0  501  503 -0.00000000000E+00 -0.00000000000E+00 -0.11422890622E+03  0.11422890622E+03  0.00000000000E+00 0. -1.
          6    2    1    2  501    0 -0.28661725822E+02  0.44871444839E+02  0.69626297757E+02  0.19314527707E+03  0.17211140469E+03 0.  0.
         24    2    3    3    0    0 -0.60286947023E+02  0.21779956540E+02  0.99763696474E+02  0.14350936014E+03  0.80828576785E+02 0.  0.
         -6    2    1    2    0  502  0.28661725822E+02 -0.44871444839E+02  0.10553176467E+03  0.21047059780E+03  0.17414355600E+03 0.  0.
        -24    2    5    5    0    0  0.65450260537E+02  0.16600860805E+02  0.82774553665E+02  0.13515644707E+03  0.82802857844E+02 0.  0.
          5    1    3    3  501    0  0.31625221201E+02  0.23091488298E+02 -0.30137398717E+02  0.49635916928E+02  0.47000000000E+01 0. -1.
        -11    1    4    4    0    0  0.11136556822E+02 -0.88278748243E+01  0.48201222905E+02  0.50252484130E+02  0.00000000000E+00 0.  1.
         12    1    4    4    0    0 -0.71423503845E+02  0.30607831365E+02  0.51562473570E+02  0.93256876009E+02  0.00000000000E+00 0. -1.
         -5    1    5    5    0  502 -0.36788534715E+02 -0.61472305644E+02  0.22757211004E+02  0.75314150731E+02  0.47000000000E+01 0.  1.
         11    1    6    6    0    0  0.76037492531E+02  0.79877829138E+01  0.32525362902E+02  0.83086726848E+02  0.00000000000E+00 0. -1.
        -12    1    6    6    0    0 -0.10587231994E+02  0.86130778917E+01  0.50249190763E+02  0.52069720226E+02  0.00000000000E+00 0.  1.
<mgrwt>
<rscale>  2 0.18161385E+03</rscale>
<asrwt>0</asrwt>
<pdfrwt beam="1">  1       21 0.44521072E-01 0.18210140E+03</pdfrwt>
<pdfrwt beam="2">  1       21 0.17573678E-01 0.18210140E+03</pdfrwt>
<totfact> 0.14264508E+05</totfact>
</mgrwt>
</event>
<event>
12    1  0.1029207E-001  0.3038078E+03  0.7546771E-02  0.1083990E+00
         21   -1    0    0  503  502  0.00000000000E+00  0.00000000000E+00  0.78400446582E+03  0.78400446582E+03  0.00000000000E+00 0.  1.
         21   -1    0    0  501  503 -0.00000000000E+00 -0.00000000000E+00 -0.19569465464E+03  0.19569465464E+03  0.00000000000E+00 0.  1.
          6    2    1    2  501    0  0.24272804012E+03 -0.49820089906E+01 -0.20419032656E+02  0.29936835114E+03  0.17396192370E+03 0.  0.
         24    2    3    3    0    0  0.18913125607E+03 -0.12668975095E+02 -0.77675616719E+02  0.22042462988E+03  0.81378013441E+02 0.  0.
         -6    2    1    2    0  502 -0.24272804012E+03  0.49820089906E+01  0.60872884384E+03  0.68033076932E+03  0.18264016120E+03 0.  0.
        -24    2    5    5    0    0 -0.11610343945E+03 -0.53376997163E+01  0.47672811904E+03  0.49706438606E+03  0.79339805374E+02 0.  0.
          5    1    3    3  501    0  0.53596784054E+02  0.76869661040E+01  0.57256584063E+02  0.78943721266E+02  0.47000000000E+01 0. -1.
        -13    1    4    4    0    0  0.36745198152E+02 -0.36430332848E+02 -0.24849162250E+02  0.57400867617E+02  0.00000000000E+00 0.  1.
         14    1    4    4    0    0  0.15238605792E+03  0.23761357753E+02 -0.52826454469E+02  0.16302376226E+03  0.00000000000E+00 0. -1.
         -5    1    5    5    0  502 -0.12662460068E+03  0.10319708707E+02  0.13200072480E+03  0.18326638326E+03  0.47000000000E+01 0.  1.
         11    1    6    6    0    0 -0.66961187329E+02 -0.42216966409E+02  0.25798617733E+03  0.26985725959E+03  0.00000000000E+00 0. -1.
        -12    1    6    6    0    0 -0.49142252117E+02  0.36879266692E+02  0.21874194172E+03  0.22720712647E+03  0.00000000000E+00 0.  1.
<mgrwt>
<rscale>  2 0.30251539E+03</rscale>
<asrwt>0</asrwt>
<pdfrwt beam="1">  1       21 0.12061607E+00 0.30380775E+03</pdfrwt>
<pdfrwt beam="2">  1       21 0.30106870E-01 0.30380775E+03</pdfrwt>
<totfact> 0.51341829E+03</totfact>
</mgrwt>
</event>
<event>
12    1  0.1029207E-001  0.2052544E+03  0.7546771E-02  0.1145588E+00
         21   -1    0    0  501  502  0.00000000000E+00  0.00000000000E+00  0.82027067813E+03  0.82027067813E+03  0.00000000000E+00 0.  1.
         21   -1    0    0  502  503 -0.00000000000E+00 -0.00000000000E+00 -0.11700801012E+03  0.11700801012E+03  0.00000000000E+00 0.  1.
         -6    2    1    2    0  503  0.11078982950E+02 -0.10963870985E+03 -0.45686433828E+00  0.20423669373E+03  0.17195647059E+03 0.  0.
        -24    2    3    3    0    0 -0.25194896283E+02 -0.46289769443E+02  0.57208589028E+02  0.11109015822E+03  0.79313775856E+02 0.  0.
          6    2    1    2  501    0 -0.11078982950E+02  0.10963870985E+03  0.70371953235E+03  0.73304199453E+03  0.17316464702E+03 0.  0.
         24    2    5    5    0    0  0.58390319238E+02  0.83110991469E+02  0.48617184777E+03  0.50308811035E+03  0.80110641732E+02 0.  0.
          5    1    5    5  501    0 -0.69469302188E+02  0.26527718381E+02  0.21754768457E+03  0.22995388419E+03  0.47000000000E+01 0. -1.
        -11    1    6    6    0    0 -0.68897315078E+01  0.32276976406E+02  0.26318484078E+03  0.26524617249E+03  0.00000000000E+00 0.  1.
         12    1    6    6    0    0  0.65280050745E+02  0.50834015063E+02  0.22298700700E+03  0.23784193786E+03  0.00000000000E+00 0. -1.
         -5    1    3    3    0  503  0.36273879233E+02 -0.63348940407E+02 -0.57665453366E+02  0.93146535509E+02  0.47000000000E+01 0.  1.
         11    1    4    4    0    0 -0.46840628365E+02 -0.54512824064E+02  0.46293597292E+02  0.85491459242E+02  0.00000000000E+00 0. -1.
        -12    1    4    4    0    0  0.21645732082E+02  0.82230546210E+01  0.10914991736E+02  0.25598698976E+02  0.00000000000E+00 0.  1.
<mgrwt>
<rscale>  2 0.20499940E+03</rscale>
<asrwt>0</asrwt>
<pdfrwt beam="1">  1       21 0.12619549E+00 0.20525444E+03</pdfrwt>
<pdfrwt beam="2">  1       21 0.18001233E-01 0.20525444E+03</pdfrwt>
<totfact> 0.12961771E+04</totfact>
</mgrwt>
</event>
<event>
12    1  0.1029207E-001  0.2081842E+03  0.7546771E-02  0.1143703E+00
         21   -1    0    0  503  502  0.00000000000E+00  0.00000000000E+00  0.12261636001E+04  0.12261636001E+04  0.00000000000E+00 0. -1.
         21   -1    0    0  501  503 -0.00000000000E+00 -0.00000000000E+00 -0.45616007247E+02  0.45616007247E+02  0.00000000000E+00 0.  1.
          6    2    1    2  501    0  0.10623144785E+03  0.56187215912E+02  0.27646554481E+03  0.34403771068E+03  0.16579090795E+03 0.  0.
         24    2    3    3    0    0  0.12559594064E+03  0.83013197042E+02  0.24335417949E+03  0.29699443956E+03  0.79491567270E+02 0.  0.
         -6    2    1    2    0  502 -0.10623144785E+03 -0.56187215912E+02  0.90408204802E+03  0.92774189664E+03  0.16999574551E+03 0.  0.
        -24    2    5    5    0    0 -0.87143164097E+01 -0.51788170845E+02  0.26131525554E+03  0.27758792869E+03  0.77533485862E+02 0.  0.
          5    1    3    3  501    0 -0.19364492782E+02 -0.26825981130E+02  0.33111365320E+02  0.47043271120E+02  0.47000000000E+01 0. -1.
        -11    1    4    4    0    0  0.65033895242E+02  0.81646879566E+02  0.11652315614E+03  0.15643933773E+03  0.00000000000E+00 0.  1.
         12    1    4    4    0    0  0.60562045395E+02  0.13663174759E+01  0.12683102336E+03  0.14055510183E+03  0.00000000000E+00 0. -1.
         -5    1    5    5    0  502 -0.97517131445E+02 -0.43990450673E+01  0.64276679248E+03  0.65015396794E+03  0.47000000000E+01 0.  1.
         11    1    6    6    0    0 -0.27917788225E+02 -0.12332144197E+02  0.19926841499E+03  0.20159212756E+03  0.00000000000E+00 0. -1.
        -12    1    6    6    0    0  0.19203471815E+02 -0.39456026648E+02  0.62046840544E+02  0.75995801135E+02  0.00000000000E+00 0.  1.
<mgrwt>
<rscale>  2 0.20732414E+03</rscale>
<asrwt>0</asrwt>
<pdfrwt beam="1">  1       21 0.18864053E+00 0.20818424E+03</pdfrwt>
<pdfrwt beam="2">  1       21 0.70178482E-02 0.20818424E+03</pdfrwt>
<totfact> 0.23716935E+04</totfact>
</mgrwt>
</event>
<event>
12    1  0.1029207E-001  0.2939414E+03  0.7546771E-02  0.1088452E+00
         21   -1    0    0  501  502  0.00000000000E+00  0.00000000000E+00  0.12727620837E+03  0.12727620837E+03  0.00000000000E+00 0. -1.
         21   -1    0    0  502  503 -0.00000000000E+00 -0.00000000000E+00 -0.67842339399E+03  0.67842339399E+03  0.00000000000E+00 0.  1.
         -6    2    1    2    0  503  0.21347259750E+03  0.10204546946E+03 -0.29871595809E+03  0.41908563006E+03  0.17440674869E+03 0.  0.
        -24    2    3    3    0    0  0.16270492227E+03  0.23784489269E+01 -0.19569047245E+03  0.26694355002E+03  0.80532907177E+02 0.  0.
          6    2    1    2  501    0 -0.21347259750E+03 -0.10204546946E+03 -0.25243122754E+03  0.38661397230E+03  0.17252539296E+03 0.  0.
         24    2    5    5    0    0 -0.18198441090E+03 -0.72938848806E+02 -0.11512024484E+03  0.24268656965E+03  0.84886387850E+02 0.  0.
          5    1    5    5  501    0 -0.31488186603E+02 -0.29106620650E+02 -0.13731098271E+03  0.14392740265E+03  0.47000000000E+01 0. -1.
        -13    1    6    6    0    0 -0.97464414754E+02 -0.46684854134E+02 -0.10974175014E+03  0.15401960743E+03  0.00000000000E+00 0.  1.
         14    1    6    6    0    0 -0.84519996142E+02 -0.26253994673E+02 -0.53784946966E+01  0.88666962220E+02  0.00000000000E+00 0. -1.
         -5    1    3    3    0  503  0.50767675226E+02  0.99667020529E+02 -0.10302548563E+03  0.15214208004E+03  0.47000000000E+01 0.  1.
         11    1    4    4    0    0  0.52258944843E+02 -0.24678489773E+02 -0.27705939918E+02  0.64090906378E+02  0.00000000000E+00 0. -1.
        -12    1    4    4    0    0  0.11044597743E+03  0.27056938700E+02 -0.16798453254E+03  0.20285264365E+03  0.00000000000E+00 0.  1.
<mgrwt>
<rscale>  2 0.29366290E+03</rscale>
<asrwt>0</asrwt>
<pdfrwt beam="1">  1       21 0.19580955E-01 0.29394139E+03</pdfrwt>
<pdfrwt beam="2">  1       21 0.10437283E+00 0.29394139E+03</pdfrwt>
<totfact> 0.16859491E+04</totfact>
</mgrwt>
</event>
<event>
12    1  0.1029207E-001  0.2140940E+03  0.7546771E-02  0.1139223E+00
         21   -1    0    0  503  502  0.00000000000E+00  0.00000000000E+00  0.26430278352E+03  0.26430278352E+03  0.00000000000E+00 0. -1.
         21   -1    0    0  501  503 -0.00000000000E+00 -0.00000000000E+00 -0.26566389132E+03  0.26566389132E+03  0.00000000000E+00 0. -1.
          6    2    1    2  501    0 -0.13239999818E+02  0.12417952750E+03 -0.15979203843E+03  0.26715114846E+03  0.17389763635E+03 0.  0.
         24    2    3    3    0    0 -0.22570732314E+02  0.54522449203E+02 -0.18180747586E+02  0.10898977890E+03  0.89811451924E+02 0.  0.
         -6    2    1    2    0  502  0.13239999818E+02 -0.12417952750E+03  0.15843093062E+03  0.26281552638E+03  0.16845114569E+03 0.  0.
        -24    2    5    5    0    0 -0.26640809206E+02 -0.13946442352E+03  0.14241445764E+03  0.21696005363E+03  0.81423147706E+02 0.  0.
          5    1    3    3  501    0  0.93307324961E+01  0.69657078302E+02 -0.14161129084E+03  0.15816136956E+03  0.47000000000E+01 0. -1.
        -11    1    4    4    0    0  0.14254782178E+01 -0.24022345741E+02 -0.11264359749E+02  0.26570488961E+02  0.00000000000E+00 0.  1.
         12    1    4    4    0    0 -0.23996210532E+02  0.78544794944E+02 -0.69163878370E+01  0.82419289935E+02  0.00000000000E+00 0. -1.
         -5    1    5    5    0  502  0.39880809024E+02  0.15284896016E+02  0.16016472979E+02  0.45855472752E+02  0.47000000000E+01 0.  1.
         11    1    6    6    0    0  0.12018932030E+02 -0.90926006164E+01  0.50816068887E+02  0.53003801470E+02  0.00000000000E+00 0. -1.
        -12    1    6    6    0    0 -0.38659741236E+02 -0.13037182290E+03  0.91598388758E+02  0.16395625216E+03  0.00000000000E+00 0.  1.
<mgrwt>
<rscale>  2 0.21298546E+03</rscale>
<asrwt>0</asrwt>
<pdfrwt beam="1">  1       21 0.40661967E-01 0.21409400E+03</pdfrwt>
<pdfrwt beam="2">  1       21 0.40871368E-01 0.21409400E+03</pdfrwt>
<totfact> 0.33222142E+04</totfact>
</mgrwt>
</event>
<event>
12    1  0.1029207E-001  0.1916055E+03  0.7546771E-02  0.1157445E+00
         21   -1    0    0  503  502  0.00000000000E+00  0.00000000000E+00  0.29308992097E+02  0.29308992097E+02  0.00000000000E+00 0. -1.
         21   -1    0    0  501  503 -0.00000000000E+00 -0.00000000000E+00 -0.13003966339E+04  0.13003966339E+04  0.00000000000E+00 0. -1.
          6    2    1    2  501    0  0.34244581210E+02  0.72962222941E+02 -0.77549553209E+03  0.79836373452E+03  0.17174153538E+03 0.  0.
         24    2    3    3    0    0 -0.44222531853E+02  0.42728554252E+02 -0.50928288447E+03  0.51914620944E+03  0.79764457559E+02 0.  0.
         -6    2    1    2    0  502 -0.34244581210E+02 -0.72962222941E+02 -0.49559210967E+03  0.53134189144E+03  0.17382890759E+03 0.  0.
        -24    2    5    5    0    0  0.27649744459E+02 -0.35163738405E+02 -0.40046245009E+03  0.41162816994E+03  0.84062949575E+02 0.  0.
          5    1    3    3  501    0  0.78467113063E+02  0.30233668689E+02 -0.26621264763E+03  0.27921752508E+03  0.47000000000E+01 0. -1.
        -11    1    4    4    0    0 -0.50572722968E+00 -0.18704093895E+02 -0.44294841442E+02  0.48084632336E+02  0.00000000000E+00 0.  1.
         12    1    4    4    0    0 -0.43716804623E+02  0.61432648147E+02 -0.46498804302E+03  0.47106157710E+03  0.00000000000E+00 0. -1.
         -5    1    5    5    0  502 -0.61894325669E+02 -0.37798484535E+02 -0.95129659581E+02  0.11971372150E+03  0.47000000000E+01 0.  1.
         11    1    6    6    0    0  0.12522627992E+02 -0.29638002528E+02 -0.42509344606E+02  0.53312960756E+02  0.00000000000E+00 0. -1.
        -12    1    6    6    0    0  0.15127116467E+02 -0.55257358771E+01 -0.35795310548E+03  0.35831520919E+03  0.00000000000E+00 0.  1.
<mgrwt>
<rscale>  2 0.19113082E+03</rscale>
<asrwt>0</asrwt>
<pdfrwt beam="1">  1       21 0.45090769E-02 0.19160550E+03</pdfrwt>
<pdfrwt beam="2">  1       21 0.20006097E+00 0.19160550E+03</pdfrwt>
<totfact> 0.43006061E+04</totfact>
</mgrwt>
</event>
<event>
12    1  0.1029207E-001  0.1902480E+03  0.7546771E-02  0.1158914E+00
         21   -1    0    0  503  502  0.00000000000E+00  0.00000000000E+00  0.59704357441E+03  0.59704357441E+03  0.00000000000E+00 0.  1.
         21   -1    0    0  501  503 -0.00000000000E+00 -0.00000000000E+00 -0.60040818523E+02  0.60040818523E+02  0.00000000000E+00 0.  1.
          6    2    1    2  501    0 -0.59714655144E+01  0.71139847491E+02  0.24084371694E+03  0.30508373660E+03  0.17312958744E+03 0.  0.
         24    2    3    3    0    0 -0.40596847278E+02 -0.16968355885E+02  0.13500655225E+03  0.16300781326E+03  0.80054662092E+02 0.  0.
         -6    2    1    2    0  502  0.59714655144E+01 -0.71139847491E+02  0.29615903894E+03  0.35200065633E+03  0.17634553980E+03 0.  0.
        -24    2    5    5    0    0 -0.10864250022E+01  0.31556838646E+02  0.13741138055E+03  0.16274069699E+03  0.81275042717E+02 0.  0.
          5    1    3    3  501    0  0.34625381764E+02  0.88108203376E+02  0.10583716470E+03  0.14207592335E+03  0.47000000000E+01 0. -1.
        -13    1    4    4    0    0 -0.58525368432E+02  0.78033554980E+01  0.10312978666E+03  0.11883544927E+03  0.00000000000E+00 0.  1.
         14    1    4    4    0    0  0.17928521155E+02 -0.24771711383E+02  0.31876765584E+02  0.44172363982E+02  0.00000000000E+00 0. -1.
         -5    1    5    5    0  502  0.70578905166E+01 -0.10269668614E+03  0.15874765839E+03  0.18925995933E+03  0.47000000000E+01 0.  1.
         13    1    6    6    0    0 -0.36381628389E+02  0.12502733098E+02  0.32284062661E+02  0.50221528462E+02  0.00000000000E+00 0. -1.
        -14    1    6    6    0    0  0.35295203387E+02  0.19054105548E+02  0.10512731789E+03  0.11251916853E+03  0.00000000000E+00 0.  1.
<mgrwt>
<rscale>  2 0.18949929E+03</rscale>
<asrwt>0</asrwt>
<pdfrwt beam="1">  1       21 0.91852853E-01 0.19024796E+03</pdfrwt>
<pdfrwt beam="2">  1       21 0.92370494E-02 0.19024796E+03</pdfrwt>
<totfact> 0.93612624E+04</totfact>
</mgrwt>
</event>
<event>
12    1  0.1029207E-001  0.2464981E+03  0.7546771E-02  0.1115614E+00
         21   -1    0    0  501  502  0.00000000000E+00  0.00000000000E+00  0.40350063627E+02  0.40350063627E+02  0.00000000000E+00 0. -1.
         21   -1    0    0  502  503 -0.00000000000E+00 -0.00000000000E+00 -0.15337627895E+04  0.15337627895E+04  0.00000000000E+00 0.  1.
         -6    2    1    2    0  503  0.27411131340E+02  0.17221416943E+03 -0.85887473707E+03  0.89354750800E+03  0.17421895652E+03 0.  0.
        -24    2    3    3    0    0 -0.63629561405E+00  0.15095702438E+02 -0.20597689726E+03  0.22140872021E+03  0.79793822292E+02 0.  0.
          6    2    1    2  501    0 -0.27411131340E+02 -0.17221416943E+03 -0.63453798885E+03  0.68056534517E+03  0.17355586846E+03 0.  0.
         24    2    5    5    0    0  0.41452770226E+02 -0.51821979517E+02 -0.32236284373E+03  0.33893407089E+03  0.80960803326E+02 0.  0.
          5    1    5    5  501    0 -0.68863901566E+02 -0.12039218992E+03 -0.31217514512E+03  0.34163127427E+03  0.47000000000E+01 0. -1.
        -11    1    6    6    0    0  0.23493188238E+01  0.81430097523E+01 -0.17396388095E+03  0.17417020349E+03  0.00000000000E+00 0.  1.
         12    1    6    6    0    0  0.39103451402E+02 -0.59964989269E+02 -0.14839896278E+03  0.16476386741E+03  0.00000000000E+00 0. -1.
         -5    1    3    3    0  503  0.28047426954E+02  0.15711846699E+03 -0.65289783981E+03  0.67213878780E+03  0.47000000000E+01 0.  1.
         11    1    4    4    0    0  0.29008751710E+02  0.21362586332E+02 -0.45195308296E+02  0.57796917414E+02  0.00000000000E+00 0. -1.
        -12    1    4    4    0    0 -0.29645047324E+02 -0.62668838933E+01 -0.16078158896E+03  0.16361180279E+03  0.00000000000E+00 0.  1.
<mgrwt>
<rscale>  2 0.24638101E+03</rscale>
<asrwt>0</asrwt>
<pdfrwt beam="1">  1       21 0.62077021E-02 0.24649814E+03</pdfrwt>
<pdfrwt beam="2">  1       21 0.23596351E+00 0.24649814E+03</pdfrwt>
<totfact> 0.14353053E+04</totfact>
</mgrwt>
</event>
<event>
12    1  0.1029207E-001  0.1791112E+03  0.7546771E-02  0.1168916E+00
         21   -1    0    0  501  502  0.00000000000E+00  0.00000000000E+00  0.22674715824E+03  0.22674715824E+03  0.00000000000E+00 0. -1.
         21   -1    0    0  502  503 -0.00000000000E+00 -0.00000000000E+00 -0.40801945119E+03  0.40801945119E+03  0.00000000000E+00 0. -1.
         -6    2    1    2    0  503  0.43994943855E+02  0.12307525211E+02 -0.34763463279E+03  0.39106349556E+03  0.17318715133E+03 0.  0.
        -24    2    3    3    0    0  0.59273318591E+02  0.29060274794E+02 -0.35258684692E+03  0.36738443777E+03  0.79347429860E+02 0.  0.
          6    2    1    2  501    0 -0.43994943855E+02 -0.12307525211E+02  0.16636233984E+03  0.24370311387E+03  0.17212713130E+03 0.  0.
         24    2    5    5    0    0  0.11678603833E+02 -0.20067880688E+02  0.16894949125E+03  0.18723586335E+03  0.77293132330E+02 0.  0.
          5    1    5    5  501    0 -0.55673547688E+02  0.77603554772E+01 -0.25871514119E+01  0.56467250524E+02  0.47000000000E+01 0. -1.
        -13    1    6    6    0    0 -0.64808118859E+01  0.28185266834E+02  0.54106497642E+02  0.61350821317E+02  0.00000000000E+00 0.  1.
         14    1    6    6    0    0  0.18159415719E+02 -0.48253147522E+02  0.11484299361E+03  0.12588504203E+03  0.00000000000E+00 0. -1.
         -5    1    3    3    0  503 -0.15278374736E+02 -0.16752749583E+02  0.49522141342E+01  0.23679057793E+02  0.47000000000E+01 0.  1.
         13    1    4    4    0    0  0.21699642298E+02  0.53941709971E+02 -0.19615247378E+03  0.20458830739E+03  0.00000000000E+00 0. -1.
        -14    1    4    4    0    0  0.37573676293E+02 -0.24881435177E+02 -0.15643437315E+03  0.16279613038E+03  0.00000000000E+00 0.  1.
<mgrwt>
<rscale>  2 0.17885445E+03</rscale>
<asrwt>0</asrwt>
<pdfrwt beam="1">  1       21 0.34884179E-01 0.17911119E+03</pdfrwt>
<pdfrwt beam="2">  1       21 0.62772222E-01 0.17911119E+03</pdfrwt>
<totfact> 0.18775718E+04</totfact>
</mgrwt>
</event>
<event>
12    1  0.1029207E-001  0.1843755E+03  0.7546771E-02  0.1164670E+00
         21   -1    0    0  503  502  0.00000000000E+00  0.00000000000E+00  0.22373800415E+02  0.22373800415E+02  0.00000000000E+00 0. -1.
         21   -1    0    0  501  503 -0.00000000000E+00 -0.00000000000E+00 -0.15047445357E+04  0.15047445357E+04  0.00000000000E+00 0. -1.
          6    2    1    2  501    0  0.62101218733E+02  0.72029588568E+01 -0.65952485887E+03  0.68481191279E+03  0.17345279603E+03 0.  0.
         24    2    3    3    0    0  0.53581381397E+02  0.21260060323E+01 -0.16353745080E+03  0.18870309203E+03  0.77387820695E+02 0.  0.
         -6    2    1    2    0  502 -0.62101218733E+02 -0.72029588568E+01 -0.82284587642E+03  0.84230642332E+03  0.16880856155E+03 0.  0.
        -24    2    5    5    0    0 -0.93151180258E+02 -0.94905618890E+01 -0.77809504239E+03  0.78758841546E+03  0.78079472518E+02 0.  0.
          5    1    3    3  501    0  0.85198373362E+01  0.50769528245E+01 -0.49598740807E+03  0.49610882077E+03  0.47000000000E+01 0. -1.
        -13    1    4    4    0    0 -0.81404840019E+01 -0.22740595635E+02 -0.23694063842E+02  0.33835053288E+02  0.00000000000E+00 0.  1.
         14    1    4    4    0    0  0.61721865399E+02  0.24866601668E+02 -0.13984338696E+03  0.15486803874E+03  0.00000000000E+00 0. -1.
         -5    1    5    5    0  502  0.31049961525E+02  0.22876030322E+01 -0.44750834023E+02  0.54718007860E+02  0.47000000000E+01 0.  1.
         11    1    6    6    0    0 -0.61383535284E+02 -0.36677555622E+02 -0.33623946159E+03  0.34375886464E+03  0.00000000000E+00 0. -1.
        -12    1    6    6    0    0 -0.31767644974E+02  0.27186993733E+02 -0.44185558081E+03  0.44382955083E+03  0.00000000000E+00 0.  1.
<mgrwt>
<rscale>  2 0.18327511E+03</rscale>
<asrwt>0</asrwt>
<pdfrwt beam="1">  1       21 0.34421213E-02 0.18437548E+03</pdfrwt>
<pdfrwt beam="2">  1       21 0.23149928E+00 0.18437548E+03</pdfrwt>
<totfact> 0.43404933E+04</totfact>
</mgrwt>
</event>
<event>
12    1  0.1029207E-001  0.1812672E+03  0.7546771E-02  0.1166607E+00
         21   -1    0    0  503  502  0.00000000000E+00  0.00000000000E+00  0.23521384609E+02  0.23521384609E+02  0.00000000000E+00 0. -1.
         21   -1    0    0  501  503 -0.00000000000E+00 -0.00000000000E+00 -0.17374505237E+04  0.17374505237E+04  0.00000000000E+00 0. -1.
          6    2    1    2  501    0 -0.54243439810E+02  0.21517005982E+01 -0.12470141370E+04  0.12601052244E+04  0.17284078837E+03 0.  0.
         24    2    3    3    0    0  0.79757986304E+01  0.54131945601E+02 -0.80812813516E+03  0.81376881304E+03  0.78452006594E+02 0.  0.
         -6    2    1    2    0  502  0.54243439810E+02 -0.21517005982E+01 -0.46691500209E+03  0.50086668390E+03  0.17294749286E+03 0.  0.
        -24    2    5    5    0    0  0.35733467342E+02 -0.43025466530E+02 -0.43480024979E+03  0.44548860938E+03  0.79251324339E+02 0.  0.
          5    1    3    3  501    0 -0.62219238440E+02 -0.51980245003E+02 -0.43888600186E+03  0.44633641139E+03  0.47000000000E+01 0. -1.
        -11    1    4    4    0    0  0.67057139531E+01 -0.70867618197E+01 -0.12836337367E+02  0.16123285947E+02  0.00000000000E+00 0.  1.
         12    1    4    4    0    0  0.12700846773E+01  0.61218707420E+02 -0.79529179779E+03  0.79764552709E+03  0.00000000000E+00 0. -1.
         -5    1    5    5    0  502  0.18509972468E+02  0.40873765932E+02 -0.32114752293E+02  0.55378074516E+02  0.47000000000E+01 0.  1.
         11    1    6    6    0    0 -0.18419428297E+02 -0.36065578162E+02 -0.14296610894E+03  0.14859108174E+03  0.00000000000E+00 0. -1.
        -12    1    6    6    0    0  0.54152895639E+02 -0.69598883681E+01 -0.29183414085E+03  0.29689752764E+03  0.00000000000E+00 0.  1.
<mgrwt>
<rscale>  2 0.18124179E+03</rscale>
<asrwt>0</asrwt>
<pdfrwt beam="1">  1       21 0.36186746E-02 0.18126725E+03</pdfrwt>
<pdfrwt beam="2">  1       21 0.26730008E+00 0.18126725E+03</pdfrwt>
<totfact> 0.24673240E+04</totfact>
</mgrwt>
</event>
<event>
12    1  0.1029207E-001  0.2273747E+03  0.7546771E-02  0.1128523E+00
         21   -1    0    0  503  502  0.00000000000E+00  0.00000000000E+00  0.29783705444E+03  0.29783705444E+03  0.00000000000E+00 0.  1.
         21   -1    0    0  501  503 -0.00000000000E+00 -0.00000000000E+00 -0.76511733961E+03  0.76511733961E+03  0.00000000000E+00 0.  1.
          6    2    1    2  501    0 -0.13078576536E+03 -0.69486938950E+02 -0.70097879170E+03  0.73689576945E+03  0.17236808726E+03 0.  0.
         24    2    3    3    0    0 -0.14098452323E+03 -0.26474671002E+02 -0.64467983583E+03  0.66516200969E+03  0.79062408374E+02 0.  0.
         -6    2    1    2    0  502  0.13078576536E+03  0.69486938950E+02  0.23369850654E+03  0.32605862461E+03  0.17252792127E+03 0.  0.
        -24    2    5    5    0    0  0.47345726884E+02 -0.20063137319E+02  0.14930172979E+03  0.17730929820E+03  0.80643867575E+02 0.  0.
          5    1    3    3  501    0  0.10198757871E+02 -0.43012267947E+02 -0.56298955878E+02  0.71733759758E+02  0.47000000000E+01 0. -1.
        -11    1    4    4    0    0 -0.92819126974E+02  0.13462540330E+02 -0.28374894745E+03  0.29884794713E+03  0.00000000000E+00 0.  1.
         12    1    4    4    0    0 -0.48165396259E+02 -0.39937211332E+02 -0.36093088837E+03  0.36631406256E+03  0.00000000000E+00 0. -1.
         -5    1    5    5    0  502  0.83440038478E+02  0.89550076268E+02  0.84396776747E+02  0.14874932641E+03  0.47000000000E+01 0.  1.
         11    1    6    6    0    0  0.20940514669E+02 -0.30337819872E+02  0.14582277006E+02  0.39642543711E+02  0.00000000000E+00 0. -1.
        -12    1    6    6    0    0  0.26405212215E+02  0.10274682553E+02  0.13471945278E+03  0.13766675449E+03  0.00000000000E+00 0.  1.
<mgrwt>
<rscale>  2 0.22734434E+03</rscale>
<asrwt>0</asrwt>
<pdfrwt beam="1">  1       21 0.45821085E-01 0.22737466E+03</pdfrwt>
<pdfrwt beam="2">  1       21 0.11771036E+00 0.22737466E+03</pdfrwt>
<totfact> 0.24552548E+03</totfact>
</mgrwt>
</event>
<event>
12    1  0.1029207E-001  0.1944427E+03  0.7546771E-02  0.1154805E+00
         21   -1    0    0  501  502  0.00000000000E+00  0.00000000000E+00  0.55663095191E+03  0.55663095191E+03  0.00000000000E+00 0.  1.
         21   -1    0    0  502  503 -0.00000000000E+00 -0.00000000000E+00 -0.76276681625E+02  0.76276681625E+02  0.00000000000E+00 0.  1.
         -6    2    1    2    0  503 -0.87392919205E+02  0.89028774368E+01  0.13331867342E+03  0.23575798520E+03  0.17346808165E+03 0.  0.
        -24    2    3    3    0    0 -0.50110929586E+02  0.71663532987E+02  0.10102654655E+03  0.15579725676E+03  0.80122748845E+02 0.  0.
          6    2    1    2  501    0  0.87392919205E+02 -0.89028774368E+01  0.34703559686E+03  0.39714964833E+03  0.17198067951E+03 0.  0.
         24    2    5    5    0    0  0.60014045872E+02  0.42918755117E+02  0.12033266311E+03  0.16294590268E+03  0.81410761854E+02 0.  0.
          5    1    5    5  501    0  0.27378873333E+02 -0.51821632553E+02  0.22670293375E+03  0.23420374565E+03  0.47000000000E+01 0. -1.
        -11    1    6    6    0    0  0.29224626635E+02 -0.22791503202E+02  0.45889388804E+02  0.58986162996E+02  0.00000000000E+00 0.  1.
         12    1    6    6    0    0  0.30789419237E+02  0.65710258319E+02  0.74443274309E+02  0.10395973968E+03  0.00000000000E+00 0. -1.
         -5    1    3    3    0  503 -0.37281989619E+02 -0.62760655550E+02  0.32292126868E+02  0.79960728440E+02  0.47000000000E+01 0.  1.
         13    1    4    4    0    0 -0.80890853913E+01 -0.16242166195E+02  0.30602659996E+02  0.35577578108E+02  0.00000000000E+00 0. -1.
        -14    1    4    4    0    0 -0.42021844195E+02  0.87905699182E+02  0.70423886554E+02  0.12021967865E+03  0.00000000000E+00 0.  1.
<mgrwt>
<rscale>  2 0.19411039E+03</rscale>
<asrwt>0</asrwt>
<pdfrwt beam="1">  1       21 0.85635529E-01 0.19444269E+03</pdfrwt>
<pdfrwt beam="2">  1       21 0.11734874E-01 0.19444269E+03</pdfrwt>
<totfact> 0.71887996E+04</totfact>
</mgrwt>
</event>
<event>
12    1  0.1029207E-001  0.2047448E+03  0.7546771E-02  0.1146492E+00
         21   -1    0    0  501  502  0.00000000000E+00  0.00000000000E+00  0.30499486307E+03  0.30499486307E+03  0.00000000000E+00 0.  1.
         21   -1    0    0  502  503 -0.00000000000E+00 -0.00000000000E+00 -0.13537321815E+03  0.13537321815E+03  0.00000000000E+00 0.  1.
         -6    2    1    2    0  503  0.10201238912E+03  0.24668108165E+02  0.76122215275E+02  0.21528456973E+03  0.17186567781E+03 0.  0.
        -24    2    3    3    0    0  0.13778173270E+03  0.57518520204E+01  0.55583902893E+02  0.16966458548E+03  0.81728891090E+02 0.  0.
          6    2    1    2  501    0 -0.10201238912E+03 -0.24668108165E+02  0.93499429650E+02  0.22508351149E+03  0.17579931941E+03 0.  0.
         24    2    5    5    0    0  0.12265459916E+02  0.11055428702E+02  0.29951828345E+02  0.89451710284E+02  0.82654899678E+02 0.  0.
          5    1    5    5  501    0 -0.11427784904E+03 -0.35723536866E+02  0.63547601304E+02  0.13563180120E+03  0.47000000000E+01 0. -1.
        -13    1    6    6    0    0 -0.56011786816E+01  0.70378109012E-01  0.55847619670E+02  0.56127843167E+02  0.00000000000E+00 0.  1.
         14    1    6    6    0    0  0.17866638598E+02  0.10985050593E+02 -0.25895791325E+02  0.33323867117E+02  0.00000000000E+00 0. -1.
         -5    1    3    3    0  503 -0.35769343582E+02  0.18916256144E+02  0.20538312382E+02  0.45619984243E+02  0.47000000000E+01 0.  1.
         13    1    4    4    0    0  0.59259517188E+02 -0.30819136241E+02  0.48909861082E+02  0.82786979937E+02  0.00000000000E+00 0. -1.
        -14    1    4    4    0    0  0.78522215513E+02  0.36570988262E+02  0.66740418112E+01  0.86877605547E+02  0.00000000000E+00 0.  1.
<mgrwt>
<rscale>  2 0.20389773E+03</rscale>
<asrwt>0</asrwt>
<pdfrwt beam="1">  1       21 0.46922287E-01 0.20474483E+03</pdfrwt>
<pdfrwt beam="2">  1       21 0.20826649E-01 0.20474483E+03</pdfrwt>
<totfact> 0.92563803E+04</totfact>
</mgrwt>
</event>
<event>
12    1  0.1029207E-001  0.2400534E+03  0.7546771E-02  0.1119811E+00
         21   -1    0    0  501  502  0.00000000000E+00  0.00000000000E+00  0.85803474026E+03  0.85803474026E+03  0.00000000000E+00 0. -1.
         21   -1    0    0  502  503 -0.00000000000E+00 -0.00000000000E+00 -0.72318194801E+02  0.72318194801E+02  0.00000000000E+00 0. -1.
         -6    2    1    2    0  503  0.18120378362E+02 -0.16254777544E+03  0.26728773106E+03  0.35904383201E+03  0.17527011930E+03 0.  0.
        -24    2    3    3    0    0  0.57513659013E+02 -0.92531202254E+02  0.84417509540E+02  0.15924954030E+03  0.79776285991E+02 0.  0.
          6    2    1    2  501    0 -0.18120378362E+02  0.16254777544E+03  0.51842881440E+03  0.57130910305E+03  0.17571433695E+03 0.  0.
         24    2    5    5    0    0  0.15846723886E+01  0.13096703902E+03  0.51019618566E+03  0.53289688996E+03  0.80771721371E+02 0.  0.
          5    1    5    5  501    0 -0.19705050751E+02  0.31580736426E+02  0.82326287424E+01  0.38412213088E+02  0.47000000000E+01 0. -1.
        -13    1    6    6    0    0  0.31099652762E+01  0.63481982549E+00  0.14677150228E+03  0.14680581992E+03  0.00000000000E+00 0.  1.
         14    1    6    6    0    0 -0.15252928875E+01  0.13033221919E+03  0.36342468338E+03  0.38609107005E+03  0.00000000000E+00 0. -1.
         -5    1    3    3    0  503 -0.39393280651E+02 -0.70016573189E+02  0.18287022152E+03  0.19979429171E+03  0.47000000000E+01 0.  1.
         13    1    4    4    0    0  0.63726366474E+02 -0.94171006913E+02  0.94123666668E+02  0.14760925768E+03  0.00000000000E+00 0. -1.
        -14    1    4    4    0    0 -0.62127074605E+01  0.16398046588E+01 -0.97061571274E+01  0.11640282621E+02  0.00000000000E+00 0.  1.
<mgrwt>
<rscale>  2 0.23997216E+03</rscale>
<asrwt>0</asrwt>
<pdfrwt beam="1">  1       21 0.13200534E+00 0.24005344E+03</pdfrwt>
<pdfrwt beam="2">  1       21 0.11125877E-01 0.24005344E+03</pdfrwt>
<totfact> 0.27182005E+04</totfact>
</mgrwt>
</event>
<event>
12    1  0.1029207E-001  0.2157073E+03  0.7546771E-02  0.1137615E+00
         21   -1    0    0  503  502  0.00000000000E+00  0.00000000000E+00  0.14198030213E+03  0.14198030213E+03  0.00000000000E+00 0. -1.
         21   -1    0    0  501  503 -0.00000000000E+00 -0.00000000000E+00 -0.38114282602E+03  0.38114282602E+03  0.00000000000E+00 0. -1.
          6    2    1    2  501    0 -0.94989907397E+02  0.84101860876E+02 -0.22158721643E+03  0.30924186233E+03  0.17445179685E+03 0.  0.
         24    2    3    3    0    0 -0.80961326119E+02  0.30914422622E+02 -0.50088560395E+02  0.12907642807E+03  0.81494923455E+02 0.  0.
         -6    2    1    2    0  502  0.94989907397E+02 -0.84101860876E+02 -0.17575307462E+02  0.21388126583E+03  0.17128951786E+03 0.  0.
        -24    2    5    5    0    0  0.56001411634E+02 -0.98541266543E+02  0.38678592694E+02  0.14377284607E+03  0.79549094385E+02 0.  0.
          5    1    3    3  501    0 -0.14028581277E+02  0.53187438254E+02 -0.17149865603E+03  0.18016543426E+03  0.47000000000E+01 0. -1.
        -13    1    4    4    0    0  0.37546969414E+01 -0.45407040049E+01  0.15263357066E+02  0.16361106653E+02  0.00000000000E+00 0.  1.
         14    1    4    4    0    0 -0.84716023061E+02  0.35455126627E+02 -0.65351917461E+02  0.11271532142E+03  0.00000000000E+00 0. -1.
         -5    1    5    5    0  502  0.38988495763E+02  0.14439405667E+02 -0.56253900156E+02  0.70108419756E+02  0.47000000000E+01 0.  1.
         11    1    6    6    0    0  0.58620640770E+02 -0.28148603438E+02  0.33476645274E+02  0.73139655308E+02  0.00000000000E+00 0. -1.
        -12    1    6    6    0    0 -0.26192291358E+01 -0.70392663105E+02  0.52019474196E+01  0.70633190762E+02  0.00000000000E+00 0.  1.
<mgrwt>
<rscale>  2 0.21506711E+03</rscale>
<asrwt>0</asrwt>
<pdfrwt beam="1">  1       21 0.21843123E-01 0.21570729E+03</pdfrwt>
<pdfrwt beam="2">  1       21 0.58637358E-01 0.21570729E+03</pdfrwt>
<totfact> 0.52676209E+04</totfact>
</mgrwt>
</event>
<event>
12    1  0.1029207E-001  0.2062637E+03  0.7546771E-02  0.1145174E+00
         21   -1    0    0  503  502  0.00000000000E+00  0.00000000000E+00  0.15854088906E+04  0.15854088906E+04  0.00000000000E+00 0.  1.
         21   -1    0    0  501  503 -0.00000000000E+00 -0.00000000000E+00 -0.99383088696E+02  0.99383088696E+02  0.00000000000E+00 0.  1.
          6    2    1    2  501    0 -0.17016372335E+02  0.11159164444E+03  0.22803615076E+02  0.20752041485E+03  0.17263390653E+03 0.  0.
         24    2    3    3    0    0 -0.26861086530E+02  0.81814333728E+02  0.77350148181E+02  0.14442508298E+03  0.86373931234E+02 0.  0.
         -6    2    1    2    0  502  0.17016372335E+02 -0.11159164444E+03  0.14632221868E+04  0.14772715644E+04  0.16902619634E+03 0.  0.
        -24    2    5    5    0    0  0.28143780656E+02  0.70446089864E+01  0.56260251018E+03  0.56879136553E+03  0.78487796122E+02 0.  0.
          5    1    3    3  501    0  0.98447141951E+01  0.29777310708E+02 -0.54546533105E+02  0.63095331874E+02  0.47000000000E+01 0. -1.
        -13    1    4    4    0    0 -0.40883317566E+02  0.52632616191E+02  0.70368662144E+01  0.67016083356E+02  0.00000000000E+00 0.  1.
         14    1    4    4    0    0  0.14022231036E+02  0.29181717537E+02  0.70313281967E+02  0.77408999623E+02  0.00000000000E+00 0. -1.
         -5    1    5    5    0  502 -0.11127408321E+02 -0.11863625342E+03  0.90061967662E+03  0.90848019888E+03  0.47000000000E+01 0.  1.
         11    1    6    6    0    0 -0.12361692595E+02  0.35871840481E+01  0.15356651537E+02  0.20037616615E+02  0.00000000000E+00 0. -1.
        -12    1    6    6    0    0  0.40505473251E+02  0.34574249383E+01  0.54724585864E+03  0.54875374891E+03  0.00000000000E+00 0.  1.
<mgrwt>
<rscale>  2 0.20550708E+03</rscale>
<asrwt>0</asrwt>
<pdfrwt beam="1">  1       21 0.24390904E+00 0.20626371E+03</pdfrwt>
<pdfrwt beam="2">  1       21 0.15289707E-01 0.20626371E+03</pdfrwt>
<totfact> 0.26966487E+03</totfact>
</mgrwt>
</event>
<event>
12    1  0.1029207E-001  0.1920492E+03  0.7546771E-02  0.1156821E+00
         21   -1    0    0  501  502  0.00000000000E+00  0.00000000000E+00  0.29403291843E+03  0.29403291843E+03  0.00000000000E+00 0.  1.
         21   -1    0    0  502  503 -0.00000000000E+00 -0.00000000000E+00 -0.12953727018E+03  0.12953727018E+03  0.00000000000E+00 0.  1.
         -6    2    1    2    0  503 -0.75334525543E+02  0.32706029139E+02  0.12228447595E+03  0.22693686628E+03  0.17263219033E+03 0.  0.
        -24    2    3    3    0    0 -0.38891029071E+02 -0.38719767574E+02  0.11135869572E+03  0.14587370853E+03  0.76594041437E+02 0.  0.
          6    2    1    2  501    0  0.75334525543E+02 -0.32706029139E+02  0.42211172290E+02  0.19663332233E+03  0.17360272263E+03 0.  0.
         24    2    5    5    0    0  0.66609610038E+02  0.40446804601E+02  0.45225211960E+02  0.12275074204E+03  0.83364505179E+02 0.  0.
          5    1    5    5  501    0  0.87249155048E+01 -0.73152833740E+02 -0.30140396708E+01  0.73882580287E+02  0.47000000000E+01 0. -1.
        -11    1    6    6    0    0 -0.17001336635E+02  0.22372607246E+01 -0.51766705602E+01  0.17912250027E+02  0.00000000000E+00 0.  1.
         12    1    6    6    0    0  0.83610946673E+02  0.38209543876E+02  0.50401882521E+02  0.10483849202E+03  0.00000000000E+00 0. -1.
         -5    1    3    3    0  503 -0.36443496472E+02  0.71425796713E+02  0.10925780234E+02  0.81063157753E+02  0.47000000000E+01 0.  1.
         13    1    4    4    0    0 -0.13679809204E+02 -0.56584034003E+01 -0.98173019626E+01  0.17763280291E+02  0.00000000000E+00 0. -1.
        -14    1    4    4    0    0 -0.25211219867E+02 -0.33061364174E+02  0.12117599768E+03  0.12811042824E+03  0.00000000000E+00 0.  1.
<mgrwt>
<rscale>  2 0.19182957E+03</rscale>
<asrwt>0</asrwt>
<pdfrwt beam="1">  1       21 0.45235833E-01 0.19204916E+03</pdfrwt>
<pdfrwt beam="2">  1       21 0.19928811E-01 0.19204916E+03</pdfrwt>
<totfact> 0.10896733E+05</totfact>
</mgrwt>
</event>
<event>
12    1  0.1029207E-001  0.2382356E+03  0.7546771E-02  0.1121982E+00
         21   -1    0    0  503  502  0.00000000000E+00  0.00000000000E+00  0.14831654644E+03  0.14831654644E+03  0.00000000000E+00 0.  1.
         21   -1    0    0  501  503 -0.00000000000E+00 -0.00000000000E+00 -0.70075768286E+03  0.70075768286E+03  0.00000000000E+00 0. -1.
          6    2    1    2  501    0 -0.30875405529E+02  0.16078268089E+03 -0.56459983271E+03  0.61052856720E+03  0.16482657288E+03 0.  0.
         24    2    3    3    0    0 -0.61217466425E+02  0.62695690705E+02 -0.38416804878E+03  0.40287641345E+03  0.83940377551E+02 0.  0.
         -6    2    1    2    0  502  0.30875405529E+02 -0.16078268089E+03  0.12158696286E+02  0.23854566210E+03  0.17306599282E+03 0.  0.
        -24    2    5    5    0    0  0.23619951066E+02 -0.99782728698E+02 -0.60108696611E+02  0.14358092200E+03  0.80547692200E+02 0.  0.
          5    1    3    3  501    0  0.30342060896E+02  0.98086990184E+02 -0.18043178393E+03  0.20765215375E+03  0.47000000000E+01 0. -1.
        -13    1    4    4    0    0 -0.45536918025E+02  0.60069271535E+02 -0.14721902377E+03  0.16539458651E+03  0.00000000000E+00 0.  1.
         14    1    4    4    0    0 -0.15680548400E+02  0.26264191707E+01 -0.23694902501E+03  0.23748182695E+03  0.00000000000E+00 0. -1.
         -5    1    5    5    0  502  0.72554544624E+01 -0.60999952191E+02  0.72267392898E+02  0.94964740104E+02  0.47000000000E+01 0.  1.
         11    1    6    6    0    0  0.28314845711E+02 -0.11251012089E+03 -0.48582071039E+02  0.12577947136E+03  0.00000000000E+00 0. -1.
        -12    1    6    6    0    0 -0.46948946443E+01  0.12727392189E+02 -0.11526625573E+02  0.17801450636E+02  0.00000000000E+00 0.  1.
<mgrwt>
<rscale>  2 0.23674249E+03</rscale>
<asrwt>0</asrwt>
<pdfrwt beam="1">  1       21 0.22817931E-01 0.23823560E+03</pdfrwt>
<pdfrwt beam="2">  1       21 0.10780887E+00 0.23823560E+03</pdfrwt>
<totfact> 0.11997695E+04</totfact>
</mgrwt>
</event>
<event>
12    1  0.1029207E-001  0.2202918E+03  0.7546771E-02  0.1133692E+00
         21   -1    0    0  503  502  0.00000000000E+00  0.00000000000E+00  0.58217144506E+03  0.58217144506E+03  0.00000000000E+00 0.  1.
         21   -1    0    0  501  503 -0.00000000000E+00 -0.00000000000E+00 -0.84447736508E+02  0.84447736508E+02  0.00000000000E+00 0. -1.
          6    2    1    2  501    0 -0.62842732813E+02 -0.12088867463E+03  0.20999440150E+03  0.30424282726E+03  0.17292416996E+03 0.  0.
         24    2    3    3    0    0 -0.78102297696E+02 -0.23971315559E+02  0.76755019771E+02  0.13871140530E+03  0.81700232720E+02 0.  0.
         -6    2    1    2    0  502  0.62842732813E+02  0.12088867463E+03  0.28772930705E+03  0.36237635431E+03  0.17310455599E+03 0.  0.
        -24    2    5    5    0    0  0.10309893772E+02  0.25546950987E+02  0.21614528833E+03  0.23200724301E+03  0.79684594024E+02 0.  0.
          5    1    3    3  501    0  0.15259564883E+02 -0.96917359075E+02  0.13323938173E+03  0.16553142196E+03  0.47000000000E+01 0. -1.
        -11    1    4    4    0    0 -0.12811822517E+02 -0.41143244708E+01  0.68687209098E+02  0.69992879322E+02  0.00000000000E+00 0.  1.
         12    1    4    4    0    0 -0.65290475179E+02 -0.19856991088E+02  0.80678106730E+01  0.68718525983E+02  0.00000000000E+00 0. -1.
         -5    1    5    5    0  502  0.52532839040E+02  0.95341723647E+02  0.71584018714E+02  0.13036911130E+03  0.47000000000E+01 0.  1.
         13    1    6    6    0    0  0.14441653212E+02 -0.27480430358E+02  0.74835044479E+02  0.81018635402E+02  0.00000000000E+00 0. -1.
        -14    1    6    6    0    0 -0.41317594399E+01  0.53027381345E+02  0.14131024385E+03  0.15098860761E+03  0.00000000000E+00 0.  1.
<mgrwt>
<rscale>  2 0.22025634E+03</rscale>
<asrwt>0</asrwt>
<pdfrwt beam="1">  1       21 0.89564835E-01 0.22029178E+03</pdfrwt>
<pdfrwt beam="2">  1       21 0.12991960E-01 0.22029178E+03</pdfrwt>
<totfact> 0.53346930E+04</totfact>
</mgrwt>
</event>
<event>
12    1  0.1029207E-001  0.2156696E+03  0.7546771E-02  0.1137719E+00
         21   -1    0    0  501  502  0.00000000000E+00  0.00000000000E+00  0.36663663509E+03  0.36663663509E+03  0.00000000000E+00 0.  1.
         21   -1    0    0  502  503 -0.00000000000E+00 -0.00000000000E+00 -0.14398414579E+03  0.14398414579E+03  0.00000000000E+00 0.  1.
         -6    2    1    2    0  503  0.12738501939E+03  0.23276359499E+02  0.18307820291E+02  0.21351787228E+03  0.16877788191E+03 0.  0.
        -24    2    3    3    0    0  0.93449135070E+02 -0.49160950863E+02  0.27205091734E+01  0.13188538827E+03  0.78973505273E+02 0.  0.
          6    2    1    2  501    0 -0.12738501939E+03 -0.23276359499E+02  0.20434466901E+03  0.29710290860E+03  0.17246640968E+03 0.  0.
         24    2    5    5    0    0 -0.13664147224E+03 -0.65070820185E+02  0.12718336806E+03  0.20873767094E+03  0.67012704626E+02 0.  0.
          5    1    5    5  501    0  0.92564528481E+01  0.41794460685E+02  0.77161300948E+02  0.88365237663E+02  0.47000000000E+01 0. -1.
        -11    1    6    6    0    0 -0.10208284399E+03 -0.43288046718E+02  0.12603911765E+03  0.16787084679E+03  0.00000000000E+00 0.  1.
         12    1    6    6    0    0 -0.34558628249E+02 -0.21782773467E+02  0.11442504109E+01  0.40866824141E+02  0.00000000000E+00 0. -1.
         -5    1    3    3    0  503  0.33935884322E+02  0.72437310362E+02  0.15587311118E+02  0.81632484006E+02  0.47000000000E+01 0.  1.
         13    1    4    4    0    0 -0.26175269037E+01 -0.30110349742E+02  0.13984463658E+02  0.33302399800E+02  0.00000000000E+00 0. -1.
        -14    1    4    4    0    0  0.96066661973E+02 -0.19050601121E+02 -0.11263954485E+02  0.98582988474E+02  0.00000000000E+00 0.  1.
<mgrwt>
<rscale>  2 0.21493133E+03</rscale>
<asrwt>0</asrwt>
<pdfrwt beam="1">  1       21 0.56405636E-01 0.21566964E+03</pdfrwt>
<pdfrwt beam="2">  1       21 0.22151407E-01 0.21566964E+03</pdfrwt>
<totfact> 0.55737326E+04</totfact>
</mgrwt>
</event>
<event>
12    1  0.1029207E-001  0.1870757E+03  0.7546771E-02  0.1161170E+00
         21   -1    0    0  501  502  0.00000000000E+00  0.00000000000E+00  0.63655684338E+03  0.63655684338E+03  0.00000000000E+00 0.  1.
         21   -1    0    0  502  503 -0.00000000000E+00 -0.00000000000E+00 -0.77413179455E+02  0.77413179455E+02  0.00000000000E+00 0. -1.
         -6    2    1    2    0  503  0.70137946582E+02 -0.16490296803E+02  0.87049804523E+02  0.20616108693E+03  0.17243394056E+03 0.  0.
        -24    2    3    3    0    0  0.49257583814E+02  0.98185139166E+01  0.12389954695E+03  0.15607978715E+03  0.80542469819E+02 0.  0.
          6    2    1    2  501    0 -0.70137946582E+02  0.16490296803E+02  0.47209385940E+03  0.50780893591E+03  0.17264426391E+03 0.  0.
         24    2    5    5    0    0 -0.82207753107E+02  0.64541433198E+01  0.17145235924E+03  0.20672123070E+03  0.80857807892E+02 0.  0.
          5    1    5    5  501    0  0.12069806525E+02  0.10036153483E+02  0.30064150016E+03  0.30108770520E+03  0.47000000000E+01 0. -1.
        -13    1    6    6    0    0 -0.11688310924E+02 -0.24204806111E+02  0.93248939514E+02  0.97045628297E+02  0.00000000000E+00 0.  1.
         14    1    6    6    0    0 -0.70519442183E+02  0.30658949431E+02  0.78203419729E+02  0.10967560241E+03  0.00000000000E+00 0. -1.
         -5    1    3    3    0  503  0.20880362769E+02 -0.26308810719E+02 -0.36849742424E+02  0.50081299778E+02  0.47000000000E+01 0.  1.
         13    1    4    4    0    0 -0.22446369253E+02 -0.28297505646E+00  0.27005743818E+02  0.35117371295E+02  0.00000000000E+00 0. -1.
        -14    1    4    4    0    0  0.71703953066E+02  0.10101488973E+02  0.96893803129E+02  0.12096241586E+03  0.00000000000E+00 0.  1.
<mgrwt>
<rscale>  2 0.18702712E+03</rscale>
<asrwt>0</asrwt>
<pdfrwt beam="1">  1       21 0.97931819E-01 0.18707566E+03</pdfrwt>
<pdfrwt beam="2">  1       21 0.11909720E-01 0.18707566E+03</pdfrwt>
<totfact> 0.51443220E+04</totfact>
</mgrwt>
</event>
<event>
12    1  0.1029207E-001  0.2036138E+03  0.7546771E-02  0.1146830E+00
         21   -1    0    0  503  502  0.00000000000E+00  0.00000000000E+00  0.15506767049E+02  0.15506767049E+02  0.00000000000E+00 0. -1.
         21   -1    0    0  501  503 -0.00000000000E+00 -0.00000000000E+00 -0.29127444701E+04  0.29127444701E+04  0.00000000000E+00 0. -1.
          6    2    1    2  501    0  0.24727932847E+02  0.10388595222E+03 -0.18723138411E+04  0.18832978913E+04  0.17276592858E+03 0.  0.
         24    2    3    3    0    0 -0.19880703675E+02  0.94434335013E+01 -0.42476617950E+03  0.43197930381E+03  0.75467813398E+02 0.  0.
         -6    2    1    2    0  502 -0.24727932847E+02 -0.10388595222E+03 -0.10249238620E+04  0.10449533458E+04  0.17336323275E+03 0.  0.
        -24    2    5    5    0    0 -0.56240452013E+02 -0.11886209992E+03 -0.93788862072E+03  0.95106752647E+03  0.87196260193E+02 0.  0.
          5    1    3    3  501    0  0.44608636522E+02  0.94442518719E+02 -0.14475476616E+04  0.14513185875E+04  0.47000000000E+01 0. -1.
        -11    1    4    4    0    0 -0.24580873693E+02 -0.17049943838E+01 -0.41672339734E+03  0.41745121421E+03  0.00000000000E+00 0.  1.
         12    1    4    4    0    0  0.47001700184E+01  0.11148427885E+02 -0.80427821616E+01  0.14528089599E+02  0.00000000000E+00 0. -1.
         -5    1    5    5    0  502  0.31512519166E+02  0.14976147695E+02 -0.87035241232E+02  0.93885819378E+02  0.47000000000E+01 0.  1.
         13    1    6    6    0    0  0.12862000605E+02 -0.29195600057E+02 -0.86688710181E+02  0.92372867202E+02  0.00000000000E+00 0. -1.
        -14    1    6    6    0    0 -0.69102452618E+02 -0.89666499858E+02 -0.85119991054E+03  0.85869465927E+03  0.00000000000E+00 0.  1.
<mgrwt>
<rscale>  2 0.20348658E+03</rscale>
<asrwt>0</asrwt>
<pdfrwt beam="1">  1       21 0.23856562E-02 0.20361378E+03</pdfrwt>
<pdfrwt beam="2">  1       21 0.44811458E+00 0.20361378E+03</pdfrwt>
<totfact> 0.38916716E+03</totfact>
</mgrwt>
</event>
<event>
12    1  0.1029207E-001  0.1852490E+03  0.7546771E-02  0.1162925E+00
         21   -1    0    0  501  502  0.00000000000E+00  0.00000000000E+00  0.98642747915E+02  0.98642747915E+02  0.00000000000E+00 0.  1.
         21   -1    0    0  502  503 -0.00000000000E+00 -0.00000000000E+00 -0.12185841732E+04  0.12185841732E+04  0.00000000000E+00 0.  1.
         -6    2    1    2    0  503 -0.63212912823E+01 -0.65197763638E+02 -0.11167659061E+04  0.11319506577E+04  0.17278742825E+03 0.  0.
        -24    2    3    3    0    0  0.20986820365E+02 -0.35073759807E+02 -0.27726337647E+03  0.29145093979E+03  0.79987843564E+02 0.  0.
          6    2    1    2  501    0  0.63212912823E+01  0.65197763638E+02 -0.31755191494E+01  0.18527626337E+03  0.17328157068E+03 0.  0.
         24    2    5    5    0    0 -0.20266185434E+02  0.69414248479E+02 -0.58104297205E+02  0.12392536019E+03  0.82172558556E+02 0.  0.
          5    1    5    5  501    0  0.26587476717E+02 -0.42164848411E+01  0.54928778056E+02  0.61350903182E+02  0.47000000000E+01 0. -1.
        -13    1    6    6    0    0 -0.32288738353E+01  0.63484906485E+02 -0.50685876780E+00  0.63568985233E+02  0.00000000000E+00 0.  1.
         14    1    6    6    0    0 -0.17037311599E+02  0.59293419938E+01 -0.57597438437E+02  0.60356374954E+02  0.00000000000E+00 0. -1.
         -5    1    3    3    0  503 -0.27308111648E+02 -0.30124003831E+02 -0.83950252963E+03  0.84049971792E+03  0.47000000000E+01 0.  1.
         13    1    4    4    0    0 -0.15457332877E+02  0.15244677072E+02 -0.12711858150E+03  0.12895915276E+03  0.00000000000E+00 0. -1.
        -14    1    4    4    0    0  0.36444153242E+02 -0.50318436879E+02 -0.15014479497E+03  0.16249178703E+03  0.00000000000E+00 0.  1.
<mgrwt>
<rscale>  2 0.18513341E+03</rscale>
<asrwt>0</asrwt>
<pdfrwt beam="1">  1       21 0.15175806E-01 0.18524905E+03</pdfrwt>
<pdfrwt beam="2">  1       21 0.18747450E+00 0.18524905E+03</pdfrwt>
<totfact> 0.62657091E+03</totfact>
</mgrwt>
</event>
<event>
12    1  0.1029207E-001  0.2509928E+03  0.7546771E-02  0.1112694E+00
         21   -1    0    0  503  502  0.00000000000E+00  0.00000000000E+00  0.19585707093E+03  0.19585707093E+03  0.00000000000E+00 0. -1.
         21   -1    0    0  501  503 -0.00000000000E+00 -0.00000000000E+00 -0.41361283827E+03  0.41361283827E+03  0.00000000000E+00 0.  1.
          6    2    1    2  501    0  0.17939437706E+03 -0.28916294921E+02 -0.25268476270E+03  0.35615579779E+03  0.17314406824E+03 0.  0.
         24    2    3    3    0    0  0.14476299186E+03 -0.10637748546E+02 -0.91097425353E+02  0.18982481544E+03  0.81640885247E+02 0.  0.
         -6    2    1    2    0  502 -0.17939437706E+03  0.28916294921E+02  0.34928995360E+02  0.25331411141E+03  0.17300147308E+03 0.  0.
        -24    2    5    5    0    0 -0.13836826104E+03  0.10187440496E+02 -0.39936500280E+02  0.16578786037E+03  0.81493134579E+02 0.  0.
          5    1    3    3  501    0  0.34631385201E+02 -0.18278546374E+02 -0.16158733735E+03  0.16633098235E+03  0.47000000000E+01 0. -1.
        -11    1    4    4    0    0  0.15229616448E+02 -0.27332598382E+02 -0.12771781374E+01  0.31315225298E+02  0.00000000000E+00 0.  1.
         12    1    4    4    0    0  0.12953337541E+03  0.16694849836E+02 -0.89820247215E+02  0.15850959014E+03  0.00000000000E+00 0. -1.
         -5    1    5    5    0  502 -0.41026116021E+02  0.18728854424E+02  0.74865495641E+02  0.87526251041E+02  0.47000000000E+01 0.  1.
         11    1    6    6    0    0 -0.10595291073E+03  0.27077416390E+02  0.30011354086E+01  0.10939932625E+03  0.00000000000E+00 0. -1.
        -12    1    6    6    0    0 -0.32415350315E+02 -0.16889975894E+02 -0.42937635689E+02  0.56388534121E+02  0.00000000000E+00 0.  1.
<mgrwt>
<rscale>  2 0.25096816E+03</rscale>
<asrwt>0</asrwt>
<pdfrwt beam="1">  1       21 0.30131857E-01 0.25099275E+03</pdfrwt>
<pdfrwt beam="2">  1       21 0.63632743E-01 0.25099275E+03</pdfrwt>
<totfact> 0.23382998E+04</totfact>
</mgrwt>
</event>
<event>
12    1  0.1029207E-001  0.1857465E+03  0.7546771E-02  0.1162498E+00
         21   -1    0    0  501  502  0.00000000000E+00  0.00000000000E+00  0.34356124052E+03  0.34356124052E+03  0.00000000000E+00 0.  1.
         21   -1    0    0  502  503 -0.00000000000E+00 -0.00000000000E+00 -0.10526035163E+03  0.10526035163E+03  0.00000000000E+00 0.  1.
         -6    2    1    2    0  503 -0.62349240646E+02  0.23707248411E+02  0.69235037395E+02  0.19765425404E+03  0.17269699563E+03 0.  0.
        -24    2    3    3    0    0 -0.17919128173E+02  0.74820440449E+02  0.39885059352E+02  0.12369409918E+03  0.88262215866E+02 0.  0.
          6    2    1    2  501    0  0.62349240646E+02 -0.23707248411E+02  0.16906585149E+03  0.25116733811E+03  0.17335601563E+03 0.  0.
         24    2    5    5    0    0  0.31667723310E+02 -0.30827382844E+02  0.10599074156E+02  0.89532374876E+02  0.77139701486E+02 0.  0.
          5    1    5    5  501    0  0.30681517336E+02  0.71201344327E+01  0.15846677734E+03  0.16163496323E+03  0.47000000000E+01 0. -1.
        -11    1    6    6    0    0 -0.33486632983E+00 -0.49736569626E+02  0.15364161068E+02  0.52056660851E+02  0.00000000000E+00 0.  1.
         12    1    6    6    0    0  0.32002589640E+02  0.18909186782E+02 -0.47650869116E+01  0.37475714026E+02  0.00000000000E+00 0. -1.
         -5    1    3    3    0  503 -0.44430112473E+02 -0.51113192038E+02  0.29349978043E+02  0.73960154853E+02  0.47000000000E+01 0.  1.
         11    1    4    4    0    0 -0.18774079220E+02  0.59534058968E+02  0.67611003226E+02  0.92021834284E+02  0.00000000000E+00 0. -1.
        -12    1    4    4    0    0  0.85495104687E+00  0.15286381482E+02 -0.27725943874E+02  0.31672264899E+02  0.00000000000E+00 0.  1.
<mgrwt>
<rscale>  2 0.18559260E+03</rscale>
<asrwt>0</asrwt>
<pdfrwt beam="1">  1       21 0.52855575E-01 0.18574652E+03</pdfrwt>
<pdfrwt beam="2">  1       21 0.16193900E-01 0.18574652E+03</pdfrwt>
<totfact> 0.11598280E+05</totfact>
</mgrwt>
</event>
<event>
12    1  0.1029207E-001  0.1786250E+03  0.7546771E-02  0.1169410E+00
         21   -1    0    0  503  502  0.00000000000E+00  0.00000000000E+00  0.39219730017E+03  0.39219730017E+03  0.00000000000E+00 0. -1.
         21   -1    0    0  501  503 -0.00000000000E+00 -0.00000000000E+00 -0.83004737139E+02  0.83004737139E+02  0.00000000000E+00 0. -1.
          6    2    1    2  501    0  0.16220405265E+02 -0.37030635733E+02  0.19237547996E+03  0.26177026173E+03  0.17286114400E+03 0.  0.
         24    2    3    3    0    0 -0.28443377381E+01  0.10897745725E+02  0.22146561377E+02  0.83836091604E+02  0.80069775543E+02 0.  0.
         -6    2    1    2    0  502 -0.16220405265E+02  0.37030635733E+02  0.11681708307E+03  0.21343177558E+03  0.17399000662E+03 0.  0.
        -24    2    5    5    0    0  0.46834217609E+02  0.19074950504E+02  0.11445418567E+03  0.14765970414E+03  0.78398532729E+02 0.  0.
          5    1    3    3  501    0  0.19064743003E+02 -0.47928381459E+02  0.17022891858E+03  0.17793417012E+03  0.47000000000E+01 0. -1.
        -11    1    4    4    0    0 -0.38246667798E+02 -0.10164552420E+02  0.12825472208E+02  0.41600702649E+02  0.00000000000E+00 0.  1.
         12    1    4    4    0    0  0.35402330060E+02  0.21062298146E+02  0.93210891689E+01  0.42235388954E+02  0.00000000000E+00 0. -1.
         -5    1    5    5    0  502 -0.63054622874E+02  0.17955685230E+02  0.23628974032E+01  0.65772071444E+02  0.47000000000E+01 0.  1.
         11    1    6    6    0    0 -0.20415926150E+02 -0.39677832764E+01  0.16084558141E+02  0.26291944684E+02  0.00000000000E+00 0. -1.
        -12    1    6    6    0    0  0.67250143759E+02  0.23042733780E+02  0.98369627528E+02  0.12136775946E+03  0.00000000000E+00 0.  1.
<mgrwt>
<rscale>  2 0.17834952E+03</rscale>
<asrwt>0</asrwt>
<pdfrwt beam="1">  1       21 0.60338045E-01 0.17862500E+03</pdfrwt>
<pdfrwt beam="2">  1       21 0.12769960E-01 0.17862500E+03</pdfrwt>
<totfact> 0.13503141E+05</totfact>
</mgrwt>
</event>
<event>
11    1  0.1029207E-001  0.2550334E+03  0.7546771E-02  0.1110551E+00
         21   -1    0    0  501  502  0.00000000000E+00  0.00000000000E+00  0.20679771723E+03  0.20679771723E+03  0.00000000000E+00 0. -1.
         21   -1    0    0  502  503 -0.00000000000E+00 -0.00000000000E+00 -0.38359479387E+03  0.38359479387E+03  0.00000000000E+00 0. -1.
         -6    2    1    2    0  503 -0.15583844314E+03  0.96897172025E+02  0.39974607965E+02  0.25568070802E+03  0.17349343754E+03 0.  0.
          6    2    1    2  501    0  0.15583844314E+03 -0.96897172025E+02 -0.21677168460E+03  0.33471180307E+03  0.17710828767E+03 0.  0.
         24    2    4    4    0    0  0.88228636738E+02  0.50957897552E+01 -0.53309763308E+02  0.13046797847E+03  0.79810419919E+02 0.  0.
          5    1    4    4  501    0  0.67609806400E+02 -0.10199296178E+03 -0.16346192130E+03  0.20424382460E+03  0.47000000000E+01 0. -1.
        -11    1    5    5    0    0  0.95792070989E+01  0.15377520148E+02 -0.47614917788E+02  0.50945163955E+02  0.00000000000E+00 0.  1.
         12    1    5    5    0    0  0.78649429639E+02 -0.10281730392E+02 -0.56948455202E+01  0.79522814512E+02  0.00000000000E+00 0. -1.
         -5    1    3    3    0  503 -0.16259247939E+02 -0.33842270583E+02  0.44079056421E+02  0.58092302732E+02  0.47000000000E+01 0.  1.
         13    1    3    3    0    0 -0.17366736906E+02  0.15326023512E+02 -0.17397001279E+02  0.28968020315E+02  0.00000000000E+00 0. -1.
        -14    1    3    3    0    0 -0.12221245829E+03  0.11541341910E+03  0.13292552823E+02  0.16862038498E+03  0.00000000000E+00 0.  1.
<mgrwt>
<rscale>  2 0.25440685E+03</rscale>
<asrwt>0</asrwt>
<pdfrwt beam="1">  1       21 0.31815034E-01 0.25503339E+03</pdfrwt>
<pdfrwt beam="2">  1       21 0.59014583E-01 0.25503339E+03</pdfrwt>
<totfact> 0.24695465E+04</totfact>
</mgrwt>
</event>
<event>
12    1  0.1029207E-001  0.1817072E+03  0.7546771E-02  0.1166505E+00
         21   -1    0    0  501  502  0.00000000000E+00  0.00000000000E+00  0.13671652325E+03  0.13671652325E+03  0.00000000000E+00 0.  1.
         21   -1    0    0  502  503 -0.00000000000E+00 -0.00000000000E+00 -0.39871036501E+03  0.39871036501E+03  0.00000000000E+00 0.  1.
         -6    2    1    2    0  503  0.42355280422E+01  0.53321426312E+02 -0.29980116714E+03  0.34982815766E+03  0.17215657371E+03 0.  0.
        -24    2    3    3    0    0  0.60116145519E+02 -0.24105890847E+01 -0.18733121434E+03  0.21234986398E+03  0.79873143014E+02 0.  0.
          6    2    1    2  501    0 -0.42355280422E+01 -0.53321426312E+02  0.37807325376E+02  0.18559873061E+03  0.17365592633E+03 0.  0.
         24    2    5    5    0    0 -0.93688104945E+01 -0.98218693361E+02  0.25273641354E+01  0.12807585827E+03  0.81623229325E+02 0.  0.
          5    1    5    5  501    0  0.51332824523E+01  0.44897267049E+02  0.35279961240E+02  0.57522872341E+02  0.47000000000E+01 0. -1.
        -13    1    6    6    0    0 -0.41963578112E+02 -0.29623716835E+02  0.77657504697E+01  0.51950104595E+02  0.00000000000E+00 0.  1.
         14    1    6    6    0    0  0.32594767617E+02 -0.68594976526E+02 -0.52383863343E+01  0.76125753671E+02  0.00000000000E+00 0. -1.
         -5    1    3    3    0  503 -0.55880617476E+02  0.55732015397E+02 -0.11246995280E+03  0.13747829367E+03  0.47000000000E+01 0.  1.
         11    1    4    4    0    0 -0.14850417017E+02  0.11323214588E+02 -0.15123119844E+02  0.24030373031E+02  0.00000000000E+00 0. -1.
        -12    1    4    4    0    0  0.74966562536E+02 -0.13733803673E+02 -0.17220809450E+03  0.18831949095E+03  0.00000000000E+00 0.  1.
<mgrwt>
<rscale>  2 0.18134801E+03</rscale>
<asrwt>0</asrwt>
<pdfrwt beam="1">  1       21 0.21033312E-01 0.18170717E+03</pdfrwt>
<pdfrwt beam="2">  1       21 0.61340055E-01 0.18170717E+03</pdfrwt>
<totfact> 0.52169950E+04</totfact>
</mgrwt>
</event>
<event>
12    1  0.1029207E-001  0.1801296E+03  0.7546771E-02  0.1167938E+00
         21   -1    0    0  501  502  0.00000000000E+00  0.00000000000E+00  0.60165035290E+02  0.60165035290E+02  0.00000000000E+00 0. -1.
         21   -1    0    0  502  503 -0.00000000000E+00 -0.00000000000E+00 -0.64238585758E+03  0.64238585758E+03  0.00000000000E+00 0. -1.
         -6    2    1    2    0  503 -0.42575769123E+02 -0.20425101400E+02 -0.43473673194E+03  0.47057699842E+03  0.17382981464E+03 0.  0.
        -24    2    3    3    0    0 -0.68151437146E+02  0.40561039321E+02 -0.29880540886E+03  0.31933930884E+03  0.80019407087E+02 0.  0.
          6    2    1    2  501    0  0.42575769123E+02  0.20425101400E+02 -0.14748409034E+03  0.23197389445E+03  0.17271493831E+03 0.  0.
         24    2    5    5    0    0  0.62340284786E+02 -0.44013578322E+02 -0.99218220588E+02  0.14893978274E+03  0.80717392188E+02 0.  0.
          5    1    5    5  501    0 -0.19764515663E+02  0.64438679722E+02 -0.48265869757E+02  0.83034111708E+02  0.47000000000E+01 0. -1.
        -11    1    6    6    0    0 -0.16527205226E+02 -0.23692680315E+02 -0.33902920323E+02  0.44540988085E+02  0.00000000000E+00 0.  1.
         12    1    6    6    0    0  0.78867490012E+02 -0.20320898007E+02 -0.65315300264E+02  0.10439879465E+03  0.00000000000E+00 0. -1.
         -5    1    3    3    0  503  0.25575668022E+02 -0.60986140721E+02 -0.13593132309E+03  0.15123768958E+03  0.47000000000E+01 0.  1.
         11    1    4    4    0    0 -0.80411786668E+02  0.15395854631E+02 -0.18802314650E+03  0.20507508722E+03  0.00000000000E+00 0. -1.
        -12    1    4    4    0    0  0.12260349522E+02  0.25165184690E+02 -0.11078226235E+03  0.11426422162E+03  0.00000000000E+00 0.  1.
<mgrwt>
<rscale>  2 0.17986012E+03</rscale>
<asrwt>0</asrwt>
<pdfrwt beam="1">  1       21 0.92561598E-02 0.18012963E+03</pdfrwt>
<pdfrwt beam="2">  1       21 0.98828587E-01 0.18012963E+03</pdfrwt>
<totfact> 0.78928793E+04</totfact>
</mgrwt>
</event>
<event>
12    1  0.1029207E-001  0.2346295E+03  0.7546771E-02  0.1123581E+00
         21   -1    0    0  503  502  0.00000000000E+00  0.00000000000E+00  0.60554047433E+03  0.60554047433E+03  0.00000000000E+00 0.  1.
         21   -1    0    0  501  503 -0.00000000000E+00 -0.00000000000E+00 -0.22894709825E+03  0.22894709825E+03  0.00000000000E+00 0. -1.
          6    2    1    2  501    0 -0.78985482255E+02 -0.13666105733E+03 -0.13624365226E+03  0.27052585684E+03  0.17235705800E+03 0.  0.
         24    2    3    3    0    0 -0.35585957974E+02 -0.15688133096E+03 -0.80265832037E+02  0.19671539328E+03  0.79851297744E+02 0.  0.
         -6    2    1    2    0  502  0.78985482255E+02  0.13666105733E+03  0.51283702835E+03  0.56396171573E+03  0.17359737375E+03 0.  0.
        -24    2    5    5    0    0  0.98918729936E+02  0.65196556472E+02  0.21320990436E+03  0.25524985546E+03  0.75223130000E+02 0.  0.
          5    1    3    3  501    0 -0.43399524281E+02  0.20220273638E+02 -0.55977820227E+02  0.73810463562E+02  0.47000000000E+01 0. -1.
        -11    1    4    4    0    0 -0.37276849097E+02 -0.23693881356E+02 -0.70742934828E+01  0.44732640438E+02  0.00000000000E+00 0.  1.
         12    1    4    4    0    0  0.16908911232E+01 -0.13318744961E+03 -0.73191538554E+02  0.15198275284E+03  0.00000000000E+00 0. -1.
         -5    1    5    5    0  502 -0.19933247682E+02  0.71464500854E+02  0.29962712399E+03  0.30871186028E+03  0.47000000000E+01 0.  1.
         13    1    6    6    0    0  0.56893958594E+02  0.75510428773E+02  0.12244879485E+03  0.15470117885E+03  0.00000000000E+00 0. -1.
        -14    1    6    6    0    0  0.42024771342E+02 -0.10313872301E+02  0.90761109504E+02  0.10054867660E+03  0.00000000000E+00 0.  1.
<mgrwt>
<rscale>  2 0.23440011E+03</rscale>
<asrwt>0</asrwt>
<pdfrwt beam="1">  1       21 0.93160072E-01 0.23462949E+03</pdfrwt>
<pdfrwt beam="2">  1       21 0.35222631E-01 0.23462949E+03</pdfrwt>
<totfact> 0.73191693E+03</totfact>
</mgrwt>
</event>
<event>
12    1  0.1029207E-001  0.2006198E+03  0.7546771E-02  0.1149504E+00
         21   -1    0    0  503  502  0.00000000000E+00  0.00000000000E+00  0.63948581143E+03  0.63948581143E+03  0.00000000000E+00 0. -1.
         21   -1    0    0  501  503 -0.00000000000E+00 -0.00000000000E+00 -0.73641606846E+02  0.73641606846E+02  0.00000000000E+00 0.  1.
          6    2    1    2  501    0  0.92469529477E+02 -0.38500399488E+02  0.14349062209E+03  0.24554761861E+03  0.17225324303E+03 0.  0.
         24    2    3    3    0    0  0.26486089876E+02  0.34739426704E+02  0.30272616308E+02  0.95353433385E+02  0.79167576921E+02 0.  0.
         -6    2    1    2    0  502 -0.92469529477E+02  0.38500399488E+02  0.42235358250E+03  0.46757979967E+03  0.17382584897E+03 0.  0.
        -24    2    5    5    0    0 -0.58349780649E+02 -0.46127242055E+02  0.23111529071E+03  0.25563601179E+03  0.80019207475E+02 0.  0.
          5    1    3    3  501    0  0.65983439601E+02 -0.73239826191E+02  0.11321800578E+03  0.15019418523E+03  0.47000000000E+01 0. -1.
        -13    1    4    4    0    0  0.18565685355E+02  0.15675776146E+02 -0.25896354875E+02  0.35511066251E+02  0.00000000000E+00 0.  1.
         14    1    4    4    0    0  0.79204045206E+01  0.19063650558E+02  0.56168971183E+02  0.59842367134E+02  0.00000000000E+00 0. -1.
         -5    1    5    5    0  502 -0.34119748828E+02  0.84627641543E+02  0.19123829179E+03  0.21194378788E+03  0.47000000000E+01 0.  1.
         11    1    6    6    0    0  0.12199217537E+02 -0.11418096172E+01  0.95524364508E+02  0.96306951215E+02  0.00000000000E+00 0. -1.
        -12    1    6    6    0    0 -0.70548998187E+02 -0.44985432438E+02  0.13559092620E+03  0.15932906058E+03  0.00000000000E+00 0.  1.
<mgrwt>
<rscale>  2 0.20027871E+03</rscale>
<asrwt>0</asrwt>
<pdfrwt beam="1">  1       21 0.98382429E-01 0.20061984E+03</pdfrwt>
<pdfrwt beam="2">  1       21 0.11329478E-01 0.20061984E+03</pdfrwt>
<totfact> 0.55261351E+04</totfact>
</mgrwt>
</event>
<event>
12    1  0.1029207E-001  0.1855369E+03  0.7546771E-02  0.1162848E+00
         21   -1    0    0  501  502  0.00000000000E+00  0.00000000000E+00  0.22422681292E+03  0.22422681292E+03  0.00000000000E+00 0.  1.
         21   -1    0    0  502  503 -0.00000000000E+00 -0.00000000000E+00 -0.15247574420E+03  0.15247574420E+03  0.00000000000E+00 0.  1.
         -6    2    1    2    0  503 -0.65679364829E+02 -0.18656985361E+02  0.37489766751E+02  0.18928660623E+03  0.17251688213E+03 0.  0.
        -24    2    3    3    0    0 -0.11130395727E+03 -0.17490924892E+02  0.36151412440E+02  0.14338623232E+03  0.80982613192E+02 0.  0.
          6    2    1    2  501    0  0.65679364829E+02  0.18656985361E+02  0.34261301976E+02  0.18741595089E+03  0.17114040952E+03 0.  0.
         24    2    5    5    0    0  0.85233390055E+02  0.55142186902E+02 -0.62186397466E+01  0.12932769463E+03  0.79884851887E+02 0.  0.
          5    1    5    5  501    0 -0.19554025226E+02 -0.36485201541E+02  0.40479941722E+02  0.58088256265E+02  0.47000000000E+01 0. -1.
        -13    1    6    6    0    0  0.16223274279E+02  0.36593142201E+00 -0.33391505783E+02  0.37125748377E+02  0.00000000000E+00 0.  1.
         14    1    6    6    0    0  0.69010115776E+02  0.54776255480E+02  0.27172866036E+02  0.92201946251E+02  0.00000000000E+00 0. -1.
         -5    1    3    3    0  503  0.45624592443E+02 -0.11660604688E+01  0.13383543108E+01  0.45900373908E+02  0.47000000000E+01 0.  1.
         11    1    4    4    0    0 -0.17008223668E+02  0.10788026272E+02 -0.21372166298E+02  0.29367170028E+02  0.00000000000E+00 0. -1.
        -12    1    4    4    0    0 -0.94295733604E+02 -0.28278951164E+02  0.57523578739E+02  0.11401906229E+03  0.00000000000E+00 0.  1.
<mgrwt>
<rscale>  2 0.18521626E+03</rscale>
<asrwt>0</asrwt>
<pdfrwt beam="1">  1       21 0.34496433E-01 0.18553689E+03</pdfrwt>
<pdfrwt beam="2">  1       21 0.23457807E-01 0.18553689E+03</pdfrwt>
<totfact> 0.13879834E+05</totfact>
</mgrwt>
</event>
<event>
12    1  0.1029207E-001  0.1828157E+03  0.7546771E-02  0.1165440E+00
         21   -1    0    0  503  502  0.00000000000E+00  0.00000000000E+00  0.47977012924E+03  0.47977012924E+03  0.00000000000E+00 0.  1.
         21   -1    0    0  501  503 -0.00000000000E+00 -0.00000000000E+00 -0.41009558181E+03  0.41009558181E+03  0.00000000000E+00 0.  1.
          6    2    1    2  501    0 -0.20889961664E+02  0.54964025234E+02 -0.37084286409E+03  0.41345616818E+03  0.17310152681E+03 0.  0.
         24    2    3    3    0    0 -0.87522204376E+01 -0.30238848903E+02 -0.11615388132E+03  0.14457808713E+03  0.80125587583E+02 0.  0.
         -6    2    1    2    0  502  0.20889961664E+02 -0.54964025234E+02  0.44051741152E+03  0.47640954287E+03  0.17161884546E+03 0.  0.
        -24    2    5    5    0    0  0.11377647218E+02  0.34611827071E+02  0.19391045491E+03  0.21382355982E+03  0.82412503813E+02 0.  0.
          5    1    3    3  501    0 -0.12137741226E+02  0.85202874137E+02 -0.25468898277E+03  0.26887808105E+03  0.47000000000E+01 0. -1.
        -11    1    4    4    0    0 -0.36045216468E+01  0.15397681703E+02 -0.90703545741E+02  0.92071789317E+02  0.00000000000E+00 0.  1.
         12    1    4    4    0    0 -0.51476987908E+01 -0.45636530606E+02 -0.25450335583E+02  0.52506297812E+02  0.00000000000E+00 0. -1.
         -5    1    5    5    0  502  0.95123144457E+01 -0.89575852305E+02  0.24660695662E+03  0.26258598305E+03  0.47000000000E+01 0.  1.
         11    1    6    6    0    0 -0.77034470345E-02 -0.27067740274E+02  0.50490663085E+02  0.57288477738E+02  0.00000000000E+00 0. -1.
        -12    1    6    6    0    0  0.11385350665E+02  0.61679567345E+02  0.14341979182E+03  0.15653508209E+03  0.00000000000E+00 0.  1.
<mgrwt>
<rscale>  2 0.18246385E+03</rscale>
<asrwt>0</asrwt>
<pdfrwt beam="1">  1       21 0.73810790E-01 0.18281568E+03</pdfrwt>
<pdfrwt beam="2">  1       21 0.63091628E-01 0.18281568E+03</pdfrwt>
<totfact> 0.38621610E+03</totfact>
</mgrwt>
</event>
<event>
12    1  0.1029207E-001  0.1937076E+03  0.7546771E-02  0.1155232E+00
         21   -1    0    0  503  502  0.00000000000E+00  0.00000000000E+00  0.24725092396E+03  0.24725092396E+03  0.00000000000E+00 0.  1.
         21   -1    0    0  501  503 -0.00000000000E+00 -0.00000000000E+00 -0.15757628920E+03  0.15757628920E+03  0.00000000000E+00 0.  1.
          6    2    1    2  501    0 -0.64746331465E+02  0.58259617715E+02  0.84626827947E+02  0.21138666300E+03  0.17302124375E+03 0.  0.
         24    2    3    3    0    0 -0.17004659488E+01  0.77897094222E+02  0.91802954412E+02  0.14479838750E+03  0.80423514670E+02 0.  0.
         -6    2    1    2    0  502  0.64746331465E+02 -0.58259617715E+02  0.50478068128E+01  0.19344055016E+03  0.17264847407E+03 0.  0.
        -24    2    5    5    0    0  0.10707816671E+03 -0.20875627785E+02 -0.81844221715E+00  0.13646643450E+03  0.81981048263E+02 0.  0.
          5    1    3    3  501    0 -0.63045865516E+02 -0.19637476507E+02 -0.71761264646E+01  0.66588275494E+02  0.47000000000E+01 0. -1.
        -13    1    4    4    0    0  0.20746875077E+02  0.24818148555E+02  0.79556281558E+02  0.85881169406E+02  0.00000000000E+00 0.  1.
         14    1    4    4    0    0 -0.22447341026E+02  0.53078945667E+02  0.12246672854E+02  0.58917218097E+02  0.00000000000E+00 0. -1.
         -5    1    5    5    0  502 -0.42331835247E+02 -0.37383989930E+02  0.58662490300E+01  0.56974115668E+02  0.47000000000E+01 0.  1.
         13    1    6    6    0    0  0.30730986316E+02  0.31260224786E+02  0.29897205289E+01  0.43937837936E+02  0.00000000000E+00 0. -1.
        -14    1    6    6    0    0  0.76347180396E+02 -0.52135852572E+02 -0.38081627461E+01  0.92528596559E+02  0.00000000000E+00 0.  1.
<mgrwt>
<rscale>  2 0.19362429E+03</rscale>
<asrwt>0</asrwt>
<pdfrwt beam="1">  1       21 0.38038603E-01 0.19370757E+03</pdfrwt>
<pdfrwt beam="2">  1       21 0.24242506E-01 0.19370757E+03</pdfrwt>
<totfact> 0.10701422E+05</totfact>
</mgrwt>
</event>
<event>
12    1  0.1029207E-001  0.1877595E+03  0.7546771E-02  0.1160925E+00
         21   -1    0    0  501  502  0.00000000000E+00  0.00000000000E+00  0.67623141626E+02  0.67623141626E+02  0.00000000000E+00 0. -1.
         21   -1    0    0  502  503 -0.00000000000E+00 -0.00000000000E+00 -0.65837739358E+03  0.65837739358E+03  0.00000000000E+00 0.  1.
         -6    2    1    2    0  503  0.52623411787E+02 -0.41938564637E+02 -0.46522292727E+03  0.50168318027E+03  0.17528712057E+03 0.  0.
        -24    2    3    3    0    0  0.89931977505E+02 -0.69360082944E+02 -0.37022725845E+03  0.39589974189E+03  0.82278800679E+02 0.  0.
          6    2    1    2  501    0 -0.52623411787E+02  0.41938564637E+02 -0.12553132468E+03  0.22431735493E+03  0.17329770794E+03 0.  0.
         24    2    5    5    0    0 -0.15143786846E+02 -0.43473162700E+02 -0.64320896858E+02  0.11265405780E+03  0.80215390112E+02 0.  0.
          5    1    5    5  501    0 -0.37479624941E+02  0.85411727337E+02 -0.61210427824E+02  0.11166329713E+03  0.47000000000E+01 0. -1.
        -13    1    6    6    0    0  0.10197595246E+02 -0.11098118690E+02 -0.69590684236E+02  0.71204090610E+02  0.00000000000E+00 0.  1.
         14    1    6    6    0    0 -0.25341382092E+02 -0.32375044011E+02  0.52697873775E+01  0.41449967189E+02  0.00000000000E+00 0. -1.
         -5    1    3    3    0  503 -0.37308565718E+02  0.27421518307E+02 -0.94995668816E+02  0.10578343838E+03  0.47000000000E+01 0.  1.
         13    1    4    4    0    0  0.36792813013E+01 -0.43784944604E+02 -0.71522826722E+02  0.83941486925E+02  0.00000000000E+00 0. -1.
        -14    1    4    4    0    0  0.86252696204E+02 -0.25575138339E+02 -0.29870443173E+03  0.31195825496E+03  0.00000000000E+00 0.  1.
<mgrwt>
<rscale>  2 0.18729383E+03</rscale>
<asrwt>0</asrwt>
<pdfrwt beam="1">  1       21 0.10403560E-01 0.18775953E+03</pdfrwt>
<pdfrwt beam="2">  1       21 0.10128883E+00 0.18775953E+03</pdfrwt>
<totfact> 0.60389283E+04</totfact>
</mgrwt>
</event>
<event>
12    1  0.1029207E-001  0.1850735E+03  0.7546771E-02  0.1163920E+00
         21   -1    0    0  501  502  0.00000000000E+00  0.00000000000E+00  0.86749872602E+02  0.86749872602E+02  0.00000000000E+00 0. -1.
         21   -1    0    0  502  503 -0.00000000000E+00 -0.00000000000E+00 -0.46031425007E+03  0.46031425007E+03  0.00000000000E+00 0. -1.
         -6    2    1    2    0  503 -0.33189843579E+02  0.25116359087E+02 -0.29808521015E+03  0.35086608706E+03  0.18033252987E+03 0.  0.
        -24    2    3    3    0    0 -0.50574247178E+02 -0.10924423111E+02 -0.68599629673E+02  0.11787064265E+03  0.80687556100E+02 0.  0.
          6    2    1    2  501    0  0.33189843579E+02 -0.25116359087E+02 -0.75479167317E+02  0.19619803561E+03  0.17625029721E+03 0.  0.
         24    2    5    5    0    0 -0.18327909029E+01  0.27833537762E+02 -0.84951832479E+02  0.13183890349E+03  0.96884558545E+02 0.  0.
          5    1    5    5  501    0  0.35022634482E+02 -0.52949896849E+02  0.94726651615E+01  0.64359132123E+02  0.47000000000E+01 0. -1.
        -13    1    6    6    0    0 -0.30370432287E+02 -0.25623887422E+02 -0.40055801086E+02  0.56421750810E+02  0.00000000000E+00 0.  1.
         14    1    6    6    0    0  0.28537641384E+02  0.53457425184E+02 -0.44896031393E+02  0.75417152677E+02  0.00000000000E+00 0. -1.
         -5    1    3    3    0  503  0.17384403599E+02  0.36040782198E+02 -0.22948558048E+03  0.23299544441E+03  0.47000000000E+01 0.  1.
         11    1    4    4    0    0 -0.71459448699E+02 -0.25405502204E+01 -0.61379715341E+02  0.94235750430E+02  0.00000000000E+00 0. -1.
        -12    1    4    4    0    0  0.20885201522E+02 -0.83838728905E+01 -0.72199143325E+01  0.23634892219E+02  0.00000000000E+00 0.  1.
<mgrwt>
<rscale>  2 0.18407161E+03</rscale>
<asrwt>0</asrwt>
<pdfrwt beam="1">  1       21 0.13346134E-01 0.18507355E+03</pdfrwt>
<pdfrwt beam="2">  1       21 0.70817580E-01 0.18507355E+03</pdfrwt>
<totfact> 0.87823167E+04</totfact>
</mgrwt>
</event>
<event>
12    1  0.1029207E-001  0.3230873E+03  0.7546771E-02  0.1074326E+00
         21   -1    0    0  501  502  0.00000000000E+00  0.00000000000E+00  0.17218112744E+03  0.17218112744E+03  0.00000000000E+00 0.  1.
         21   -1    0    0  502  503 -0.00000000000E+00 -0.00000000000E+00 -0.60602430188E+03  0.60602430188E+03  0.00000000000E+00 0. -1.
         -6    2    1    2    0  503 -0.27215477110E+03  0.14825253696E+02 -0.19909628841E+03  0.37884159167E+03  0.17202793942E+03 0.  0.
        -24    2    3    3    0    0 -0.24398033959E+03  0.67867402459E+02 -0.17515990646E+03  0.31401637654E+03  0.61586536513E+02 0.  0.
          6    2    1    2  501    0  0.27215477110E+03 -0.14825253696E+02 -0.23474688602E+03  0.39936383765E+03  0.17348592666E+03 0.  0.
         24    2    5    5    0    0  0.26028594876E+03  0.17651168590E+02 -0.16004239724E+03  0.31691119918E+03  0.82211923541E+02 0.  0.
          5    1    5    5  501    0  0.11868822339E+02 -0.32476422287E+02 -0.74704488776E+02  0.82452638476E+02  0.47000000000E+01 0. -1.
        -11    1    6    6    0    0  0.46100151799E+02 -0.39766384100E+00  0.43517195726E+01  0.46306798590E+02  0.00000000000E+00 0.  1.
         12    1    6    6    0    0  0.21418579696E+03  0.18048832431E+02 -0.16439411682E+03  0.27060440059E+03  0.00000000000E+00 0. -1.
         -5    1    3    3    0  503 -0.28174431513E+02 -0.53042148763E+02 -0.23936381952E+02  0.64825215136E+02  0.47000000000E+01 0.  1.
         11    1    4    4    0    0 -0.33722160495E+02  0.31751915164E+02 -0.42049538748E+02  0.62558228347E+02  0.00000000000E+00 0. -1.
        -12    1    4    4    0    0 -0.21025817909E+03  0.36115487295E+02 -0.13311036771E+03  0.25145814819E+03  0.00000000000E+00 0.  1.
<mgrwt>
<rscale>  2 0.32289194E+03</rscale>
<asrwt>0</asrwt>
<pdfrwt beam="1">  1       21 0.26489404E-01 0.32308725E+03</pdfrwt>
<pdfrwt beam="2">  1       21 0.93234509E-01 0.32308725E+03</pdfrwt>
<totfact> 0.12245743E+04</totfact>
</mgrwt>
</event>
<event>
12    1  0.1029207E-001  0.2092486E+03  0.7546771E-02  0.1142213E+00
         21   -1    0    0  501  502  0.00000000000E+00  0.00000000000E+00  0.66972636464E+02  0.66972636464E+02  0.00000000000E+00 0. -1.
         21   -1    0    0  502  503 -0.00000000000E+00 -0.00000000000E+00 -0.90657304005E+03  0.90657304005E+03  0.00000000000E+00 0. -1.
         -6    2    1    2    0  503  0.68652428166E+02 -0.97417162769E+02 -0.67706467278E+03  0.70858745698E+03  0.17168678914E+03 0.  0.
        -24    2    3    3    0    0  0.33894061359E+02  0.19598904749E+02 -0.17908858947E+03  0.19584661243E+03  0.68922044796E+02 0.  0.
          6    2    1    2  501    0 -0.68652428166E+02  0.97417162769E+02 -0.16253573080E+03  0.26495821953E+03  0.17199341503E+03 0.  0.
         24    2    5    5    0    0 -0.17826024417E+02  0.12905121914E+03 -0.13699512202E+03  0.19970142266E+03  0.64350683339E+02 0.  0.
          5    1    5    5  501    0 -0.50826403749E+02 -0.31634056375E+02 -0.25540608783E+02  0.65256796871E+02  0.47000000000E+01 0. -1.
        -11    1    6    6    0    0 -0.15636696950E+02  0.94477067671E+00 -0.25134480257E+02  0.29616565988E+02  0.00000000000E+00 0.  1.
         12    1    6    6    0    0 -0.21893274671E+01  0.12810644847E+03 -0.11186064176E+03  0.17008485667E+03  0.00000000000E+00 0. -1.
         -5    1    3    3    0  503  0.34758366807E+02 -0.11701606752E+03 -0.49797608331E+03  0.51274084455E+03  0.47000000000E+01 0.  1.
         11    1    4    4    0    0  0.22989022193E+02  0.18892086369E+02 -0.18209702285E+03  0.18451214540E+03  0.00000000000E+00 0. -1.
        -12    1    4    4    0    0  0.10905039165E+02  0.70681837985E+00  0.30084333816E+01  0.11334467029E+02  0.00000000000E+00 0.  1.
<mgrwt>
<rscale>  2 0.20918562E+03</rscale>
<asrwt>0</asrwt>
<pdfrwt beam="1">  1       21 0.10303483E-01 0.20924864E+03</pdfrwt>
<pdfrwt beam="2">  1       21 0.13947276E+00 0.20924864E+03</pdfrwt>
<totfact> 0.27527539E+04</totfact>
</mgrwt>
</event>
<event>
12    1  0.1029207E-001  0.1975524E+03  0.7546771E-02  0.1152068E+00
         21   -1    0    0  503  502  0.00000000000E+00  0.00000000000E+00  0.21147940780E+03  0.21147940780E+03  0.00000000000E+00 0.  1.
         21   -1    0    0  501  503 -0.00000000000E+00 -0.00000000000E+00 -0.20679886076E+03  0.20679886076E+03  0.00000000000E+00 0. -1.
          6    2    1    2  501    0  0.90471974571E+02  0.23442504133E+02  0.72588311509E+02  0.21046617619E+03  0.17404660057E+03 0.  0.
         24    2    3    3    0    0  0.49118170535E+02  0.64673982239E+02 -0.35933855145E+01  0.11436251936E+03  0.80439758573E+02 0.  0.
         -6    2    1    2    0  502 -0.90471974571E+02 -0.23442504133E+02 -0.67907764470E+02  0.20781209237E+03  0.17274163388E+03 0.  0.
        -24    2    5    5    0    0 -0.27929780714E+02 -0.11825852781E+02 -0.10463273039E+03  0.13420987961E+03  0.78385968594E+02 0.  0.
          5    1    3    3  501    0  0.41353804035E+02 -0.41231478106E+02  0.76181697024E+02  0.96103656832E+02  0.47000000000E+01 0. -1.
        -13    1    4    4    0    0 -0.50616700751E+01  0.17822374858E+02  0.29991016743E+02  0.35252214608E+02  0.00000000000E+00 0.  1.
         14    1    4    4    0    0  0.54179840611E+02  0.46851607381E+02 -0.33584402257E+02  0.79110304751E+02  0.00000000000E+00 0. -1.
         -5    1    5    5    0  502 -0.62542193857E+02 -0.11616651352E+02  0.36724965916E+02  0.73602212756E+02  0.47000000000E+01 0.  1.
         11    1    6    6    0    0 -0.28182362600E+02 -0.35486685806E+02 -0.10042578824E+03  0.11017662808E+03  0.00000000000E+00 0. -1.
        -12    1    6    6    0    0  0.25258188635E+00  0.23660833025E+02 -0.42069421479E+01  0.24033251534E+02  0.00000000000E+00 0.  1.
<mgrwt>
<rscale>  2 0.19726458E+03</rscale>
<asrwt>0</asrwt>
<pdfrwt beam="1">  1       21 0.32535294E-01 0.19755239E+03</pdfrwt>
<pdfrwt beam="2">  1       21 0.31815209E-01 0.19755239E+03</pdfrwt>
<totfact> 0.86184893E+04</totfact>
</mgrwt>
</event>
<event>
12    1  0.1029207E-001  0.2194206E+03  0.7546771E-02  0.1134458E+00
         21   -1    0    0  501  502  0.00000000000E+00  0.00000000000E+00  0.13751217085E+03  0.13751217085E+03  0.00000000000E+00 0.  1.
         21   -1    0    0  502  503 -0.00000000000E+00 -0.00000000000E+00 -0.36913178313E+03  0.36913178313E+03  0.00000000000E+00 0.  1.
         -6    2    1    2    0  503 -0.89314842103E+02 -0.10041919597E+03 -0.17529037891E+03  0.28084181157E+03  0.17344811976E+03 0.  0.
        -24    2    3    3    0    0 -0.10993872776E+03 -0.37778423812E+02 -0.67715254665E+02  0.15457341350E+03  0.76117352019E+02 0.  0.
          6    2    1    2  501    0  0.89314842103E+02  0.10041919597E+03 -0.56329233378E+02  0.22580214241E+03  0.17248904036E+03 0.  0.
         24    2    5    5    0    0  0.64420668531E+02  0.10264762771E+03  0.17239124849E+02  0.14796205558E+03  0.83120541729E+02 0.  0.
          5    1    5    5  501    0  0.24894173571E+02 -0.22284317356E+01 -0.73568358227E+02  0.77840086832E+02  0.47000000000E+01 0. -1.
        -11    1    6    6    0    0  0.82270594089E+02  0.64079224834E+02  0.15507381330E+02  0.10542806354E+03  0.00000000000E+00 0.  1.
         12    1    6    6    0    0 -0.17849925558E+02  0.38568402875E+02  0.17317435183E+01  0.42533992034E+02  0.00000000000E+00 0. -1.
         -5    1    3    3    0  503  0.20623885656E+02 -0.62640772161E+02 -0.10757512424E+03  0.12626839807E+03  0.47000000000E+01 0.  1.
         13    1    4    4    0    0 -0.18503654220E+02 -0.10366147274E+02  0.16817704466E+02  0.27068014561E+02  0.00000000000E+00 0. -1.
        -14    1    4    4    0    0 -0.91435073539E+02 -0.27412276538E+02 -0.84532959130E+02  0.12750539893E+03  0.00000000000E+00 0.  1.
<mgrwt>
<rscale>  2 0.21923103E+03</rscale>
<asrwt>0</asrwt>
<pdfrwt beam="1">  1       21 0.21155719E-01 0.21942061E+03</pdfrwt>
<pdfrwt beam="2">  1       21 0.56789505E-01 0.21942061E+03</pdfrwt>
<totfact> 0.59820348E+04</totfact>
</mgrwt>
</event>
<event>
12    1  0.1029207E-001  0.2670513E+03  0.7546771E-02  0.1103163E+00
         21   -1    0    0  503  502  0.00000000000E+00  0.00000000000E+00  0.27594378782E+03  0.27594378782E+03  0.00000000000E+00 0.  1.
         21   -1    0    0  501  503 -0.00000000000E+00 -0.00000000000E+00 -0.25833993145E+03  0.25833993145E+03  0.00000000000E+00 0.  1.
          6    2    1    2  501    0  0.13957920508E+03 -0.14494409728E+03 -0.87188033776E+01  0.26719362135E+03  0.17557126168E+03 0.  0.
         24    2    3    3    0    0 -0.39088099260E+01 -0.39919520786E+02 -0.10644107323E+02  0.89303855162E+02  0.79076131616E+02 0.  0.
         -6    2    1    2    0  502 -0.13957920508E+03  0.14494409728E+03  0.26322659749E+02  0.26709009791E+03  0.17364645737E+03 0.  0.
        -24    2    5    5    0    0 -0.84649503914E+02  0.13847268025E+03 -0.35643259328E+02  0.18389745139E+03  0.78788381138E+02 0.  0.
          5    1    3    3  501    0  0.14348801501E+03 -0.10502457650E+03  0.19253039458E+01  0.17788976619E+03  0.47000000000E+01 0. -1.
        -11    1    4    4    0    0  0.83300071451E+01  0.10734477439E+02 -0.30616457153E+02  0.33496051611E+02  0.00000000000E+00 0.  1.
         12    1    4    4    0    0 -0.12238817071E+02 -0.50653998226E+02  0.19972349829E+02  0.55807803551E+02  0.00000000000E+00 0. -1.
         -5    1    5    5    0  502 -0.54929701167E+02  0.64714170339E+01  0.61965919077E+02  0.83192646525E+02  0.47000000000E+01 0.  1.
         11    1    6    6    0    0 -0.74839741510E+02  0.99959738286E+02 -0.58667965856E+02  0.13796690330E+03  0.00000000000E+00 0. -1.
        -12    1    6    6    0    0 -0.98097624034E+01  0.38512941965E+02  0.23024706528E+02  0.45930548090E+02  0.00000000000E+00 0.  1.
<mgrwt>
<rscale>  2 0.26673540E+03</rscale>
<asrwt>0</asrwt>
<pdfrwt beam="1">  1       21 0.42452890E-01 0.26705133E+03</pdfrwt>
<pdfrwt beam="2">  1       21 0.39744605E-01 0.26705133E+03</pdfrwt>
<totfact> 0.31438236E+04</totfact>
</mgrwt>
</event>
<event>
12    1  0.1029207E-001  0.1838916E+03  0.7546771E-02  0.1166776E+00
         21   -1    0    0  503  502  0.00000000000E+00  0.00000000000E+00  0.34012947286E+02  0.34012947286E+02  0.00000000000E+00 0. -1.
         21   -1    0    0  501  503 -0.00000000000E+00 -0.00000000000E+00 -0.13361283540E+04  0.13361283540E+04  0.00000000000E+00 0. -1.
          6    2    1    2  501    0  0.58811754826E+02  0.17735272203E+02 -0.10402327549E+04  0.10563618234E+04  0.17332845989E+03 0.  0.
         24    2    3    3    0    0 -0.28702844960E+02 -0.81940229540E+01 -0.33758498724E+03  0.34779488299E+03  0.78145132319E+02 0.  0.
         -6    2    1    2    0  502 -0.58811754826E+02 -0.17735272203E+02 -0.26188265178E+03  0.31377947794E+03  0.16156012839E+03 0.  0.
        -24    2    5    5    0    0 -0.42226135471E+02 -0.33737909925E+02 -0.27109152333E+03  0.28851961851E+03  0.82653875634E+02 0.  0.
          5    1    3    3  501    0  0.87514599785E+02  0.25929295157E+02 -0.70264776770E+03  0.70856694037E+03  0.47000000000E+01 0. -1.
        -11    1    4    4    0    0 -0.26931396817E+02  0.10520118570E+02 -0.38642415087E+02  0.48261882195E+02  0.00000000000E+00 0.  1.
         12    1    4    4    0    0 -0.17714481428E+01 -0.18714141524E+02 -0.29894257215E+03  0.29953300080E+03  0.00000000000E+00 0. -1.
         -5    1    5    5    0  502 -0.16585619355E+02  0.16002637721E+02  0.92088715484E+01  0.25259859434E+02  0.47000000000E+01 0.  1.
         11    1    6    6    0    0  0.21014866289E+02 -0.27314249057E+02 -0.79190609754E+02  0.86364607797E+02  0.00000000000E+00 0. -1.
        -12    1    6    6    0    0 -0.63241001760E+02 -0.64236608671E+01 -0.19190091358E+03  0.20215501071E+03  0.00000000000E+00 0.  1.
<mgrwt>
<rscale>  2 0.18106519E+03</rscale>
<asrwt>0</asrwt>
<pdfrwt beam="1">  1       21 0.52327619E-02 0.18389159E+03</pdfrwt>
<pdfrwt beam="2">  1       21 0.20555818E+00 0.18389159E+03</pdfrwt>
<totfact> 0.31010782E+04</totfact>
</mgrwt>
</event>
<event>
12    1  0.1029207E-001  0.2686125E+03  0.7546771E-02  0.1102141E+00
         21   -1    0    0  503  502  0.00000000000E+00  0.00000000000E+00  0.41206667869E+03  0.41206667869E+03  0.00000000000E+00 0. -1.
         21   -1    0    0  501  503 -0.00000000000E+00 -0.00000000000E+00 -0.19548004776E+03  0.19548004776E+03  0.00000000000E+00 0.  1.
          6    2    1    2  501    0  0.14476716152E+03  0.14559448966E+03  0.94258660239E+01  0.26832960411E+03  0.17250113917E+03 0.  0.
         24    2    3    3    0    0  0.16735621262E+03  0.86470053788E+02 -0.32358266507E+01  0.20361196657E+03  0.77215220347E+02 0.  0.
         -6    2    1    2    0  502 -0.14476716152E+03 -0.14559448966E+03  0.20716076491E+03  0.33921712235E+03  0.17319753781E+03 0.  0.
        -24    2    5    5    0    0 -0.10673186096E+03 -0.11350111289E+03  0.22591783227E+03  0.28582623832E+03  0.79897301595E+02 0.  0.
          5    1    3    3  501    0 -0.22589051099E+02  0.59124435869E+02  0.12661692675E+02  0.64717637532E+02  0.47000000000E+01 0. -1.
        -11    1    4    4    0    0  0.69598813303E+02  0.22807020735E+02 -0.37148724234E+02  0.82122973157E+02  0.00000000000E+00 0.  1.
         12    1    4    4    0    0  0.97757399318E+02  0.63663033053E+02  0.33912897583E+02  0.12148899342E+03  0.00000000000E+00 0. -1.
         -5    1    5    5    0  502 -0.38035300563E+02 -0.32093376767E+02 -0.18757067365E+02  0.53390884029E+02  0.47000000000E+01 0.  1.
         13    1    6    6    0    0 -0.88118969759E+02 -0.86238685122E+02  0.10977592834E+03  0.16508427571E+03  0.00000000000E+00 0. -1.
        -14    1    6    6    0    0 -0.18612891200E+02 -0.27262427767E+02  0.11614190393E+03  0.12074196261E+03  0.00000000000E+00 0.  1.
<mgrwt>
<rscale>  2 0.26850030E+03</rscale>
<asrwt>0</asrwt>
<pdfrwt beam="1">  1       21 0.63394874E-01 0.26861250E+03</pdfrwt>
<pdfrwt beam="2">  1       21 0.30073854E-01 0.26861250E+03</pdfrwt>
<totfact> 0.23477533E+04</totfact>
</mgrwt>
</event>
<event>
12    1  0.1029207E-001  0.2183570E+03  0.7546771E-02  0.1135592E+00
         21   -1    0    0  503  502  0.00000000000E+00  0.00000000000E+00  0.53859348302E+03  0.53859348302E+03  0.00000000000E+00 0.  1.
         21   -1    0    0  501  503 -0.00000000000E+00 -0.00000000000E+00 -0.25533612857E+03  0.25533612857E+03  0.00000000000E+00 0.  1.
          6    2    1    2  501    0 -0.85577420883E+02 -0.10162404546E+03 -0.17992008836E+03  0.28293285506E+03  0.17328825897E+03 0.  0.
         24    2    3    3    0    0 -0.98282057861E+02 -0.11502035490E+03 -0.94938168125E+02  0.19584160594E+03  0.80322063663E+02 0.  0.
         -6    2    1    2    0  502  0.85577420883E+02  0.10162404546E+03  0.46317744281E+03  0.51099675653E+03  0.17009820715E+03 0.  0.
        -24    2    5    5    0    0  0.42636493621E+02  0.54972169292E+02  0.11346411775E+03  0.15555081055E+03  0.80511729969E+02 0.  0.
          5    1    3    3  501    0  0.12704636978E+02  0.13396309440E+02 -0.84981920234E+02  0.87091249124E+02  0.47000000000E+01 0. -1.
        -13    1    4    4    0    0  0.69044497990E+01 -0.42021596773E+02 -0.31385536063E+02  0.52901208837E+02  0.00000000000E+00 0.  1.
         14    1    4    4    0    0 -0.10518650766E+03 -0.72998758125E+02 -0.63552632062E+02  0.14294039710E+03  0.00000000000E+00 0. -1.
         -5    1    5    5    0  502  0.42940927262E+02  0.46651876166E+02  0.34971332506E+03  0.35544594598E+03  0.47000000000E+01 0.  1.
         11    1    6    6    0    0  0.66696847750E+02  0.44262234993E+02  0.86688642911E+02  0.11799379541E+03  0.00000000000E+00 0. -1.
        -12    1    6    6    0    0 -0.24060354129E+02  0.10709934299E+02  0.26775474837E+02  0.37557015140E+02  0.00000000000E+00 0.  1.
<mgrwt>
<rscale>  2 0.21772348E+03</rscale>
<asrwt>0</asrwt>
<pdfrwt beam="1">  1       21 0.82860535E-01 0.21835696E+03</pdfrwt>
<pdfrwt beam="2">  1       21 0.39282482E-01 0.21835696E+03</pdfrwt>
<totfact> 0.77921933E+03</totfact>
</mgrwt>
</event>
<event>
12    1  0.1029207E-001  0.1876948E+03  0.7546771E-02  0.1160744E+00
         21   -1    0    0  501  502  0.00000000000E+00  0.00000000000E+00  0.38935595183E+03  0.38935595183E+03  0.00000000000E+00 0.  1.
         21   -1    0    0  502  503 -0.00000000000E+00 -0.00000000000E+00 -0.10878517685E+03  0.10878517685E+03  0.00000000000E+00 0. -1.
         -6    2    1    2    0  503  0.51862584770E+02 -0.47479773253E+02  0.37281096854E+02  0.19136146037E+03  0.17402664097E+03 0.  0.
        -24    2    3    3    0    0  0.25356839541E+02  0.40993133994E+02 -0.12418203419E+00  0.91605484436E+02  0.77898286319E+02 0.  0.
          6    2    1    2  501    0 -0.51862584770E+02  0.47479773253E+02  0.24328967812E+03  0.30677966830E+03  0.17314687649E+03 0.  0.
         24    2    5    5    0    0 -0.71328671251E+02  0.79072445666E+02  0.13815175738E+03  0.19518621934E+03  0.87587220232E+02 0.  0.
          5    1    5    5  501    0  0.19466086480E+02 -0.31592672414E+02  0.10513792074E+03  0.11159344896E+03  0.47000000000E+01 0. -1.
        -13    1    6    6    0    0 -0.22844538471E+02  0.64964643511E+01  0.94803823885E+02  0.97733525519E+02  0.00000000000E+00 0.  1.
         14    1    6    6    0    0 -0.48484132779E+02  0.72575981315E+02  0.43347933495E+02  0.97452693824E+02  0.00000000000E+00 0. -1.
         -5    1    3    3    0  503  0.26505745229E+02 -0.88472907246E+02  0.37405278889E+02  0.99755975939E+02  0.47000000000E+01 0.  1.
         13    1    4    4    0    0 -0.15079976336E+01  0.94818323865E+01 -0.35727625004E+02  0.36995167126E+02  0.00000000000E+00 0. -1.
        -14    1    4    4    0    0  0.26864837175E+02  0.31511301607E+02  0.35603442969E+02  0.54610317310E+02  0.00000000000E+00 0.  1.
<mgrwt>
<rscale>  2 0.18749059E+03</rscale>
<asrwt>0</asrwt>
<pdfrwt beam="1">  1       21 0.59900915E-01 0.18769477E+03</pdfrwt>
<pdfrwt beam="2">  1       21 0.16736181E-01 0.18769477E+03</pdfrwt>
<totfact> 0.83659845E+04</totfact>
</mgrwt>
</event>
<event>
12    1  0.1029207E-001  0.2220901E+03  0.7546771E-02  0.1132598E+00
         21   -1    0    0  501  502  0.00000000000E+00  0.00000000000E+00  0.98396688887E+02  0.98396688887E+02  0.00000000000E+00 0.  1.
         21   -1    0    0  502  503 -0.00000000000E+00 -0.00000000000E+00 -0.52475895120E+03  0.52475895120E+03  0.00000000000E+00 0. -1.
         -6    2    1    2    0  503 -0.10339999642E+03 -0.92952487628E+02 -0.14225487009E+03  0.26254365918E+03  0.17135051998E+03 0.  0.
        -24    2    3    3    0    0 -0.11082120615E+03 -0.31852264130E+02 -0.14511931598E+03  0.20074878306E+03  0.77100918049E+02 0.  0.
          6    2    1    2  501    0  0.10339999642E+03  0.92952487628E+02 -0.28410739223E+03  0.36061198091E+03  0.17318275388E+03 0.  0.
         24    2    5    5    0    0  0.57514196753E-01  0.83946401927E+02 -0.17305291637E+03  0.20857262804E+03  0.80673586757E+02 0.  0.
          5    1    5    5  501    0  0.10334248222E+03  0.90060857003E+01 -0.11105447586E+03  0.15203935286E+03  0.47000000000E+01 0. -1.
        -11    1    6    6    0    0  0.24685409454E+02  0.54454163918E+02 -0.44863414012E+02  0.74748587443E+02  0.00000000000E+00 0.  1.
         12    1    6    6    0    0 -0.24627895258E+02  0.29492238009E+02 -0.12818950236E+03  0.13382404060E+03  0.00000000000E+00 0. -1.
         -5    1    3    3    0  503  0.74212097377E+01 -0.61100223498E+02  0.28644458921E+01  0.61794876128E+02  0.47000000000E+01 0.  1.
         11    1    4    4    0    0  0.51974437430E+01  0.13656637972E+01  0.55379814301E+01  0.77167154534E+01  0.00000000000E+00 0. -1.
        -12    1    4    4    0    0 -0.11601864990E+03 -0.33217927927E+02 -0.15065729741E+03  0.19303206760E+03  0.00000000000E+00 0.  1.
<mgrwt>
<rscale>  2 0.22173275E+03</rscale>
<asrwt>0</asrwt>
<pdfrwt beam="1">  1       21 0.15137952E-01 0.22209005E+03</pdfrwt>
<pdfrwt beam="2">  1       21 0.80732148E-01 0.22209005E+03</pdfrwt>
<totfact> 0.51247684E+04</totfact>
</mgrwt>
</event>
<event>
12    1  0.1029207E-001  0.2027634E+03  0.7546771E-02  0.1150271E+00
         21   -1    0    0  501  502  0.00000000000E+00  0.00000000000E+00  0.34733498564E+03  0.34733498564E+03  0.00000000000E+00 0. -1.
         21   -1    0    0  502  503 -0.00000000000E+00 -0.00000000000E+00 -0.17813143016E+03  0.17813143016E+03  0.00000000000E+00 0. -1.
         -6    2    1    2    0  503 -0.50243123501E+02  0.57773143970E+02 -0.75134338737E+02  0.21623639416E+03  0.18775223482E+03 0.  0.
        -24    2    3    3    0    0 -0.69521334717E+02  0.10125516372E+03 -0.36729166418E+02  0.15492258878E+03  0.86983634600E+02 0.  0.
          6    2    1    2  501    0  0.50243123501E+02 -0.57773143970E+02  0.24433789421E+03  0.30923002164E+03  0.17337846496E+03 0.  0.
         24    2    5    5    0    0  0.77845713900E+02  0.12894388953E+02  0.16573162890E+03  0.19988269359E+03  0.79119516802E+02 0.  0.
          5    1    5    5  501    0 -0.27602590399E+02 -0.70667532923E+02  0.78606265311E+02  0.10934732805E+03  0.47000000000E+01 0. -1.
        -13    1    6    6    0    0  0.44682020632E+02  0.93084575193E+01  0.19052344009E+02  0.49458287085E+02  0.00000000000E+00 0.  1.
         14    1    6    6    0    0  0.33163693268E+02  0.35859314340E+01  0.14667928489E+03  0.15042440650E+03  0.00000000000E+00 0. -1.
         -5    1    3    3    0  503  0.19278211216E+02 -0.43482019750E+02 -0.38405172320E+02  0.61313805379E+02  0.47000000000E+01 0.  1.
         13    1    4    4    0    0  0.10913688767E+02  0.58247362908E+02 -0.12866100023E+02  0.60641573347E+02  0.00000000000E+00 0. -1.
        -14    1    4    4    0    0 -0.80435023484E+02  0.43007800812E+02 -0.23863066395E+02  0.94281015434E+02  0.00000000000E+00 0.  1.
<mgrwt>
<rscale>  2 0.19937128E+03</rscale>
<asrwt>0</asrwt>
<pdfrwt beam="1">  1       21 0.53436152E-01 0.20276343E+03</pdfrwt>
<pdfrwt beam="2">  1       21 0.27404835E-01 0.20276343E+03</pdfrwt>
<totfact> 0.41882854E+04</totfact>
</mgrwt>
</event>
<event>
12    1  0.1029207E-001  0.1742069E+03  0.7546771E-02  0.1174265E+00
         21   -1    0    0  503  502  0.00000000000E+00  0.00000000000E+00  0.91373736282E+02  0.91373736282E+02  0.00000000000E+00 0.  1.
         21   -1    0    0  501  503 -0.00000000000E+00 -0.00000000000E+00 -0.88185969126E+03  0.88185969126E+03  0.00000000000E+00 0.  1.
          6    2    1    2  501    0  0.29986209271E+02 -0.90048258000E+01 -0.78257239009E+03  0.80172788690E+03  0.17137035701E+03 0.  0.
         24    2    3    3    0    0  0.33759372057E+02 -0.53622602602E+02 -0.69366570476E+03  0.70207111863E+03  0.87844561294E+02 0.  0.
         -6    2    1    2    0  502 -0.29986209271E+02  0.90048258000E+01 -0.79135648920E+01  0.17150554065E+03  0.16843772241E+03 0.  0.
        -24    2    5    5    0    0  0.39279113527E+02 -0.20132555973E+01  0.24810440193E+02  0.93968236280E+02  0.81655186788E+02 0.  0.
          5    1    3    3  501    0 -0.37731627858E+01  0.44617776802E+02 -0.88906685328E+02  0.99656768260E+02  0.47000000000E+01 0. -1.
        -13    1    4    4    0    0  0.32430813639E+02 -0.33992105865E+02 -0.66839499142E+03  0.67004409220E+03  0.00000000000E+00 0.  1.
         14    1    4    4    0    0  0.13285584180E+01 -0.19630496736E+02 -0.25270713337E+02  0.32027026433E+02  0.00000000000E+00 0. -1.
         -5    1    5    5    0  502 -0.69265322798E+02  0.11018081397E+02 -0.32724005085E+02  0.77537304369E+02  0.47000000000E+01 0.  1.
         13    1    6    6    0    0  0.93549324134E+01  0.10433278660E+02 -0.28397552859E+02  0.31666845003E+02  0.00000000000E+00 0. -1.
        -14    1    6    6    0    0  0.29924181114E+02 -0.12446534257E+02  0.53207993053E+02  0.62301391277E+02  0.00000000000E+00 0.  1.
<mgrwt>
<rscale>  2 0.17348140E+03</rscale>
<asrwt>0</asrwt>
<pdfrwt beam="1">  1       21 0.14057498E-01 0.17420694E+03</pdfrwt>
<pdfrwt beam="2">  1       21 0.13567073E+00 0.17420694E+03</pdfrwt>
<totfact> 0.17338070E+04</totfact>
</mgrwt>
</event>
<event>
12    1  0.1029207E-001  0.2542307E+03  0.7546771E-02  0.1110954E+00
         21   -1    0    0  501  502  0.00000000000E+00  0.00000000000E+00  0.10238609932E+04  0.10238609932E+04  0.00000000000E+00 0. -1.
         21   -1    0    0  502  503 -0.00000000000E+00 -0.00000000000E+00 -0.24084318345E+03  0.24084318345E+03  0.00000000000E+00 0.  1.
         -6    2    1    2    0  503  0.17693691219E+03  0.50532077918E+02 -0.15278294513E+03  0.29498448399E+03  0.17266457564E+03 0.  0.
        -24    2    3    3    0    0  0.49116898838E+02  0.63560101154E+02 -0.30158176141E+02  0.11731453951E+03  0.80005183470E+02 0.  0.
          6    2    1    2  501    0 -0.17693691219E+03 -0.50532077918E+02  0.93580075483E+03  0.96971969262E+03  0.17542254049E+03 0.  0.
         24    2    5    5    0    0 -0.16906531228E+03 -0.55774459047E+02  0.54754177759E+03  0.58131710760E+03  0.80210418754E+02 0.  0.
          5    1    5    5  501    0 -0.78715999161E+01  0.52423811296E+01  0.38825897724E+03  0.38840258502E+03  0.47000000000E+01 0. -1.
        -11    1    6    6    0    0 -0.15120664977E+03 -0.54104255609E+02  0.37626875630E+03  0.40910744111E+03  0.00000000000E+00 0.  1.
         12    1    6    6    0    0 -0.17858662508E+02 -0.16702034386E+01  0.17127302130E+03  0.17220966648E+03  0.00000000000E+00 0. -1.
         -5    1    3    3    0  503  0.12782001335E+03 -0.13028023236E+02 -0.12262476899E+03  0.17766994448E+03  0.47000000000E+01 0.  1.
         13    1    4    4    0    0  0.37698444133E+02 -0.97603430979E+01 -0.13918100968E+02  0.41353966219E+02  0.00000000000E+00 0. -1.
        -14    1    4    4    0    0  0.11418454705E+02  0.73320444252E+02 -0.16240075173E+02  0.75960573291E+02  0.00000000000E+00 0.  1.
<mgrwt>
<rscale>  2 0.25375555E+03</rscale>
<asrwt>0</asrwt>
<pdfrwt beam="1">  1       21 0.15751707E+00 0.25423066E+03</pdfrwt>
<pdfrwt beam="2">  1       21 0.37052798E-01 0.25423066E+03</pdfrwt>
<totfact> 0.17477719E+03</totfact>
</mgrwt>
</event>
<event>
12    1  0.1029207E-001  0.1937345E+03  0.7546771E-02  0.1156110E+00
         21   -1    0    0  501  502  0.00000000000E+00  0.00000000000E+00  0.46751930517E+03  0.46751930517E+03  0.00000000000E+00 0. -1.
         21   -1    0    0  502  503 -0.00000000000E+00 -0.00000000000E+00 -0.15293362731E+03  0.15293362731E+03  0.00000000000E+00 0. -1.
         -6    2    1    2    0  503  0.26817893491E+02 -0.82253351725E+02 -0.60081961577E+02  0.19866044468E+03  0.16843787249E+03 0.  0.
        -24    2    3    3    0    0 -0.46242857178E+02 -0.66077838304E+02 -0.31218693165E+02  0.11831930462E+03  0.80747560253E+02 0.  0.
          6    2    1    2  501    0 -0.26817893491E+02  0.82253351725E+02  0.37466763944E+03  0.42179248780E+03  0.17334430896E+03 0.  0.
         24    2    5    5    0    0 -0.21107341107E+02  0.51560645131E+02  0.37748689660E+03  0.39009562901E+03  0.81081580488E+02 0.  0.
          5    1    5    5  501    0 -0.57105523842E+01  0.30692706594E+02 -0.28192571617E+01  0.31696858796E+02  0.47000000000E+01 0. -1.
        -11    1    6    6    0    0 -0.52428705599E+02  0.32628535111E+02  0.23258284708E+03  0.24064116694E+03  0.00000000000E+00 0.  1.
         12    1    6    6    0    0  0.31321364492E+02  0.18932110020E+02  0.14490404952E+03  0.14945446207E+03  0.00000000000E+00 0. -1.
         -5    1    3    3    0  503  0.73060750669E+02 -0.16175513421E+02 -0.28863268413E+02  0.80341140061E+02  0.47000000000E+01 0.  1.
         13    1    4    4    0    0 -0.32597643608E+02 -0.84324431715E+02 -0.18690520196E+02  0.92317667313E+02  0.00000000000E+00 0. -1.
        -14    1    4    4    0    0 -0.13645213570E+02  0.18246593411E+02 -0.12528172968E+02  0.26001637302E+02  0.00000000000E+00 0.  1.
<mgrwt>
<rscale>  2 0.19263078E+03</rscale>
<asrwt>0</asrwt>
<pdfrwt beam="1">  1       21 0.71926046E-01 0.19373452E+03</pdfrwt>
<pdfrwt beam="2">  1       21 0.23528251E-01 0.19373452E+03</pdfrwt>
<totfact> 0.29650705E+04</totfact>
</mgrwt>
</event>
<event>
12    1  0.1029207E-001  0.2053940E+03  0.7546771E-02  0.1145671E+00
         21   -1    0    0  501  502  0.00000000000E+00  0.00000000000E+00  0.21569370241E+04  0.21569370241E+04  0.00000000000E+00 0. -1.
         21   -1    0    0  502  503 -0.00000000000E+00 -0.00000000000E+00 -0.36831691135E+02  0.36831691135E+02  0.00000000000E+00 0.  1.
         -6    2    1    2    0  503 -0.25638794585E+02  0.10745829115E+03  0.30751799098E+03  0.36980268464E+03  0.17315333858E+03 0.  0.
        -24    2    3    3    0    0  0.20180225435E+02  0.12920963945E+03  0.24367464838E+03  0.28812915072E+03  0.80862233482E+02 0.  0.
          6    2    1    2  501    0  0.25638794585E+02 -0.10745829115E+03  0.18125873420E+04  0.18239660306E+04  0.17080566833E+03 0.  0.
         24    2    5    5    0    0  0.51203621794E+02 -0.13427138826E+03  0.13769872113E+04  0.13867680590E+04  0.79882743034E+02 0.  0.
          5    1    5    5  501    0 -0.25564827209E+02  0.26813097111E+02  0.43560013065E+03  0.43719797162E+03  0.47000000000E+01 0. -1.
        -11    1    6    6    0    0  0.23874274629E+02 -0.65724429041E+02  0.10110018487E+04  0.10134171992E+04  0.00000000000E+00 0.  1.
         12    1    6    6    0    0  0.27329347166E+02 -0.68546959217E+02  0.36598536268E+03  0.37335085982E+03  0.00000000000E+00 0. -1.
         -5    1    3    3    0  503 -0.45819020020E+02 -0.21751348303E+02  0.63843342602E+02  0.81673533921E+02  0.47000000000E+01 0.  1.
         13    1    4    4    0    0  0.38626861899E+02  0.64786544694E+02  0.73849341613E+02  0.10556067492E+03  0.00000000000E+00 0. -1.
        -14    1    4    4    0    0 -0.18446636464E+02  0.64423094756E+02  0.16982530677E+03  0.18256847579E+03  0.00000000000E+00 0.  1.
<mgrwt>
<rscale>  2 0.20489844E+03</rscale>
<asrwt>0</asrwt>
<pdfrwt beam="1">  1       21 0.33183637E+00 0.20539404E+03</pdfrwt>
<pdfrwt beam="2">  1       21 0.56664157E-02 0.20539404E+03</pdfrwt>
<totfact> 0.47843614E+03</totfact>
</mgrwt>
</event>
<event>
12    1  0.1029207E-001  0.1738635E+03  0.7546771E-02  0.1173947E+00
         21   -1    0    0  501  502  0.00000000000E+00  0.00000000000E+00  0.33106621496E+03  0.33106621496E+03  0.00000000000E+00 0. -1.
         21   -1    0    0  502  503 -0.00000000000E+00 -0.00000000000E+00 -0.14086470964E+03  0.14086470964E+03  0.00000000000E+00 0. -1.
         -6    2    1    2    0  503 -0.14285169221E+02  0.11894984074E+02 -0.45111817226E+02  0.17935464217E+03  0.17259042531E+03 0.  0.
        -24    2    3    3    0    0 -0.68114076919E+02 -0.85417424654E+01  0.23617267188E+01  0.10458139515E+03  0.78861914886E+02 0.  0.
          6    2    1    2  501    0  0.14285169221E+02 -0.11894984074E+02  0.23531332255E+03  0.29257628243E+03  0.17286689841E+03 0.  0.
         24    2    5    5    0    0 -0.33910252991E+02 -0.19875886227E+02  0.52769194711E+02  0.10354998233E+03  0.79956580837E+02 0.  0.
          5    1    5    5  501    0  0.48195422212E+02  0.79809021533E+01  0.18254412784E+03  0.18902630010E+03  0.47000000000E+01 0. -1.
        -11    1    6    6    0    0 -0.15504632666E+01  0.26394532094E+02  0.25590161269E+00  0.26441269759E+02  0.00000000000E+00 0.  1.
         12    1    6    6    0    0 -0.32359789724E+02 -0.46270418321E+02  0.52513293098E+02  0.77108712573E+02  0.00000000000E+00 0. -1.
         -5    1    3    3    0  503  0.53828907698E+02  0.20436726539E+02 -0.47473543945E+02  0.74773247022E+02  0.47000000000E+01 0.  1.
         13    1    4    4    0    0 -0.55352326939E+02  0.25889199761E+02 -0.16506225940E+02  0.63297600718E+02  0.00000000000E+00 0. -1.
        -14    1    4    4    0    0 -0.12761749979E+02 -0.34430942226E+02  0.18867952659E+02  0.41283794432E+02  0.00000000000E+00 0.  1.
<mgrwt>
<rscale>  2 0.17379475E+03</rscale>
<asrwt>0</asrwt>
<pdfrwt beam="1">  1       21 0.50933264E-01 0.17386351E+03</pdfrwt>
<pdfrwt beam="2">  1       21 0.21671494E-01 0.17386351E+03</pdfrwt>
<totfact> 0.73385767E+04</totfact>
</mgrwt>
</event>
<event>
12    1  0.1029207E-001  0.1777961E+03  0.7546771E-02  0.1170429E+00
         21   -1    0    0  503  502  0.00000000000E+00  0.00000000000E+00  0.60509146661E+02  0.60509146661E+02  0.00000000000E+00 0.  1.
         21   -1    0    0  501  503 -0.00000000000E+00 -0.00000000000E+00 -0.63613624733E+03  0.63613624733E+03  0.00000000000E+00 0.  1.
          6    2    1    2  501    0  0.25443514035E+02  0.33936156074E+02 -0.43741553279E+03  0.47144794814E+03  0.17068035734E+03 0.  0.
         24    2    3    3    0    0  0.12835970524E+02  0.32821344619E+02 -0.10007323089E+03  0.13383557927E+03  0.81580070709E+02 0.  0.
         -6    2    1    2    0  502 -0.25443514035E+02 -0.33936156074E+02 -0.13821156788E+03  0.22519744586E+03  0.17266272623E+03 0.  0.
        -24    2    5    5    0    0 -0.33851163704E+02  0.23654732798E+02 -0.14038034725E+03  0.16676635261E+03  0.79993292222E+02 0.  0.
          5    1    3    3  501    0  0.12607543511E+02  0.11148114542E+01 -0.33734230190E+03  0.33761236886E+03  0.47000000000E+01 0. -1.
        -11    1    4    4    0    0 -0.14247917196E+02  0.18749560725E+02 -0.10059015288E+03  0.10330986414E+03  0.00000000000E+00 0.  1.
         12    1    4    4    0    0  0.27083887720E+02  0.14071783894E+02  0.51692199356E+00  0.30525715132E+02  0.00000000000E+00 0. -1.
         -5    1    5    5    0  502  0.84076496686E+01 -0.57590888872E+02  0.21687793713E+01  0.58431093246E+02  0.47000000000E+01 0.  1.
         11    1    6    6    0    0  0.13364994584E+02  0.37983106740E+02 -0.71112914347E+02  0.81721392945E+02  0.00000000000E+00 0. -1.
        -12    1    6    6    0    0 -0.47216158288E+02 -0.14328373942E+02 -0.69267432906E+02  0.85044959667E+02  0.00000000000E+00 0.  1.
<mgrwt>
<rscale>  2 0.17731301E+03</rscale>
<asrwt>0</asrwt>
<pdfrwt beam="1">  1       21 0.93090994E-02 0.17779610E+03</pdfrwt>
<pdfrwt beam="2">  1       21 0.97867116E-01 0.17779610E+03</pdfrwt>
<totfact> 0.80045588E+04</totfact>
</mgrwt>
</event>
<event>
12    1  0.1029207E-001  0.1752300E+03  0.7546771E-02  0.1172523E+00
         21   -1    0    0  501  502  0.00000000000E+00  0.00000000000E+00  0.27698576366E+03  0.27698576366E+03  0.00000000000E+00 0. -1.
         21   -1    0    0  502  503 -0.00000000000E+00 -0.00000000000E+00 -0.19820383039E+03  0.19820383039E+03  0.00000000000E+00 0. -1.
         -6    2    1    2    0  503 -0.49966413733E+01  0.27420230798E+02 -0.11838048447E+03  0.21146986429E+03  0.17299921653E+03 0.  0.
        -24    2    3    3    0    0 -0.64754016733E+02  0.21420786044E+02 -0.10727871199E+03  0.15021403519E+03  0.80022506603E+02 0.  0.
          6    2    1    2  501    0  0.49966413733E+01 -0.27420230798E+02  0.19716241774E+03  0.26371972977E+03  0.17291107951E+03 0.  0.
         24    2    5    5    0    0 -0.55790599294E+02 -0.41977852915E+02  0.90384645083E+02  0.13990294689E+03  0.80800491182E+02 0.  0.
          5    1    5    5  501    0  0.60787240668E+02  0.14557622117E+02  0.10677777265E+03  0.12381678288E+03  0.47000000000E+01 0. -1.
        -13    1    6    6    0    0 -0.25705923461E+02  0.49008215388E+01 -0.75495542475E+01  0.27236158358E+02  0.00000000000E+00 0.  1.
         14    1    6    6    0    0 -0.30084675833E+02 -0.46878674454E+02  0.97934199331E+02  0.11266678853E+03  0.00000000000E+00 0. -1.
         -5    1    3    3    0  503  0.59757375360E+02  0.59994447535E+01 -0.11101772477E+02  0.61255829105E+02  0.47000000000E+01 0.  1.
         13    1    4    4    0    0 -0.69754965289E+02  0.37679795656E+02 -0.58425093012E+02  0.98483570592E+02  0.00000000000E+00 0. -1.
        -14    1    4    4    0    0  0.50009485558E+01 -0.16259009611E+02 -0.48853618976E+02  0.51730464593E+02  0.00000000000E+00 0.  1.
<mgrwt>
<rscale>  2 0.17520828E+03</rscale>
<asrwt>0</asrwt>
<pdfrwt beam="1">  1       21 0.42613195E-01 0.17523003E+03</pdfrwt>
<pdfrwt beam="2">  1       21 0.30492897E-01 0.17523003E+03</pdfrwt>
<totfact> 0.55126817E+04</totfact>
</mgrwt>
</event>
<event>
12    1  0.1029207E-001  0.2402936E+03  0.7546771E-02  0.1122221E+00
         21   -1    0    0  501  502  0.00000000000E+00  0.00000000000E+00  0.41344743112E+02  0.41344743112E+02  0.00000000000E+00 0. -1.
         21   -1    0    0  502  503 -0.00000000000E+00 -0.00000000000E+00 -0.19978228131E+04  0.19978228131E+04  0.00000000000E+00 0. -1.
         -6    2    1    2    0  503 -0.38067994704E+02 -0.14141445795E+03 -0.15555382722E+04  0.15717344142E+04  0.17088748190E+03 0.  0.
        -24    2    3    3    0    0  0.11353767865E+02 -0.14266115245E+03 -0.13611618264E+04  0.13711144812E+04  0.81928568567E+02 0.  0.
          6    2    1    2  501    0  0.38067994704E+02  0.14141445795E+03 -0.40093979777E+03  0.46743314196E+03  0.19050931638E+03 0.  0.
         24    2    5    5    0    0  0.28713021117E+02 -0.89077235585E+01 -0.18892560176E+03  0.20732473553E+03  0.79917944432E+02 0.  0.
          5    1    5    5  501    0  0.93549735868E+01  0.15032218151E+03 -0.21201419601E+03  0.26010840643E+03  0.47000000000E+01 0. -1.
        -11    1    6    6    0    0  0.47706513152E+02 -0.70368853128E+01 -0.17982882398E+03  0.18618226308E+03  0.00000000000E+00 0.  1.
         12    1    6    6    0    0 -0.18993492035E+02 -0.18708382457E+01 -0.90967777843E+01  0.21142472454E+02  0.00000000000E+00 0. -1.
         -5    1    3    3    0  503 -0.49421762568E+02  0.12466945007E+01 -0.19437644576E+03  0.20061993303E+03  0.47000000000E+01 0.  1.
         13    1    4    4    0    0  0.38278723373E+02 -0.63747180555E+02 -0.44535217089E+03  0.45151690977E+03  0.00000000000E+00 0. -1.
        -14    1    4    4    0    0 -0.26924955509E+02 -0.78913971897E+02 -0.91580965552E+03  0.91959757141E+03  0.00000000000E+00 0.  1.
<mgrwt>
<rscale>  2 0.23638986E+03</rscale>
<asrwt>0</asrwt>
<pdfrwt beam="1">  1       21 0.63607307E-02 0.24029361E+03</pdfrwt>
<pdfrwt beam="2">  1       21 0.30735731E+00 0.24029361E+03</pdfrwt>
<totfact> 0.52520550E+03</totfact>
</mgrwt>
</event>
<event>
12    1  0.1029207E-001  0.2172055E+03  0.7546771E-02  0.1136408E+00
         21   -1    0    0  501  502  0.00000000000E+00  0.00000000000E+00  0.53782852090E+03  0.53782852090E+03  0.00000000000E+00 0.  1.
         21   -1    0    0  502  503 -0.00000000000E+00 -0.00000000000E+00 -0.11207024638E+03  0.11207024638E+03  0.00000000000E+00 0.  1.
         -6    2    1    2    0  503  0.96041580566E+02 -0.84976385225E+02  0.57800958758E+02  0.22261571338E+03  0.17254516442E+03 0.  0.
        -24    2    3    3    0    0  0.50103242850E+02 -0.10593997275E+03  0.83948010397E+02  0.16555818817E+03  0.81416413884E+02 0.  0.
          6    2    1    2  501    0 -0.96041580566E+02  0.84976385225E+02  0.36795731576E+03  0.42728305390E+03  0.17530901484E+03 0.  0.
         24    2    5    5    0    0 -0.13161503699E+03  0.74105815674E+02  0.22094590467E+03  0.27556593201E+03  0.65614786566E+02 0.  0.
          5    1    5    5  501    0  0.35573456420E+02  0.10870569550E+02  0.14701141109E+03  0.15171712189E+03  0.47000000000E+01 0. -1.
        -11    1    6    6    0    0 -0.72541427316E+02  0.17951069470E+02  0.14968158666E+03  0.16729936329E+03  0.00000000000E+00 0.  1.
         12    1    6    6    0    0 -0.59073609671E+02  0.56154746205E+02  0.71264318009E+02  0.10826656872E+03  0.00000000000E+00 0. -1.
         -5    1    3    3    0  503  0.45938337716E+02  0.20963587521E+02 -0.26147051639E+02  0.57057525211E+02  0.47000000000E+01 0.  1.
         11    1    4    4    0    0  0.48058867435E+02 -0.70945075159E+02  0.95820781715E+02  0.12854758122E+03  0.00000000000E+00 0. -1.
        -12    1    4    4    0    0  0.20443754155E+01 -0.34994897586E+02 -0.11872771318E+02  0.37010606948E+02  0.00000000000E+00 0.  1.
<mgrwt>
<rscale>  2 0.21664720E+03</rscale>
<asrwt>0</asrwt>
<pdfrwt beam="1">  1       21 0.82742848E-01 0.21720548E+03</pdfrwt>
<pdfrwt beam="2">  1       21 0.17241577E-01 0.21720548E+03</pdfrwt>
<totfact> 0.38238550E+04</totfact>
</mgrwt>
</event>
<event>
12    1  0.1029207E-001  0.2512105E+03  0.7546771E-02  0.1113729E+00
         21   -1    0    0  503  502  0.00000000000E+00  0.00000000000E+00  0.26145246330E+03  0.26145246330E+03  0.00000000000E+00 0.  1.
         21   -1    0    0  501  503 -0.00000000000E+00 -0.00000000000E+00 -0.23455815768E+03  0.23455815768E+03  0.00000000000E+00 0.  1.
          6    2    1    2  501    0 -0.12925099494E+03 -0.11276471013E+03  0.21879380863E+02  0.24475007010E+03  0.17321140252E+03 0.  0.
         24    2    3    3    0    0 -0.20998587695E+02 -0.75115412703E+02 -0.32733124813E+02  0.11770413727E+03  0.81850721199E+02 0.  0.
         -6    2    1    2    0  502  0.12925099494E+03  0.11276471013E+03  0.50149247488E+01  0.25126055088E+03  0.18353477986E+03 0.  0.
        -24    2    5    5    0    0  0.25276730375E+02  0.37087918299E+01 -0.42041035757E+02  0.93335902945E+02  0.79318811486E+02 0.  0.
          5    1    3    3  501    0 -0.10825240724E+03 -0.37649297429E+02  0.54612505676E+02  0.12704593282E+03  0.47000000000E+01 0. -1.
        -11    1    4    4    0    0 -0.26039201296E+02 -0.32259427550E+02 -0.55215784695E+02  0.69047038673E+02  0.00000000000E+00 0.  1.
         12    1    4    4    0    0  0.50406136019E+01 -0.42855985154E+02  0.22482659882E+02  0.48657098602E+02  0.00000000000E+00 0. -1.
         -5    1    5    5    0  502  0.10397426456E+03  0.10905591830E+03  0.47055960506E+02  0.15792464794E+03  0.47000000000E+01 0.  1.
         11    1    6    6    0    0 -0.44094085680E+01  0.37457101074E+02 -0.13331913805E+02  0.40002715289E+02  0.00000000000E+00 0. -1.
        -12    1    6    6    0    0  0.29686138943E+02 -0.33748309244E+02 -0.28709121953E+02  0.53333187655E+02  0.00000000000E+00 0.  1.
<mgrwt>
<rscale>  2 0.24932939E+03</rscale>
<asrwt>0</asrwt>
<pdfrwt beam="1">  1       21 0.40223456E-01 0.25121050E+03</pdfrwt>
<pdfrwt beam="2">  1       21 0.36085870E-01 0.25121050E+03</pdfrwt>
<totfact> 0.42937753E+04</totfact>
</mgrwt>
</event>
<event>
12    1  0.1029207E-001  0.1776280E+03  0.7546771E-02  0.1170323E+00
         21   -1    0    0  503  502  0.00000000000E+00  0.00000000000E+00  0.31414058953E+03  0.31414058953E+03  0.00000000000E+00 0.  1.
         21   -1    0    0  501  503 -0.00000000000E+00 -0.00000000000E+00 -0.10010265959E+03  0.10010265959E+03  0.00000000000E+00 0.  1.
          6    2    1    2  501    0 -0.21902449980E+02  0.33950156768E+02  0.99718375160E+02  0.20370435478E+03  0.17297219242E+03 0.  0.
         24    2    3    3    0    0 -0.35098312459E+02  0.31547971965E+02  0.13672236455E+03  0.16406489831E+03  0.77441073176E+02 0.  0.
         -6    2    1    2    0  502  0.21902449980E+02 -0.33950156768E+02  0.11431955478E+03  0.21053889434E+03  0.17212011784E+03 0.  0.
        -24    2    5    5    0    0  0.48124390910E+02 -0.42612369332E+02  0.13837895194E+03  0.17361236317E+03  0.82829628058E+02 0.  0.
          5    1    3    3  501    0  0.13195862479E+02  0.24021848038E+01 -0.37003989393E+02  0.39639456472E+02  0.47000000000E+01 0. -1.
        -13    1    4    4    0    0 -0.37940511880E+02 -0.96524391816E+01  0.29067276696E+02  0.48760215324E+02  0.00000000000E+00 0.  1.
         14    1    4    4    0    0  0.28421994212E+01  0.41200411146E+02  0.10765508786E+03  0.11530468298E+03  0.00000000000E+00 0. -1.
         -5    1    5    5    0  502 -0.26221940930E+02  0.86622125640E+01 -0.24059397163E+02  0.36926531173E+02  0.47000000000E+01 0.  1.
         11    1    6    6    0    0 -0.15661967902E+01 -0.51784227529E+02  0.88881842779E+02  0.10287876928E+03  0.00000000000E+00 0. -1.
        -12    1    6    6    0    0  0.49690587701E+02  0.91718581968E+01  0.49497109164E+02  0.70733593888E+02  0.00000000000E+00 0.  1.
<mgrwt>
<rscale>  2 0.17742024E+03</rscale>
<asrwt>0</asrwt>
<pdfrwt beam="1">  1       21 0.48329321E-01 0.17762801E+03</pdfrwt>
<pdfrwt beam="2">  1       21 0.15400409E-01 0.17762801E+03</pdfrwt>
<totfact> 0.15364718E+05</totfact>
</mgrwt>
</event>
<event>
12    1  0.1029207E-001  0.2455691E+03  0.7546771E-02  0.1116220E+00
         21   -1    0    0  501  502  0.00000000000E+00  0.00000000000E+00  0.10753143284E+04  0.10753143284E+04  0.00000000000E+00 0. -1.
         21   -1    0    0  502  503 -0.00000000000E+00 -0.00000000000E+00 -0.21225802677E+03  0.21225802677E+03  0.00000000000E+00 0.  1.
         -6    2    1    2    0  503 -0.14482538045E+03 -0.98659626863E+02 -0.12078734327E+03  0.27366726575E+03  0.17203510471E+03 0.  0.
        -24    2    3    3    0    0 -0.52887605180E+02 -0.40503455249E+00 -0.58587971214E+01  0.96644159487E+02  0.80675307403E+02 0.  0.
          6    2    1    2  501    0  0.14482538045E+03  0.98659626863E+02  0.98384364491E+03  0.10139050894E+04  0.17130995286E+03 0.  0.
         24    2    5    5    0    0  0.75373983713E+02  0.10713404374E+03  0.83914468253E+03  0.85310959210E+03  0.80456430158E+02 0.  0.
          5    1    5    5  501    0  0.69451396738E+02 -0.84744168799E+01  0.14469896237E+03  0.16079549733E+03  0.47000000000E+01 0. -1.
        -13    1    6    6    0    0  0.26942289015E+02  0.48366143681E+02  0.15220179543E+03  0.16195850495E+03  0.00000000000E+00 0.  1.
         14    1    6    6    0    0  0.48431694698E+02  0.58767900062E+02  0.68694288710E+03  0.69115108715E+03  0.00000000000E+00 0. -1.
         -5    1    3    3    0  503 -0.91937775271E+02 -0.98254592310E+02 -0.11492854614E+03  0.17702310626E+03  0.47000000000E+01 0.  1.
         13    1    4    4    0    0  0.68835234900E+01  0.21205977564E+02  0.18103020399E+02  0.28719257087E+02  0.00000000000E+00 0. -1.
        -14    1    4    4    0    0 -0.59771128670E+02 -0.21611012117E+02 -0.23961817520E+02  0.67924902400E+02  0.00000000000E+00 0.  1.
<mgrwt>
<rscale>  2 0.24544215E+03</rscale>
<asrwt>0</asrwt>
<pdfrwt beam="1">  1       21 0.16543297E+00 0.24556911E+03</pdfrwt>
<pdfrwt beam="2">  1       21 0.32655082E-01 0.24556911E+03</pdfrwt>
<totfact> 0.19800271E+03</totfact>
</mgrwt>
</event>
<event>
12    1  0.1029207E-001  0.1888006E+03  0.7546771E-02  0.1159957E+00
         21   -1    0    0  503  502  0.00000000000E+00  0.00000000000E+00  0.89202942795E+02  0.89202942795E+02  0.00000000000E+00 0. -1.
         21   -1    0    0  501  503 -0.00000000000E+00 -0.00000000000E+00 -0.40007770630E+03  0.40007770630E+03  0.00000000000E+00 0. -1.
          6    2    1    2  501    0 -0.70152766302E+02 -0.50636317974E+01 -0.18141888984E+03  0.26183674125E+03  0.17521020087E+03 0.  0.
         24    2    3    3    0    0 -0.23434346310E+02 -0.68137442361E+02 -0.11593683637E+03  0.15950929785E+03  0.82522641955E+02 0.  0.
         -6    2    1    2    0  502  0.70152766302E+02  0.50636317974E+01 -0.12945587366E+03  0.22744390784E+03  0.17327682188E+03 0.  0.
        -24    2    5    5    0    0  0.11010944025E+03 -0.53253794132E+01 -0.12488807352E+03  0.18564172913E+03  0.81935170653E+02 0.  0.
          5    1    3    3  501    0 -0.46718419991E+02  0.63073810564E+02 -0.65482053474E+02  0.10232744340E+03  0.47000000000E+01 0. -1.
        -13    1    4    4    0    0  0.14549449615E+02 -0.96059996126E+01  0.64826516227E+01  0.18600711941E+02  0.00000000000E+00 0.  1.
         14    1    4    4    0    0 -0.37983795925E+02 -0.58531442749E+02 -0.12241948799E+03  0.14090858591E+03  0.00000000000E+00 0. -1.
         -5    1    5    5    0  502 -0.39956673945E+02  0.10389011211E+02 -0.45678001405E+01  0.41802178709E+02  0.47000000000E+01 0.  1.
         13    1    6    6    0    0  0.22635508865E+02 -0.35992816134E+02 -0.24795098291E+02  0.49220381694E+02  0.00000000000E+00 0. -1.
        -14    1    6    6    0    0  0.87473931383E+02  0.30667436721E+02 -0.10009297523E+03  0.13642134744E+03  0.00000000000E+00 0.  1.
<mgrwt>
<rscale>  2 0.18835079E+03</rscale>
<asrwt>0</asrwt>
<pdfrwt beam="1">  1       21 0.13723529E-01 0.18880060E+03</pdfrwt>
<pdfrwt beam="2">  1       21 0.61550417E-01 0.18880060E+03</pdfrwt>
<totfact> 0.11323049E+05</totfact>
</mgrwt>
</event>
<event>
12    1  0.1029207E-001  0.2043338E+03  0.7546771E-02  0.1148359E+00
         21   -1    0    0  503  502  0.00000000000E+00  0.00000000000E+00  0.39576737871E+03  0.39576737871E+03  0.00000000000E+00 0.  1.
         21   -1    0    0  501  503 -0.00000000000E+00 -0.00000000000E+00 -0.11641445275E+03  0.11641445275E+03  0.00000000000E+00 0.  1.
          6    2    1    2  501    0 -0.11193640145E+02  0.87755747506E+02  0.47082409315E+02  0.20968795374E+03  0.18418989081E+03 0.  0.
         24    2    3    3    0    0 -0.36442167179E+02  0.84449715159E+02  0.95293269457E+02  0.15496323352E+03  0.80455022220E+02 0.  0.
         -6    2    1    2    0  502  0.11193640145E+02 -0.87755747506E+02  0.23227051665E+03  0.30249387772E+03  0.17241399119E+03 0.  0.
        -24    2    5    5    0    0  0.36168962090E+02 -0.21510688547E+02  0.20916643238E+03  0.22787442146E+03  0.80032818157E+02 0.  0.
          5    1    3    3  501    0  0.25248527035E+02  0.33060323466E+01 -0.48210860142E+02  0.54724720218E+02  0.47000000000E+01 0. -1.
        -13    1    4    4    0    0 -0.54955911162E+01  0.87272635721E+02  0.52222062165E+02  0.10185213912E+03  0.00000000000E+00 0.  1.
         14    1    4    4    0    0 -0.30946576063E+02 -0.28229205616E+01  0.43071207292E+02  0.53111094397E+02  0.00000000000E+00 0. -1.
         -5    1    5    5    0  502 -0.24975321945E+02 -0.66245058958E+02  0.23104084264E+02  0.74619456259E+02  0.47000000000E+01 0.  1.
         11    1    6    6    0    0 -0.20876577092E+02 -0.23030400578E+01  0.18694857986E+02  0.28118200150E+02  0.00000000000E+00 0. -1.
        -12    1    6    6    0    0  0.57045539182E+02 -0.19207648490E+02  0.19047157440E+03  0.19975622131E+03  0.00000000000E+00 0.  1.
<mgrwt>
<rscale>  2 0.20164414E+03</rscale>
<asrwt>0</asrwt>
<pdfrwt beam="1">  1       21 0.60887289E-01 0.20433376E+03</pdfrwt>
<pdfrwt beam="2">  1       21 0.17909916E-01 0.20433376E+03</pdfrwt>
<totfact> 0.70773774E+04</totfact>
</mgrwt>
</event>
<event>
12    1  0.1029207E-001  0.2043042E+03  0.7546771E-02  0.1146496E+00
         21   -1    0    0  503  502  0.00000000000E+00  0.00000000000E+00  0.24081017243E+03  0.24081017243E+03  0.00000000000E+00 0. -1.
         21   -1    0    0  501  503 -0.00000000000E+00 -0.00000000000E+00 -0.32311132253E+03  0.32311132253E+03  0.00000000000E+00 0.  1.
          6    2    1    2  501    0  0.26965378181E+02  0.10518713660E+03 -0.23392302177E+03  0.30950178042E+03  0.17111372429E+03 0.  0.
         24    2    3    3    0    0  0.81143603182E+02  0.90787997111E+02 -0.17778368506E+03  0.23002643576E+03  0.80488370080E+02 0.  0.
         -6    2    1    2    0  502 -0.26965378181E+02 -0.10518713660E+03  0.15162187167E+03  0.25441971455E+03  0.17305702487E+03 0.  0.
        -24    2    5    5    0    0 -0.77316879143E+02 -0.69983597245E+02  0.13754141976E+03  0.19121439865E+03  0.82278189194E+02 0.  0.
          5    1    3    3  501    0 -0.54178225001E+02  0.14399139489E+02 -0.56139336702E+02  0.79475344652E+02  0.47000000000E+01 0. -1.
        -11    1    4    4    0    0  0.28241301438E+02 -0.18619048572E+01 -0.78394410853E+01  0.29368258940E+02  0.00000000000E+00 0.  1.
         12    1    4    4    0    0  0.52902301744E+02  0.92649901968E+02 -0.16994424398E+03  0.20065817682E+03  0.00000000000E+00 0. -1.
         -5    1    5    5    0  502  0.50351500962E+02 -0.35203539355E+02  0.14080451902E+02  0.63205315900E+02  0.47000000000E+01 0.  1.
         11    1    6    6    0    0 -0.74111541726E+02 -0.85613332313E+02  0.10260393065E+03  0.15280618401E+03  0.00000000000E+00 0. -1.
        -12    1    6    6    0    0 -0.32053374172E+01  0.15629735068E+02  0.34937489120E+02  0.38408214645E+02  0.00000000000E+00 0.  1.
<mgrwt>
<rscale>  2 0.20389207E+03</rscale>
<asrwt>0</asrwt>
<pdfrwt beam="1">  1       21 0.37047719E-01 0.20430418E+03</pdfrwt>
<pdfrwt beam="2">  1       21 0.49709434E-01 0.20430418E+03</pdfrwt>
<totfact> 0.26924755E+04</totfact>
</mgrwt>
</event>
<event>
12    1  0.1029207E-001  0.1906231E+03  0.7546771E-02  0.1158198E+00
         21   -1    0    0  501  502  0.00000000000E+00  0.00000000000E+00  0.70825259648E+03  0.70825259648E+03  0.00000000000E+00 0. -1.
         21   -1    0    0  502  503 -0.00000000000E+00 -0.00000000000E+00 -0.88448770456E+02  0.88448770456E+02  0.00000000000E+00 0. -1.
         -6    2    1    2    0  503 -0.63047557261E+02  0.48687331277E+02  0.51149769597E+02  0.19736628505E+03  0.17318112149E+03 0.  0.
        -24    2    3    3    0    0 -0.99667726121E+02  0.48610130115E+02  0.72707021429E+02  0.15461294794E+03  0.79512592240E+02 0.  0.
          6    2    1    2  501    0  0.63047557261E+02 -0.48687331277E+02  0.56865405642E+03  0.59933508189E+03  0.17172551875E+03 0.  0.
         24    2    5    5    0    0 -0.22429047598E+02 -0.55483751123E+02  0.36508367928E+03  0.37839294070E+03  0.79458265030E+02 0.  0.
          5    1    5    5  501    0  0.85476604859E+02  0.67964198455E+01  0.20357037714E+03  0.22094214118E+03  0.47000000000E+01 0. -1.
        -11    1    6    6    0    0  0.93008292698E+01 -0.65530287596E+02  0.24467615741E+03  0.25347020736E+03  0.00000000000E+00 0.  1.
         12    1    6    6    0    0 -0.31729876868E+02  0.10046536473E+02  0.12040752187E+03  0.12492273334E+03  0.00000000000E+00 0. -1.
         -5    1    3    3    0  503  0.36620168861E+02  0.77201162670E-01 -0.21557251832E+02  0.42753337109E+02  0.47000000000E+01 0.  1.
         11    1    4    4    0    0 -0.40864334342E+01  0.29775647575E+02 -0.43948629420E+01  0.30374379779E+02  0.00000000000E+00 0. -1.
        -12    1    4    4    0    0 -0.95581292687E+02  0.18834482540E+02  0.77101884371E+02  0.12423856816E+03  0.00000000000E+00 0.  1.
<mgrwt>
<rscale>  2 0.19029184E+03</rscale>
<asrwt>0</asrwt>
<pdfrwt beam="1">  1       21 0.10896193E+00 0.19062306E+03</pdfrwt>
<pdfrwt beam="2">  1       21 0.13607504E-01 0.19062306E+03</pdfrwt>
<totfact> 0.31318354E+04</totfact>
</mgrwt>
</event>
<event>
12    1  0.1029207E-001  0.2351650E+03  0.7546771E-02  0.1123339E+00
         21   -1    0    0  503  502  0.00000000000E+00  0.00000000000E+00  0.36180518992E+03  0.36180518992E+03  0.00000000000E+00 0.  1.
         21   -1    0    0  501  503 -0.00000000000E+00 -0.00000000000E+00 -0.54645188024E+03  0.54645188024E+03  0.00000000000E+00 0. -1.
          6    2    1    2  501    0  0.69292469187E+00 -0.15875164283E+03 -0.47835298127E+03  0.53303296698E+03  0.17349353002E+03 0.  0.
         24    2    3    3    0    0  0.62927999913E+02 -0.66500214680E+02 -0.28925556455E+03  0.31357123092E+03  0.79220726565E+02 0.  0.
         -6    2    1    2    0  502 -0.69292469187E+00  0.15875164283E+03  0.29370629094E+03  0.37522410318E+03  0.17125179713E+03 0.  0.
        -24    2    5    5    0    0 -0.52269493169E+02  0.48337842700E+02  0.99692550720E+02  0.14606308758E+03  0.79543534815E+02 0.  0.
          5    1    3    3  501    0 -0.62235075221E+02 -0.92251428152E+02 -0.18909741672E+03  0.21946173606E+03  0.47000000000E+01 0. -1.
        -13    1    4    4    0    0 -0.11325297791E+02 -0.36458020901E+02 -0.64287074435E+02  0.74768158982E+02  0.00000000000E+00 0.  1.
         14    1    4    4    0    0  0.74253297704E+02 -0.30042193779E+02 -0.22496849011E+03  0.23880307194E+03  0.00000000000E+00 0. -1.
         -5    1    5    5    0  502  0.51576568477E+02  0.11041380013E+03  0.19401374022E+03  0.22916101560E+03  0.47000000000E+01 0.  1.
         13    1    6    6    0    0 -0.49225950435E+01 -0.22846863964E+01 -0.12815717535E+02  0.13917411750E+02  0.00000000000E+00 0. -1.
        -14    1    6    6    0    0 -0.47346898125E+02  0.50622529097E+02  0.11250826825E+03  0.13214567583E+03  0.00000000000E+00 0.  1.
<mgrwt>
<rscale>  2 0.23475166E+03</rscale>
<asrwt>0</asrwt>
<pdfrwt beam="1">  1       21 0.55662337E-01 0.23516498E+03</pdfrwt>
<pdfrwt beam="2">  1       21 0.84069520E-01 0.23516498E+03</pdfrwt>
<totfact> 0.36166119E+03</totfact>
</mgrwt>
</event>
<event>
12    1  0.1029207E-001  0.3037499E+03  0.7546771E-02  0.1083388E+00
         21   -1    0    0  501  502  0.00000000000E+00  0.00000000000E+00  0.10031088760E+04  0.10031088760E+04  0.00000000000E+00 0.  1.
         21   -1    0    0  502  503 -0.00000000000E+00 -0.00000000000E+00 -0.11448095690E+03  0.11448095690E+03  0.00000000000E+00 0. -1.
         -6    2    1    2    0  503 -0.23819609896E+03  0.74829075750E+02  0.19644354396E+03  0.36169087421E+03  0.17289722492E+03 0.  0.
        -24    2    3    3    0    0 -0.18072293918E+03 -0.10790378878E+02  0.10788598151E+03  0.22568209886E+03  0.80720578016E+02 0.  0.
          6    2    1    2  501    0  0.23819609896E+03 -0.74829075750E+02  0.69218437514E+03  0.75589895869E+03  0.17299495491E+03 0.  0.
         24    2    5    5    0    0  0.17954680852E+03  0.67519784068E+00  0.35793811067E+03  0.40821621550E+03  0.79267112895E+02 0.  0.
          5    1    5    5  501    0  0.58649290437E+02 -0.75504273591E+02  0.33424626446E+03  0.34768274318E+03  0.47000000000E+01 0. -1.
        -11    1    6    6    0    0  0.40126093522E+02  0.31462495514E+02  0.67645282571E+02  0.84710543968E+02  0.00000000000E+00 0.  1.
         12    1    6    6    0    0  0.13942071500E+03 -0.30787297673E+02  0.29029282810E+03  0.32350567154E+03  0.00000000000E+00 0. -1.
         -5    1    3    3    0  503 -0.57473159775E+02  0.85619454628E+02  0.88557562445E+02  0.13600877535E+03  0.47000000000E+01 0.  1.
         11    1    4    4    0    0 -0.11341201099E+03  0.10153503587E+02  0.24464354691E+02  0.11646408254E+03  0.00000000000E+00 0. -1.
        -12    1    4    4    0    0 -0.67310928197E+02 -0.20943882466E+02  0.83421626822E+02  0.10921801632E+03  0.00000000000E+00 0.  1.
<mgrwt>
<rscale>  2 0.30373603E+03</rscale>
<asrwt>0</asrwt>
<pdfrwt beam="1">  1       21 0.15432444E+00 0.30374994E+03</pdfrwt>
<pdfrwt beam="2">  1       21 0.17612456E-01 0.30374994E+03</pdfrwt>
<totfact> 0.75446818E+03</totfact>
</mgrwt>
</event>
<event>
12    1  0.1029207E-001  0.4095201E+03  0.7546771E-02  0.1040587E+00
         21   -1    0    0  501  502  0.00000000000E+00  0.00000000000E+00  0.37767020698E+03  0.37767020698E+03  0.00000000000E+00 0. -1.
         21   -1    0    0  502  503 -0.00000000000E+00 -0.00000000000E+00 -0.45317897637E+03  0.45317897637E+03  0.00000000000E+00 0. -1.
         -6    2    1    2    0  503 -0.71353469696E+02 -0.36254333782E+03 -0.98975758668E+02  0.42131099251E+03  0.17657225765E+03 0.  0.
        -24    2    3    3    0    0 -0.64023161265E+02 -0.11718766819E+03 -0.76699843686E+02  0.17479234326E+03  0.82689675817E+02 0.  0.
          6    2    1    2  501    0  0.71353469696E+02  0.36254333782E+03  0.23466989281E+02  0.40953819085E+03  0.17504810979E+03 0.  0.
         24    2    5    5    0    0  0.35716388904E+02  0.36082048771E+03  0.22098462965E+02  0.37352524034E+03  0.86980907775E+02 0.  0.
          5    1    5    5  501    0  0.35637080792E+02  0.17228501081E+01  0.13685263155E+01  0.36012950506E+02  0.47000000000E+01 0. -1.
        -11    1    6    6    0    0  0.33958760372E+02  0.62009317620E+02 -0.15424904816E+02  0.72362148713E+02  0.00000000000E+00 0.  1.
         12    1    6    6    0    0  0.17576285317E+01  0.29881117009E+03  0.37523367781E+02  0.30116309163E+03  0.00000000000E+00 0. -1.
         -5    1    3    3    0  503 -0.73303084305E+01 -0.24535566963E+03 -0.22275914982E+02  0.24651864925E+03  0.47000000000E+01 0.  1.
         13    1    4    4    0    0 -0.33280079638E+02 -0.96770264645E+02 -0.15747052122E+02  0.10353751721E+03  0.00000000000E+00 0. -1.
        -14    1    4    4    0    0 -0.30743081628E+02 -0.20417403545E+02 -0.60952791564E+02  0.71254826047E+02  0.00000000000E+00 0.  1.
<mgrwt>
<rscale>  2 0.40935634E+03</rscale>
<asrwt>0</asrwt>
<pdfrwt beam="1">  1       21 0.58103109E-01 0.40952015E+03</pdfrwt>
<pdfrwt beam="2">  1       21 0.69719842E-01 0.40952015E+03</pdfrwt>
<totfact> 0.46225740E+03</totfact>
</mgrwt>
</event>
<event>
12    1  0.1029207E-001  0.2387434E+03  0.7546771E-02  0.1121237E+00
         21   -1    0    0  503  502  0.00000000000E+00  0.00000000000E+00  0.89091332528E+03  0.89091332528E+03  0.00000000000E+00 0. -1.
         21   -1    0    0  501  503 -0.00000000000E+00 -0.00000000000E+00 -0.63246857577E+02  0.63246857577E+02  0.00000000000E+00 0. -1.
          6    2    1    2  501    0  0.16473481178E+03  0.14374732551E+02  0.38854459851E+03  0.45603213692E+03  0.17220398871E+03 0.  0.
         24    2    3    3    0    0  0.16695364633E+03 -0.18376679909E+02  0.23107460057E+03  0.29510833975E+03  0.74042141892E+02 0.  0.
         -6    2    1    2    0  502 -0.16473481178E+03 -0.14374732551E+02  0.43912186920E+03  0.49812804594E+03  0.16721047513E+03 0.  0.
        -24    2    5    5    0    0 -0.64212389159E+02  0.52255456314E+02  0.22997082724E+03  0.25665219234E+03  0.78293695896E+02 0.  0.
          5    1    3    3  501    0 -0.22188345509E+01  0.32751412460E+02  0.15746999794E+03  0.16092379717E+03  0.47000000000E+01 0. -1.
        -13    1    4    4    0    0  0.30710369953E+02 -0.32113126753E+02  0.77636986848E+02  0.89453236159E+02  0.00000000000E+00 0.  1.
         14    1    4    4    0    0  0.13624327637E+03  0.13736446843E+02  0.15343761372E+03  0.20565510359E+03  0.00000000000E+00 0. -1.
         -5    1    5    5    0  502 -0.10052242262E+03 -0.66630188865E+02  0.20915104196E+03  0.24147585360E+03  0.47000000000E+01 0.  1.
         11    1    6    6    0    0 -0.33166072041E+02  0.42611004913E+01  0.19831019909E+02  0.38876916836E+02  0.00000000000E+00 0. -1.
        -12    1    6    6    0    0 -0.31046317118E+02  0.47994355822E+02  0.21013980733E+03  0.21777527550E+03  0.00000000000E+00 0.  1.
<mgrwt>
<rscale>  2 0.23784423E+03</rscale>
<asrwt>0</asrwt>
<pdfrwt beam="1">  1       21 0.13706358E+00 0.23874339E+03</pdfrwt>
<pdfrwt beam="2">  1       21 0.97302864E-02 0.23874339E+03</pdfrwt>
<totfact> 0.31357292E+04</totfact>
</mgrwt>
</event>
<event>
12    1  0.1029207E-001  0.2271053E+03  0.7546771E-02  0.1129368E+00
         21   -1    0    0  501  502  0.00000000000E+00  0.00000000000E+00  0.11127837535E+03  0.11127837535E+03  0.00000000000E+00 0. -1.
         21   -1    0    0  502  503 -0.00000000000E+00 -0.00000000000E+00 -0.58594988978E+03  0.58594988978E+03  0.00000000000E+00 0. -1.
         -6    2    1    2    0  503 -0.89794360959E+02  0.10930525758E+03 -0.40003787523E+03  0.45817387653E+03  0.17286507144E+03 0.  0.
        -24    2    3    3    0    0 -0.66343110001E+02  0.71475518624E+02 -0.11740609656E+03  0.17202031176E+03  0.79351358773E+02 0.  0.
          6    2    1    2  501    0  0.89794360959E+02 -0.10930525758E+03 -0.74633639192E+02  0.23905438859E+03  0.17766866356E+03 0.  0.
         24    2    5    5    0    0  0.93548506752E+02 -0.23012802633E+02 -0.88361908400E+02  0.15146993354E+03  0.76514062181E+02 0.  0.
          5    1    5    5  501    0 -0.37541457933E+01 -0.86292454942E+02  0.13728269207E+02  0.87584455048E+02  0.47000000000E+01 0. -1.
        -11    1    6    6    0    0  0.79301926292E+02 -0.44499749199E+02 -0.86689666520E+02  0.12563487364E+03  0.00000000000E+00 0.  1.
         12    1    6    6    0    0  0.14246580460E+02  0.21486946566E+02 -0.16722418795E+01  0.25835059908E+02  0.00000000000E+00 0. -1.
         -5    1    3    3    0  503 -0.23451250958E+02  0.37829738951E+02 -0.28263177867E+03  0.28615356478E+03  0.47000000000E+01 0.  1.
         11    1    4    4    0    0 -0.14021177915E+02  0.57383429978E+02 -0.98071242795E+02  0.11448764182E+03  0.00000000000E+00 0. -1.
        -12    1    4    4    0    0 -0.52321932086E+02  0.14092088647E+02 -0.19334853768E+02  0.57532669935E+02  0.00000000000E+00 0.  1.
<mgrwt>
<rscale>  2 0.22616501E+03</rscale>
<asrwt>0</asrwt>
<pdfrwt beam="1">  1       21 0.17119750E-01 0.22710531E+03</pdfrwt>
<pdfrwt beam="2">  1       21 0.90146136E-01 0.22710531E+03</pdfrwt>
<totfact> 0.31643966E+04</totfact>
</mgrwt>
</event>
<event>
12    1  0.1029207E-001  0.2018718E+03  0.7546771E-02  0.1148619E+00
         21   -1    0    0  503  502  0.00000000000E+00  0.00000000000E+00  0.56604648082E+03  0.56604648082E+03  0.00000000000E+00 0.  1.
         21   -1    0    0  501  503 -0.00000000000E+00 -0.00000000000E+00 -0.20781098715E+03  0.20781098715E+03  0.00000000000E+00 0. -1.
          6    2    1    2  501    0  0.89236624888E+02  0.53433540479E+02 -0.13423534503E+03  0.24242806697E+03  0.17301422291E+03 0.  0.
         24    2    3    3    0    0 -0.51091005379E+01  0.74356457818E+02 -0.71061296518E+02  0.12687749457E+03  0.74116159086E+02 0.  0.
         -6    2    1    2    0  502 -0.89236624888E+02 -0.53433540479E+02  0.49247083870E+03  0.53142940100E+03  0.17050326334E+03 0.  0.
        -24    2    5    5    0    0 -0.32099295926E+01 -0.51985980988E+01  0.12041712646E+03  0.14649660588E+03  0.83208425767E+02 0.  0.
          5    1    3    3  501    0  0.94345725426E+02 -0.20922917338E+02 -0.63174048514E+02  0.11555057240E+03  0.47000000000E+01 0. -1.
        -13    1    4    4    0    0 -0.24799587862E+02  0.23758513128E+02 -0.63320061559E+02  0.72034135658E+02  0.00000000000E+00 0.  1.
         14    1    4    4    0    0  0.19690487324E+02  0.50597944690E+02 -0.77412349597E+01  0.54843358911E+02  0.00000000000E+00 0. -1.
         -5    1    5    5    0  502 -0.86026695295E+02 -0.48234942381E+02  0.37205371224E+03  0.38493279513E+03  0.47000000000E+01 0.  1.
         13    1    6    6    0    0 -0.27281506712E+02 -0.11766741940E+02  0.11770636389E+03  0.12139820808E+03  0.00000000000E+00 0. -1.
        -14    1    6    6    0    0  0.24071577119E+02  0.65681438412E+01  0.27107625735E+01  0.25098397803E+02  0.00000000000E+00 0.  1.
<mgrwt>
<rscale>  2 0.20133273E+03</rscale>
<asrwt>0</asrwt>
<pdfrwt beam="1">  1       21 0.87084073E-01 0.20187184E+03</pdfrwt>
<pdfrwt beam="2">  1       21 0.31970921E-01 0.20187184E+03</pdfrwt>
<totfact> 0.10597514E+04</totfact>
</mgrwt>
</event>
<event>
12    1  0.1029207E-001  0.1757828E+03  0.7546771E-02  0.1172506E+00
         21   -1    0    0  501  502  0.00000000000E+00  0.00000000000E+00  0.71457585046E+03  0.71457585046E+03  0.00000000000E+00 0.  1.
         21   -1    0    0  502  503 -0.00000000000E+00 -0.00000000000E+00 -0.83681186005E+02  0.83681186005E+02  0.00000000000E+00 0.  1.
         -6    2    1    2    0  503 -0.56101622246E+01 -0.26689867935E+02  0.37151479048E+02  0.17966591900E+03  0.17365421701E+03 0.  0.
        -24    2    3    3    0    0 -0.18100777003E+02  0.97554717889E+01 -0.45394220733E+02  0.88451003570E+02  0.73076243737E+02 0.  0.
          6    2    1    2  501    0  0.56101622246E+01  0.26689867935E+02  0.59374318540E+03  0.61859111746E+03  0.17140646842E+03 0.  0.
         24    2    5    5    0    0  0.11856256927E+01 -0.30571771829E+02  0.50749570434E+03  0.51486460252E+03  0.81225796775E+02 0.  0.
          5    1    5    5  501    0  0.44245365319E+01  0.57261639764E+02  0.86247481064E+02  0.10372651494E+03  0.47000000000E+01 0. -1.
        -11    1    6    6    0    0 -0.33100653012E+02  0.51074054644E+00  0.32142397092E+03  0.32312425345E+03  0.00000000000E+00 0.  1.
         12    1    6    6    0    0  0.34286278704E+02 -0.31082512375E+02  0.18607173343E+03  0.19174034907E+03  0.00000000000E+00 0. -1.
         -5    1    3    3    0  503  0.12490614778E+02 -0.36445339724E+02  0.82545699781E+02  0.91214915433E+02  0.47000000000E+01 0.  1.
         13    1    4    4    0    0 -0.36726953181E+02  0.12532734386E+02  0.53582842053E+00  0.38810122819E+02  0.00000000000E+00 0. -1.
        -14    1    4    4    0    0  0.18626176178E+02 -0.27772625966E+01 -0.45930049153E+02  0.49640880751E+02  0.00000000000E+00 0.  1.
<mgrwt>
<rscale>  2 0.17522516E+03</rscale>
<asrwt>0</asrwt>
<pdfrwt beam="1">  1       21 0.10993474E+00 0.17578285E+03</pdfrwt>
<pdfrwt beam="2">  1       21 0.12874029E-01 0.17578285E+03</pdfrwt>
<totfact> 0.34156379E+04</totfact>
</mgrwt>
</event>
<event>
12    1  0.1029207E-001  0.1828791E+03  0.7546771E-02  0.1165161E+00
         21   -1    0    0  503  502  0.00000000000E+00  0.00000000000E+00  0.22729934252E+03  0.22729934252E+03  0.00000000000E+00 0. -1.
         21   -1    0    0  501  503 -0.00000000000E+00 -0.00000000000E+00 -0.39121132216E+03  0.39121132216E+03  0.00000000000E+00 0. -1.
          6    2    1    2  501    0 -0.23558511516E+02 -0.53457488653E+02 -0.32638054910E+03  0.37388683856E+03  0.17278425467E+03 0.  0.
         24    2    3    3    0    0  0.28939915779E+02 -0.24535483296E+02 -0.77577004971E+02  0.11792226908E+03  0.80299197866E+02 0.  0.
         -6    2    1    2    0  502  0.23558511516E+02  0.53457488653E+02  0.16246856946E+03  0.24462382612E+03  0.17329764478E+03 0.  0.
        -24    2    5    5    0    0  0.38109188856E+02 -0.18861904575E+02  0.30780782888E+02  0.93608661385E+02  0.77505117068E+02 0.  0.
          5    1    3    3  501    0 -0.52498427295E+02 -0.28922005358E+02 -0.24880354413E+03  0.25596456949E+03  0.47000000000E+01 0. -1.
        -11    1    4    4    0    0  0.12674302941E+01  0.26857763475E+02 -0.41029184440E+02  0.49054457639E+02  0.00000000000E+00 0.  1.
         12    1    4    4    0    0  0.27672485485E+02 -0.51393246771E+02 -0.36547820532E+02  0.68867811437E+02  0.00000000000E+00 0. -1.
         -5    1    5    5    0  502 -0.14550677340E+02  0.72319393228E+02  0.13168778657E+03  0.15101516473E+03  0.47000000000E+01 0.  1.
         13    1    6    6    0    0  0.32656370567E+02 -0.26289305182E+02  0.54153789767E+02  0.68485027938E+02  0.00000000000E+00 0. -1.
        -14    1    6    6    0    0  0.54528182888E+01  0.74274006070E+01 -0.23373006878E+02  0.25123633448E+02  0.00000000000E+00 0.  1.
<mgrwt>
<rscale>  2 0.18275741E+03</rscale>
<asrwt>0</asrwt>
<pdfrwt beam="1">  1       21 0.34969130E-01 0.18287914E+03</pdfrwt>
<pdfrwt beam="2">  1       21 0.60186357E-01 0.18287914E+03</pdfrwt>
<totfact> 0.20409063E+04</totfact>
</mgrwt>
</event>
<event>
12    1  0.1029207E-001  0.1798977E+03  0.7546771E-02  0.1168600E+00
         21   -1    0    0  501  502  0.00000000000E+00  0.00000000000E+00  0.78981904172E+02  0.78981904172E+02  0.00000000000E+00 0. -1.
         21   -1    0    0  502  503 -0.00000000000E+00 -0.00000000000E+00 -0.40699723268E+03  0.40699723268E+03  0.00000000000E+00 0. -1.
         -6    2    1    2    0  503 -0.12500515065E+02  0.39280939957E+02 -0.13945380811E+03  0.22536709626E+03  0.17217348332E+03 0.  0.
        -24    2    3    3    0    0  0.41040230256E+01  0.87510246203E+02 -0.67515825007E+02  0.13705548842E+03  0.80937840870E+02 0.  0.
          6    2    1    2  501    0  0.12500515065E+02 -0.39280939957E+02 -0.18856152039E+03  0.26061204059E+03  0.17511120354E+03 0.  0.
         24    2    5    5    0    0 -0.37524883529E+01  0.39886358982E+02 -0.56776447867E+02  0.10594783438E+03  0.79977345387E+02 0.  0.
          5    1    5    5  501    0  0.16253003418E+02 -0.79167298939E+02 -0.13178507253E+03  0.15466420621E+03  0.47000000000E+01 0. -1.
        -11    1    6    6    0    0 -0.17573452241E+02 -0.85519977127E+00  0.14429287560E+02  0.22754382651E+02  0.00000000000E+00 0.  1.
         12    1    6    6    0    0  0.13820963888E+02  0.40741558753E+02 -0.71205735427E+02  0.83193451726E+02  0.00000000000E+00 0. -1.
         -5    1    3    3    0  503 -0.16604538090E+02 -0.48229306246E+02 -0.71937983102E+02  0.88311607838E+02  0.47000000000E+01 0.  1.
         13    1    4    4    0    0 -0.27399579304E+02  0.12439173662E+02  0.17806041833E+01  0.30143664985E+02  0.00000000000E+00 0. -1.
        -14    1    4    4    0    0  0.31503602330E+02  0.75071072541E+02 -0.69296429190E+02  0.10691182344E+03  0.00000000000E+00 0.  1.
<mgrwt>
<rscale>  2 0.17917885E+03</rscale>
<asrwt>0</asrwt>
<pdfrwt beam="1">  1       21 0.12151062E-01 0.17989772E+03</pdfrwt>
<pdfrwt beam="2">  1       21 0.62614959E-01 0.17989772E+03</pdfrwt>
<totfact> 0.13622714E+05</totfact>
</mgrwt>
</event>
<event>
12    1  0.1029207E-001  0.2342421E+03  0.7546771E-02  0.1123824E+00
         21   -1    0    0  501  502  0.00000000000E+00  0.00000000000E+00  0.55671155672E+03  0.55671155672E+03  0.00000000000E+00 0. -1.
         21   -1    0    0  502  503 -0.00000000000E+00 -0.00000000000E+00 -0.24839528342E+03  0.24839528342E+03  0.00000000000E+00 0.  1.
         -6    2    1    2    0  503 -0.15601448377E+03  0.16230531927E+02 -0.15873291683E+03  0.28295850026E+03  0.17396960847E+03 0.  0.
        -24    2    3    3    0    0 -0.35626951471E+02  0.27775603254E+02 -0.12954075207E+03  0.15845661638E+03  0.79290157161E+02 0.  0.
          6    2    1    2  501    0  0.15601448377E+03 -0.16230531927E+02  0.46704919013E+03  0.52214833988E+03  0.17291614593E+03 0.  0.
         24    2    5    5    0    0  0.64262606953E+02 -0.56379507472E+02  0.15551947672E+03  0.19488208822E+03  0.80525704931E+02 0.  0.
          5    1    5    5  501    0  0.91751876822E+02  0.40148975545E+02  0.31152971341E+03  0.32726625166E+03  0.47000000000E+01 0. -1.
        -11    1    6    6    0    0  0.76893116799E+02 -0.32203806889E+02  0.84033963665E+02  0.11836952158E+03  0.00000000000E+00 0.  1.
         12    1    6    6    0    0 -0.12630509846E+02 -0.24175700583E+02  0.71485513051E+02  0.76512566639E+02  0.00000000000E+00 0. -1.
         -5    1    3    3    0  503 -0.12038753230E+03 -0.11545071327E+02 -0.29192164767E+02  0.12450188388E+03  0.47000000000E+01 0.  1.
         11    1    4    4    0    0 -0.12613404981E+02 -0.16566184697E+02 -0.96122401580E+02  0.98351677902E+02  0.00000000000E+00 0. -1.
        -12    1    4    4    0    0 -0.23013546490E+02  0.44341787950E+02 -0.33418350486E+02  0.60104938482E+02  0.00000000000E+00 0.  1.
<mgrwt>
<rscale>  2 0.23404655E+03</rscale>
<asrwt>0</asrwt>
<pdfrwt beam="1">  1       21 0.85647931E-01 0.23424213E+03</pdfrwt>
<pdfrwt beam="2">  1       21 0.38214659E-01 0.23424213E+03</pdfrwt>
<totfact> 0.75576815E+03</totfact>
</mgrwt>
</event>
<event>
12    1  0.1029207E-001  0.2533504E+03  0.7546771E-02  0.1111399E+00
         21   -1    0    0  501  502  0.00000000000E+00  0.00000000000E+00  0.14699109807E+03  0.14699109807E+03  0.00000000000E+00 0. -1.
         21   -1    0    0  502  503 -0.00000000000E+00 -0.00000000000E+00 -0.54641867049E+03  0.54641867049E+03  0.00000000000E+00 0. -1.
         -6    2    1    2    0  503 -0.18397781072E+03  0.51686579461E+01 -0.35621018398E+03  0.43639968486E+03  0.17229172907E+03 0.  0.
        -24    2    3    3    0    0 -0.19806113616E+03  0.30792142300E+02 -0.33921125691E+03  0.40225357926E+03  0.81038851978E+02 0.  0.
          6    2    1    2  501    0  0.18397781072E+03 -0.51686579461E+01 -0.43217388429E+02  0.25701008371E+03  0.17410310336E+03 0.  0.
         24    2    5    5    0    0  0.12295526855E+03  0.21652891581E+01  0.41094887673E+02  0.15256781576E+03  0.80408097043E+02 0.  0.
          5    1    5    5  501    0  0.61022542166E+02 -0.73339471041E+01 -0.84312276102E+02  0.10444226795E+03  0.47000000000E+01 0. -1.
        -13    1    6    6    0    0  0.19649857025E+02 -0.24989240681E+02  0.32414017482E+02  0.45400964310E+02  0.00000000000E+00 0.  1.
         14    1    6    6    0    0  0.10330541153E+03  0.27154529840E+02  0.86808701901E+01  0.10716685145E+03  0.00000000000E+00 0. -1.
         -5    1    3    3    0  503  0.14083325439E+02 -0.25623484354E+02 -0.16998927080E+02  0.34146105601E+02  0.47000000000E+01 0.  1.
         11    1    4    4    0    0 -0.11413494616E+03  0.34738588680E+01 -0.25873426651E+03  0.28281137583E+03  0.00000000000E+00 0. -1.
        -12    1    4    4    0    0 -0.83926189994E+02  0.27318283432E+02 -0.80476990391E+02  0.11944220343E+03  0.00000000000E+00 0.  1.
<mgrwt>
<rscale>  2 0.25303952E+03</rscale>
<asrwt>0</asrwt>
<pdfrwt beam="1">  1       21 0.22614015E-01 0.25335043E+03</pdfrwt>
<pdfrwt beam="2">  1       21 0.84064412E-01 0.25335043E+03</pdfrwt>
<totfact> 0.21793501E+04</totfact>
</mgrwt>
</event>
<event>
12    1  0.1029207E-001  0.1968543E+03  0.7546771E-02  0.1154700E+00
         21   -1    0    0  501  502  0.00000000000E+00  0.00000000000E+00  0.82324149444E+03  0.82324149444E+03  0.00000000000E+00 0.  1.
         21   -1    0    0  502  503 -0.00000000000E+00 -0.00000000000E+00 -0.14418503958E+03  0.14418503958E+03  0.00000000000E+00 0.  1.
         -6    2    1    2    0  503 -0.16470062250E+02 -0.32635632686E+02 -0.59515545543E+02  0.20565437279E+03  0.19343028050E+03 0.  0.
        -24    2    3    3    0    0 -0.77947744330E+02 -0.28838504588E+02  0.73275565429E+01  0.11463781456E+03  0.78616952683E+02 0.  0.
          6    2    1    2  501    0  0.16470062250E+02  0.32635632686E+02  0.73857200041E+03  0.76177216123E+03  0.18295321360E+03 0.  0.
         24    2    5    5    0    0 -0.28069737875E+02  0.67460451755E+02  0.30787744978E+03  0.32735709732E+03  0.83876828398E+02 0.  0.
          5    1    5    5  501    0  0.44539800125E+02 -0.34824819069E+02  0.43069455062E+03  0.43441506391E+03  0.47000000000E+01 0. -1.
        -11    1    6    6    0    0 -0.12927462021E+02  0.25542042559E+02  0.26140058725E+03  0.26296346177E+03  0.00000000000E+00 0.  1.
         12    1    6    6    0    0 -0.15142275854E+02  0.41918409196E+02  0.46476862534E+02  0.64393635544E+02  0.00000000000E+00 0. -1.
         -5    1    3    3    0  503  0.61477682080E+02 -0.37971280972E+01 -0.66843102086E+02  0.91016558231E+02  0.47000000000E+01 0.  1.
         13    1    4    4    0    0 -0.17743243668E+02 -0.29437764096E+02  0.34395429644E+02  0.48625612914E+02  0.00000000000E+00 0. -1.
        -14    1    4    4    0    0 -0.60204500662E+02  0.59925950771E+00 -0.27067873101E+02  0.66012201646E+02  0.00000000000E+00 0.  1.
<mgrwt>
<rscale>  2 0.19423118E+03</rscale>
<asrwt>0</asrwt>
<pdfrwt beam="1">  1       21 0.12665253E+00 0.19685431E+03</pdfrwt>
<pdfrwt beam="2">  1       21 0.22182314E-01 0.19685431E+03</pdfrwt>
<totfact> 0.87449527E+03</totfact>
</mgrwt>
</event>
<event>
12    1  0.1029207E-001  0.2247252E+03  0.7546771E-02  0.1130460E+00
         21   -1    0    0  501  502  0.00000000000E+00  0.00000000000E+00  0.18162444091E+03  0.18162444091E+03  0.00000000000E+00 0. -1.
         21   -1    0    0  502  503 -0.00000000000E+00 -0.00000000000E+00 -0.40223815022E+03  0.40223815022E+03  0.00000000000E+00 0. -1.
         -6    2    1    2    0  503 -0.13147374503E+03  0.57049310873E+02  0.52180866716E+02  0.23042477177E+03  0.17272163470E+03 0.  0.
        -24    2    3    3    0    0 -0.70734651828E+01 -0.51754542261E+01  0.10061114942E+02  0.85016675343E+02  0.83963026484E+02 0.  0.
          6    2    1    2  501    0  0.13147374503E+03 -0.57049310873E+02 -0.27279457602E+03  0.35343781936E+03  0.17309373744E+03 0.  0.
         24    2    5    5    0    0  0.13763727357E+03  0.21086336265E+01 -0.23409268621E+03  0.28232117042E+03  0.77184144212E+02 0.  0.
          5    1    5    5  501    0 -0.61635285366E+01 -0.59157944499E+02 -0.38701889813E+02  0.71116648940E+02  0.47000000000E+01 0. -1.
        -11    1    6    6    0    0  0.80024855773E+02  0.21522398510E+02 -0.18979998416E+03  0.20710196804E+03  0.00000000000E+00 0.  1.
         12    1    6    6    0    0  0.57612417796E+02 -0.19413764884E+02 -0.44292702047E+02  0.75219202375E+02  0.00000000000E+00 0. -1.
         -5    1    3    3    0  503 -0.12440027985E+03  0.62224765099E+02  0.42119751774E+02  0.14540809643E+03  0.47000000000E+01 0.  1.
         13    1    4    4    0    0 -0.31609136730E+02 -0.32905251558E+02  0.14134900784E+02  0.47767023406E+02  0.00000000000E+00 0. -1.
        -14    1    4    4    0    0  0.24535671548E+02  0.27729797331E+02 -0.40737858426E+01  0.37249651937E+02  0.00000000000E+00 0.  1.
<mgrwt>
<rscale>  2 0.22465354E+03</rscale>
<asrwt>0</asrwt>
<pdfrwt beam="1">  1       21 0.27942222E-01 0.22472519E+03</pdfrwt>
<pdfrwt beam="2">  1       21 0.61882791E-01 0.22472519E+03</pdfrwt>
<totfact> 0.29152337E+04</totfact>
</mgrwt>
</event>
<event>
12    1  0.1029207E-001  0.1750586E+03  0.7546771E-02  0.1172877E+00
         21   -1    0    0  501  502  0.00000000000E+00  0.00000000000E+00  0.64396822223E+03  0.64396822223E+03  0.00000000000E+00 0. -1.
         21   -1    0    0  502  503 -0.00000000000E+00 -0.00000000000E+00 -0.14556567401E+03  0.14556567401E+03  0.00000000000E+00 0. -1.
         -6    2    1    2    0  503  0.58027576808E+01  0.21697204815E+02 -0.74846425689E+02  0.19038775952E+03  0.17361183958E+03 0.  0.
        -24    2    3    3    0    0  0.61426227921E+02 -0.22484588520E+02 -0.42959647456E+02  0.11238226016E+03  0.80656697752E+02 0.  0.
          6    2    1    2  501    0 -0.58027576808E+01 -0.21697204815E+02  0.57324897391E+03  0.59914613671E+03  0.17279255294E+03 0.  0.
         24    2    5    5    0    0 -0.62712510542E+02 -0.29074759602E+02  0.25763016622E+03  0.27831834793E+03  0.79432988262E+02 0.  0.
          5    1    5    5  501    0  0.56909752861E+02  0.73775547871E+01  0.31561880770E+03  0.32082778879E+03  0.47000000000E+01 0. -1.
        -13    1    6    6    0    0  0.37031563886E+01  0.10731081268E+02  0.24022585140E+01  0.11603461483E+02  0.00000000000E+00 0.  1.
         14    1    6    6    0    0 -0.66415666930E+02 -0.39805840870E+02  0.25522790770E+03  0.26671488644E+03  0.00000000000E+00 0. -1.
         -5    1    3    3    0  503 -0.55623470240E+02  0.44181793335E+02 -0.31886778233E+02  0.78005499357E+02  0.47000000000E+01 0.  1.
         11    1    4    4    0    0  0.14146119079E+02 -0.45594685198E+02 -0.34916742254E+02  0.59145303219E+02  0.00000000000E+00 0. -1.
        -12    1    4    4    0    0  0.47280108842E+02  0.23110096678E+02 -0.80429052026E+01  0.53236956944E+02  0.00000000000E+00 0.  1.
<mgrwt>
<rscale>  2 0.17485512E+03</rscale>
<asrwt>0</asrwt>
<pdfrwt beam="1">  1       21 0.99072033E-01 0.17505859E+03</pdfrwt>
<pdfrwt beam="2">  1       21 0.22394719E-01 0.17505859E+03</pdfrwt>
<totfact> 0.15848245E+04</totfact>
</mgrwt>
</event>
<event>
12    1  0.1029207E-001  0.1783777E+03  0.7546771E-02  0.1170037E+00
         21   -1    0    0  503  502  0.00000000000E+00  0.00000000000E+00  0.50119600714E+03  0.50119600714E+03  0.00000000000E+00 0. -1.
         21   -1    0    0  501  503 -0.00000000000E+00 -0.00000000000E+00 -0.14465771998E+03  0.14465771998E+03  0.00000000000E+00 0. -1.
          6    2    1    2  501    0 -0.20204216755E+02  0.39481912832E+02 -0.64449189287E+02  0.18966362838E+03  0.17277604613E+03 0.  0.
         24    2    3    3    0    0  0.40186088445E+02  0.66444396131E+02 -0.31589192001E+02  0.11566475076E+03  0.79691141512E+02 0.  0.
         -6    2    1    2    0  502  0.20204216755E+02 -0.39481912832E+02  0.42098747645E+03  0.45619009874E+03  0.17003505239E+03 0.  0.
        -24    2    5    5    0    0 -0.28217094269E+02  0.20103339635E+02  0.30529561300E+03  0.31725945798E+03  0.79043049575E+02 0.  0.
          5    1    3    3  501    0 -0.60390305200E+02 -0.26962483299E+02 -0.32859997286E+02  0.73998877623E+02  0.47000000000E+01 0. -1.
        -13    1    4    4    0    0  0.58602886187E+02  0.29371555994E+02 -0.35113864851E+01  0.65645383737E+02  0.00000000000E+00 0.  1.
         14    1    4    4    0    0 -0.18416797741E+02  0.37072840137E+02 -0.28077805516E+02  0.50019367024E+02  0.00000000000E+00 0. -1.
         -5    1    5    5    0  502  0.48421311023E+02 -0.59585252467E+02  0.11569186345E+03  0.13893064076E+03  0.47000000000E+01 0.  1.
         11    1    6    6    0    0  0.20148916196E+02  0.28683492528E+02  0.16292235310E+03  0.16665057667E+03  0.00000000000E+00 0. -1.
        -12    1    6    6    0    0 -0.48366010465E+02 -0.85801528931E+01  0.14237325991E+03  0.15060888131E+03  0.00000000000E+00 0.  1.
<mgrwt>
<rscale>  2 0.17771054E+03</rscale>
<asrwt>0</asrwt>
<pdfrwt beam="1">  1       21 0.77107077E-01 0.17837767E+03</pdfrwt>
<pdfrwt beam="2">  1       21 0.22255034E-01 0.17837767E+03</pdfrwt>
<totfact> 0.28450639E+04</totfact>
</mgrwt>
</event>
<event>
12    1  0.1029207E-001  0.1852406E+03  0.7546771E-02  0.1163025E+00
         21   -1    0    0  501  502  0.00000000000E+00  0.00000000000E+00  0.12174139795E+03  0.12174139795E+03  0.00000000000E+00 0.  1.
         21   -1    0    0  502  503 -0.00000000000E+00 -0.00000000000E+00 -0.29766610494E+03  0.29766610494E+03  0.00000000000E+00 0.  1.
         -6    2    1    2    0  503  0.61341320803E+02 -0.12389762848E+02 -0.13803778351E+03  0.23033207700E+03  0.17344212913E+03 0.  0.
        -24    2    3    3    0    0  0.70665742542E+02  0.30688581505E+02 -0.30284952464E+02  0.11381833879E+03  0.78115297451E+02 0.  0.
          6    2    1    2  501    0 -0.61341320803E+02  0.12389762848E+02 -0.37886923475E+02  0.18907542589E+03  0.17434974576E+03 0.  0.
         24    2    5    5    0    0 -0.84452994202E+02  0.60550514931E+02 -0.25508253917E+02  0.13403971977E+03  0.80729810912E+02 0.  0.
          5    1    5    5  501    0  0.23111673400E+02 -0.48160752083E+02 -0.12378669558E+02  0.55035706124E+02  0.47000000000E+01 0. -1.
        -11    1    6    6    0    0 -0.26945157673E+02  0.40302956152E+02 -0.48786682387E+02  0.68778704371E+02  0.00000000000E+00 0.  1.
         12    1    6    6    0    0 -0.57507836529E+02  0.20247558779E+02  0.23278428470E+02  0.65261015398E+02  0.00000000000E+00 0. -1.
         -5    1    3    3    0  503 -0.93244217399E+01 -0.43078344353E+02 -0.10775283105E+03  0.11651373821E+03  0.47000000000E+01 0.  1.
         13    1    4    4    0    0  0.12699220614E+02 -0.87402947275E+01  0.21645522925E+02  0.26574266102E+02  0.00000000000E+00 0. -1.
        -14    1    4    4    0    0  0.57966521928E+02  0.39428876233E+02 -0.51930475390E+02  0.87244072691E+02  0.00000000000E+00 0.  1.
<mgrwt>
<rscale>  2 0.18502678E+03</rscale>
<asrwt>0</asrwt>
<pdfrwt beam="1">  1       21 0.18729446E-01 0.18524065E+03</pdfrwt>
<pdfrwt beam="2">  1       21 0.45794785E-01 0.18524065E+03</pdfrwt>
<totfact> 0.11954519E+05</totfact>
</mgrwt>
</event>
<event>
12    1  0.1029207E-001  0.2461329E+03  0.7546771E-02  0.1115899E+00
         21   -1    0    0  503  502  0.00000000000E+00  0.00000000000E+00  0.94292955839E+02  0.94292955839E+02  0.00000000000E+00 0.  1.
         21   -1    0    0  501  503 -0.00000000000E+00 -0.00000000000E+00 -0.66953905120E+03  0.66953905120E+03  0.00000000000E+00 0. -1.
          6    2    1    2  501    0  0.10030963196E+03  0.14302116399E+03 -0.36678365991E+03  0.44128279846E+03  0.17228807104E+03 0.  0.
         24    2    3    3    0    0  0.91389337411E+01  0.99691203559E+02 -0.28282217131E+03  0.30990089996E+03  0.77642327600E+02 0.  0.
         -6    2    1    2    0  502 -0.10030963196E+03 -0.14302116399E+03 -0.20846243545E+03  0.32254920859E+03  0.17339068416E+03 0.  0.
        -24    2    5    5    0    0 -0.94678272950E+01 -0.65149475357E+02 -0.16666025400E+03  0.19571961528E+03  0.78717429134E+02 0.  0.
          5    1    3    3  501    0  0.91170698214E+02  0.43329960430E+02 -0.83961488605E+02  0.13138189850E+03  0.47000000000E+01 0. -1.
        -11    1    4    4    0    0 -0.12926216402E+02  0.75072614448E+02 -0.10911286242E+03  0.13307366853E+03  0.00000000000E+00 0.  1.
         12    1    4    4    0    0  0.22065150143E+02  0.24618589111E+02 -0.17370930889E+03  0.17682723143E+03  0.00000000000E+00 0. -1.
         -5    1    5    5    0  502 -0.90841804660E+02 -0.77871688632E+02 -0.41802181454E+02  0.12682959331E+03  0.47000000000E+01 0.  1.
         11    1    6    6    0    0 -0.39350863988E+02 -0.11555547969E+02 -0.60236580694E+02  0.72872949982E+02  0.00000000000E+00 0. -1.
        -12    1    6    6    0    0  0.29883036693E+02 -0.53593927389E+02 -0.10642367330E+03  0.12284666530E+03  0.00000000000E+00 0.  1.
<mgrwt>
<rscale>  2 0.24593880E+03</rscale>
<asrwt>0</asrwt>
<pdfrwt beam="1">  1       21 0.14506608E-01 0.24613290E+03</pdfrwt>
<pdfrwt beam="2">  1       21 0.10300601E+00 0.24613290E+03</pdfrwt>
<totfact> 0.31008705E+04</totfact>
</mgrwt>
</event>
<event>
12    1  0.1029207E-001  0.2545141E+03  0.7546771E-02  0.1111921E+00
         21   -1    0    0  503  502  0.00000000000E+00  0.00000000000E+00  0.20488325504E+03  0.20488325504E+03  0.00000000000E+00 0.  1.
         21   -1    0    0  501  503 -0.00000000000E+00 -0.00000000000E+00 -0.37213887829E+03  0.37213887829E+03  0.00000000000E+00 0. -1.
          6    2    1    2  501    0  0.11788913396E+03  0.13873891413E+03 -0.20746629789E+03  0.32835911201E+03  0.17785136344E+03 0.  0.
         24    2    3    3    0    0  0.21041273457E+00  0.15881492170E+02 -0.84581563686E+02  0.11844252033E+03  0.81377660569E+02 0.  0.
         -6    2    1    2    0  502 -0.11788913396E+03 -0.13873891413E+03  0.40210674649E+02  0.24866302132E+03  0.16452983200E+03 0.  0.
        -24    2    5    5    0    0 -0.35514723470E+02 -0.12473473041E+03 -0.57204194647E+01  0.15319880776E+03  0.81345577307E+02 0.  0.
          5    1    3    3  501    0  0.11767872122E+03  0.12285742196E+03 -0.12288473420E+03  0.20991659168E+03  0.47000000000E+01 0. -1.
        -11    1    4    4    0    0 -0.34678625633E+02  0.23810076060E+02 -0.65631728539E+02  0.77955439764E+02  0.00000000000E+00 0.  1.
         12    1    4    4    0    0  0.34889038368E+02 -0.79285838897E+01 -0.18949835146E+02  0.40487080566E+02  0.00000000000E+00 0. -1.
         -5    1    5    5    0  502 -0.82374410488E+02 -0.14004183726E+02  0.45931094114E+02  0.95464213565E+02  0.47000000000E+01 0.  1.
         11    1    6    6    0    0 -0.49686074846E+02 -0.57125769094E+02 -0.27838135709E+02  0.80666110158E+02  0.00000000000E+00 0. -1.
        -12    1    6    6    0    0  0.14171351377E+02 -0.67608961313E+02  0.22117716244E+02  0.72532697603E+02  0.00000000000E+00 0.  1.
<mgrwt>
<rscale>  2 0.25220185E+03</rscale>
<asrwt>0</asrwt>
<pdfrwt beam="1">  1       21 0.31520501E-01 0.25451413E+03</pdfrwt>
<pdfrwt beam="2">  1       21 0.57252135E-01 0.25451413E+03</pdfrwt>
<totfact> 0.26854693E+04</totfact>
</mgrwt>
</event>
<event>
12    1  0.1029207E-001  0.2449408E+03  0.7546771E-02  0.1116611E+00
         21   -1    0    0  501  502  0.00000000000E+00  0.00000000000E+00  0.23320929023E+03  0.23320929023E+03  0.00000000000E+00 0.  1.
         21   -1    0    0  502  503 -0.00000000000E+00 -0.00000000000E+00 -0.90452798630E+03  0.90452798630E+03  0.00000000000E+00 0.  1.
         -6    2    1    2    0  503  0.16952396386E+03  0.32976960923E+02 -0.81711876843E+03  0.85304106439E+03  0.17369548507E+03 0.  0.
        -24    2    3    3    0    0  0.79667882115E+02  0.57717874694E+02 -0.28098054149E+03  0.30884209652E+03  0.82189119637E+02 0.  0.
          6    2    1    2  501    0 -0.16952396386E+03 -0.32976960923E+02  0.14580007236E+03  0.28469621214E+03  0.17311388688E+03 0.  0.
         24    2    5    5    0    0 -0.11993694219E+03  0.35092843548E+01  0.16509738144E+03  0.22000776687E+03  0.82152826779E+02 0.  0.
          5    1    5    5  501    0 -0.49587021677E+02 -0.36486245278E+02 -0.19297309080E+02  0.64688445266E+02  0.47000000000E+01 0. -1.
        -13    1    6    6    0    0 -0.52022889232E+02  0.42029051090E+02  0.67486135575E+02  0.95011581580E+02  0.00000000000E+00 0.  1.
         14    1    6    6    0    0 -0.67914052955E+02 -0.38519766735E+02  0.97611245866E+02  0.12499618529E+03  0.00000000000E+00 0. -1.
         -5    1    3    3    0  503  0.89856081750E+02 -0.24740913771E+02 -0.53613822694E+03  0.54419896787E+03  0.47000000000E+01 0.  1.
         13    1    4    4    0    0  0.21890752822E+02  0.30131747421E+02 -0.24712253375E+02  0.44697010287E+02  0.00000000000E+00 0. -1.
        -14    1    4    4    0    0  0.57777129293E+02  0.27586127273E+02 -0.25626828812E+03  0.26414508624E+03  0.00000000000E+00 0.  1.
<mgrwt>
<rscale>  2 0.24483767E+03</rscale>
<asrwt>0</asrwt>
<pdfrwt beam="1">  1       21 0.35878353E-01 0.24494076E+03</pdfrwt>
<pdfrwt beam="2">  1       21 0.13915815E+00 0.24494076E+03</pdfrwt>
<totfact> 0.26076399E+03</totfact>
</mgrwt>
</event>
<event>
12    1  0.1029207E-001  0.1858697E+03  0.7546771E-02  0.1162353E+00
         21   -1    0    0  503  502  0.00000000000E+00  0.00000000000E+00  0.72052405299E+03  0.72052405299E+03  0.00000000000E+00 0.  1.
         21   -1    0    0  501  503 -0.00000000000E+00 -0.00000000000E+00 -0.72882921264E+02  0.72882921264E+02  0.00000000000E+00 0.  1.
          6    2    1    2  501    0 -0.44495897935E+02 -0.52802475037E+02  0.90925031630E+02  0.20648248481E+03  0.17204554296E+03 0.  0.
         24    2    3    3    0    0 -0.59127936347E+02 -0.44304356849E+02 -0.34565280926E+01  0.11048100890E+03  0.82067757666E+02 0.  0.
         -6    2    1    2    0  502  0.44495897935E+02  0.52802475037E+02  0.55671610010E+03  0.58692448945E+03  0.17256753433E+03 0.  0.
        -24    2    5    5    0    0  0.90564400219E+02  0.63319423503E+02  0.36569553861E+03  0.39008989387E+03  0.78902714509E+02 0.  0.
          5    1    3    3  501    0  0.14632038412E+02 -0.84981181887E+01  0.94381559722E+02  0.96001475908E+02  0.47000000000E+01 0. -1.
        -11    1    4    4    0    0 -0.62725943547E+02 -0.40558650492E+02  0.27119437637E+02  0.79467049909E+02  0.00000000000E+00 0.  1.
         12    1    4    4    0    0  0.35980071999E+01 -0.37457063570E+01 -0.30575965729E+02  0.31013958989E+02  0.00000000000E+00 0. -1.
         -5    1    5    5    0  502 -0.46068502284E+02 -0.10516948466E+02  0.19102056149E+03  0.19683459558E+03  0.47000000000E+01 0.  1.
         13    1    6    6    0    0  0.67487943160E+02  0.28461991931E-01  0.20577347121E+03  0.21655794775E+03  0.00000000000E+00 0. -1.
        -14    1    6    6    0    0  0.23076457058E+02  0.63290961511E+02  0.15992206741E+03  0.17353194612E+03  0.00000000000E+00 0.  1.
<mgrwt>
<rscale>  2 0.18574843E+03</rscale>
<asrwt>0</asrwt>
<pdfrwt beam="1">  1       21 0.11084985E+00 0.18586969E+03</pdfrwt>
<pdfrwt beam="2">  1       21 0.11212758E-01 0.18586969E+03</pdfrwt>
<totfact> 0.42612674E+04</totfact>
</mgrwt>
</event>
<event>
12    1  0.1029207E-001  0.2033968E+03  0.7546771E-02  0.1147037E+00
         21   -1    0    0  501  502  0.00000000000E+00  0.00000000000E+00  0.62357997916E+02  0.62357997916E+02  0.00000000000E+00 0.  1.
         21   -1    0    0  502  503 -0.00000000000E+00 -0.00000000000E+00 -0.66225360495E+03  0.66225360495E+03  0.00000000000E+00 0.  1.
         -6    2    1    2    0  503 -0.99030625819E+02 -0.31059359492E+02 -0.31293306652E+03  0.37287624535E+03  0.17417761499E+03 0.  0.
        -24    2    3    3    0    0 -0.10561544505E+03  0.49355632307E+01 -0.12859261292E+03  0.18488026896E+03  0.80409400786E+02 0.  0.
          6    2    1    2  501    0  0.99030625819E+02  0.31059359492E+02 -0.28696254051E+03  0.35173535751E+03  0.17492430765E+03 0.  0.
         24    2    5    5    0    0  0.54406618496E+02 -0.23100886956E+02 -0.25583318176E+03  0.27482137113E+03  0.81132225569E+02 0.  0.
          5    1    5    5  501    0  0.44624007323E+02  0.54160246448E+02 -0.31129358747E+02  0.76913986380E+02  0.47000000000E+01 0. -1.
        -13    1    6    6    0    0  0.74179989576E+02 -0.26699317620E+02 -0.18286641159E+03  0.19913726146E+03  0.00000000000E+00 0.  1.
         14    1    6    6    0    0 -0.19773371080E+02  0.35984306635E+01 -0.72966770171E+02  0.75684109668E+02  0.00000000000E+00 0. -1.
         -5    1    3    3    0  503  0.65848192314E+01 -0.35994922723E+02 -0.18434045360E+03  0.18799597639E+03  0.47000000000E+01 0.  1.
         13    1    4    4    0    0 -0.53459847665E+02 -0.35504892347E+02 -0.45027393873E+02  0.78396548980E+02  0.00000000000E+00 0. -1.
        -14    1    4    4    0    0 -0.52155597386E+02  0.40440455578E+02 -0.83565219051E+02  0.10648371998E+03  0.00000000000E+00 0.  1.
<mgrwt>
<rscale>  2 0.20323617E+03</rscale>
<asrwt>0</asrwt>
<pdfrwt beam="1">  1       21 0.95935387E-02 0.20339681E+03</pdfrwt>
<pdfrwt beam="2">  1       21 0.10188516E+00 0.20339681E+03</pdfrwt>
<totfact> 0.68205781E+04</totfact>
</mgrwt>
</event>
<event>
12    1  0.1029207E-001  0.2108745E+03  0.7546771E-02  0.1141017E+00
         21   -1    0    0  501  502  0.00000000000E+00  0.00000000000E+00  0.59463143456E+03  0.59463143456E+03  0.00000000000E+00 0.  1.
         21   -1    0    0  502  503 -0.00000000000E+00 -0.00000000000E+00 -0.21971983684E+03  0.21971983684E+03  0.00000000000E+00 0.  1.
         -6    2    1    2    0  503  0.11988849314E+03 -0.92390756029E+01 -0.14364578834E+03  0.25455684045E+03  0.17235562424E+03 0.  0.
        -24    2    3    3    0    0  0.27123730782E+02 -0.49391592806E+02 -0.11075016062E+03  0.14815318404E+03  0.80675533179E+02 0.  0.
          6    2    1    2  501    0 -0.11988849314E+03  0.92390756029E+01  0.51855738606E+03  0.55979443096E+03  0.17323230353E+03 0.  0.
         24    2    5    5    0    0 -0.36427377709E+02  0.39491913191E+00  0.42594665422E+03  0.43472319308E+03  0.78908760928E+02 0.  0.
          5    1    5    5  501    0 -0.83461115430E+02  0.88441564710E+01  0.92610731839E+02  0.12507123788E+03  0.47000000000E+01 0. -1.
        -11    1    6    6    0    0 -0.97858353111E+01  0.36524092222E+02  0.26307892533E+03  0.26578241635E+03  0.00000000000E+00 0.  1.
         12    1    6    6    0    0 -0.26641542397E+02 -0.36129173090E+02  0.16286772889E+03  0.16894077673E+03  0.00000000000E+00 0. -1.
         -5    1    3    3    0  503  0.92764762356E+02  0.40152517203E+02 -0.32895627719E+02  0.10640365640E+03  0.47000000000E+01 0.  1.
         11    1    4    4    0    0  0.13204887093E+01  0.14797779549E+02  0.28671547736E+01  0.15130715333E+02  0.00000000000E+00 0. -1.
        -12    1    4    4    0    0  0.25803242072E+02 -0.64189372355E+02 -0.11361731539E+03  0.13302246871E+03  0.00000000000E+00 0.  1.
<mgrwt>
<rscale>  2 0.21069434E+03</rscale>
<asrwt>0</asrwt>
<pdfrwt beam="1">  1       21 0.91481759E-01 0.21087447E+03</pdfrwt>
<pdfrwt beam="2">  1       21 0.33803052E-01 0.21087447E+03</pdfrwt>
<totfact> 0.84185541E+03</totfact>
</mgrwt>
</event>
<event>
12    1  0.1029207E-001  0.1729407E+03  0.7546771E-02  0.1174935E+00
         21   -1    0    0  503  502  0.00000000000E+00  0.00000000000E+00  0.85554505861E+03  0.85554505861E+03  0.00000000000E+00 0.  1.
         21   -1    0    0  501  503 -0.00000000000E+00 -0.00000000000E+00 -0.39368733657E+02  0.39368733657E+02  0.00000000000E+00 0.  1.
          6    2    1    2  501    0 -0.69881949228E+01 -0.42051689883E+01  0.25721648938E+03  0.30994970927E+03  0.17274831852E+03 0.  0.
         24    2    3    3    0    0 -0.48814774033E+02  0.47487070462E+02  0.16803577446E+03  0.19860861060E+03  0.81064509378E+02 0.  0.
         -6    2    1    2    0  502  0.69881949228E+01  0.42051689883E+01  0.55895983557E+03  0.58496408300E+03  0.17227989523E+03 0.  0.
        -24    2    5    5    0    0  0.73007121175E+02  0.52015918125E+01  0.31946430142E+03  0.33648935116E+03  0.76226945786E+02 0.  0.
          5    1    3    3  501    0  0.41826579110E+02 -0.51692239450E+02  0.89180714923E+02  0.11134109867E+03  0.47000000000E+01 0. -1.
        -13    1    4    4    0    0 -0.46847345763E+02 -0.35959748992E+01  0.11828453724E+03  0.12727465023E+03  0.00000000000E+00 0.  1.
         14    1    4    4    0    0 -0.19674282700E+01  0.51083045361E+02  0.49751237222E+02  0.71333960373E+02  0.00000000000E+00 0. -1.
         -5    1    5    5    0  502 -0.66018926252E+02 -0.99642282421E+00  0.23949553415E+03  0.24847473184E+03  0.47000000000E+01 0.  1.
         13    1    6    6    0    0 -0.99918527295E+01 -0.99291199332E+01  0.10642050374E+03  0.10734872220E+03  0.00000000000E+00 0. -1.
        -14    1    6    6    0    0  0.82998973905E+02  0.15130711746E+02  0.21304379768E+03  0.22914062895E+03  0.00000000000E+00 0.  1.
<mgrwt>
<rscale>  2 0.17282365E+03</rscale>
<asrwt>0</asrwt>
<pdfrwt beam="1">  1       21 0.13162230E+00 0.17294074E+03</pdfrwt>
<pdfrwt beam="2">  1       21 0.60567289E-02 0.17294074E+03</pdfrwt>
<totfact> 0.82053540E+04</totfact>
</mgrwt>
</event>
<event>
12    1  0.1029207E-001  0.1755690E+03  0.7546771E-02  0.1172405E+00
         21   -1    0    0  503  502  0.00000000000E+00  0.00000000000E+00  0.31648559056E+03  0.31648559056E+03  0.00000000000E+00 0.  1.
         21   -1    0    0  501  503 -0.00000000000E+00 -0.00000000000E+00 -0.19064042937E+03  0.19064042937E+03  0.00000000000E+00 0.  1.
          6    2    1    2  501    0 -0.28673641111E+02  0.28033333996E+01 -0.11501060091E+03  0.20907237760E+03  0.17220274209E+03 0.  0.
         24    2    3    3    0    0 -0.83272946958E+02  0.12862023284E+02 -0.81184389484E+02  0.14389136794E+03  0.83749658711E+02 0.  0.
         -6    2    1    2    0  502  0.28673641111E+02 -0.28033333996E+01  0.24085576210E+03  0.29805364232E+03  0.17318902734E+03 0.  0.
        -24    2    5    5    0    0 -0.36970981671E+02 -0.31298562831E+02  0.13845659501E+03  0.17303814720E+03  0.91790621321E+02 0.  0.
          5    1    3    3  501    0  0.54599305847E+02 -0.10058689884E+02 -0.33826211421E+02  0.65181009660E+02  0.47000000000E+01 0. -1.
        -13    1    4    4    0    0 -0.59066381238E+02  0.47803946293E+02 -0.56959794734E+02  0.94965640575E+02  0.00000000000E+00 0.  1.
         14    1    4    4    0    0 -0.24206565721E+02 -0.34941923009E+02 -0.24224594750E+02  0.48925727367E+02  0.00000000000E+00 0. -1.
         -5    1    5    5    0  502  0.65644622782E+02  0.28495229432E+02  0.10239916709E+03  0.12501549512E+03  0.47000000000E+01 0.  1.
         11    1    6    6    0    0 -0.32041876665E+02 -0.33630213235E+02  0.14073980942E+02  0.48536069495E+02  0.00000000000E+00 0. -1.
        -12    1    6    6    0    0 -0.49291050062E+01  0.23316504036E+01  0.12438261407E+03  0.12450207770E+03  0.00000000000E+00 0.  1.
<mgrwt>
<rscale>  2 0.17532529E+03</rscale>
<asrwt>0</asrwt>
<pdfrwt beam="1">  1       21 0.48690091E-01 0.17556901E+03</pdfrwt>
<pdfrwt beam="2">  1       21 0.29329297E-01 0.17556901E+03</pdfrwt>
<totfact> 0.45218078E+04</totfact>
</mgrwt>
</event>
<event>
12    1  0.1029207E-001  0.2196091E+03  0.7546771E-02  0.1134230E+00
         21   -1    0    0  503  502  0.00000000000E+00  0.00000000000E+00  0.48496849666E+03  0.48496849666E+03  0.00000000000E+00 0. -1.
         21   -1    0    0  501  503 -0.00000000000E+00 -0.00000000000E+00 -0.14465299383E+03  0.14465299383E+03  0.00000000000E+00 0.  1.
          6    2    1    2  501    0 -0.94949453626E+02 -0.94943171442E+02 -0.61696414952E+01  0.21940191966E+03  0.17340569001E+03 0.  0.
         24    2    3    3    0    0 -0.80427490481E+02 -0.12746289256E+03 -0.33316259803E+02  0.17437472165E+03  0.81124596634E+02 0.  0.
         -6    2    1    2    0  502  0.94949453626E+02  0.94943171442E+02  0.34648514433E+03  0.41021957083E+03  0.17377726119E+03 0.  0.
        -24    2    5    5    0    0  0.97282306550E+02  0.23376215335E+02  0.30012829166E+03  0.32478937010E+03  0.73490467810E+02 0.  0.
          5    1    3    3  501    0 -0.14521963145E+02  0.32519721120E+02  0.27146618308E+02  0.45027198012E+02  0.47000000000E+01 0. -1.
        -11    1    4    4    0    0 -0.44769711680E+02 -0.85940835167E+02  0.18901635805E+02  0.98729053825E+02  0.00000000000E+00 0.  1.
         12    1    4    4    0    0 -0.35657778801E+02 -0.41522057394E+02 -0.52217895608E+02  0.75645667827E+02  0.00000000000E+00 0. -1.
         -5    1    5    5    0  502 -0.23328529242E+01  0.71566956107E+02  0.46356852661E+02  0.85430200736E+02  0.47000000000E+01 0.  1.
         11    1    6    6    0    0  0.49861788897E+02 -0.14922828323E+02  0.73200698018E+02  0.89817765434E+02  0.00000000000E+00 0. -1.
        -12    1    6    6    0    0  0.47420517653E+02  0.38299043658E+02  0.22692759365E+03  0.23497160466E+03  0.00000000000E+00 0.  1.
<mgrwt>
<rscale>  2 0.21953555E+03</rscale>
<asrwt>0</asrwt>
<pdfrwt beam="1">  1       21 0.74610537E-01 0.21960906E+03</pdfrwt>
<pdfrwt beam="2">  1       21 0.22254307E-01 0.21960906E+03</pdfrwt>
<totfact> 0.29942796E+04</totfact>
</mgrwt>
</event>
<event>
12    1  0.1029207E-001  0.2054613E+03  0.7546771E-02  0.1145250E+00
         21   -1    0    0  501  502  0.00000000000E+00  0.00000000000E+00  0.76412333745E+03  0.76412333745E+03  0.00000000000E+00 0. -1.
         21   -1    0    0  502  503 -0.00000000000E+00 -0.00000000000E+00 -0.62258854343E+02  0.62258854343E+02  0.00000000000E+00 0. -1.
         -6    2    1    2    0  503  0.69245443640E+02 -0.85869954698E+02  0.49025984923E+03  0.53157227296E+03  0.17333718882E+03 0.  0.
        -24    2    3    3    0    0 -0.24696226899E+02 -0.29317560354E+02  0.15670814219E+03  0.18042836793E+03  0.80793138057E+02 0.  0.
          6    2    1    2  501    0 -0.69245443640E+02  0.85869954698E+02  0.21160463388E+03  0.29480991884E+03  0.17311206365E+03 0.  0.
         24    2    5    5    0    0 -0.71766112770E+02  0.67147726185E+02  0.23348901155E+03  0.26552013223E+03  0.79527542594E+02 0.  0.
          5    1    5    5  501    0  0.25206691300E+01  0.18722228513E+02 -0.21884377670E+02  0.29289786605E+02  0.47000000000E+01 0. -1.
        -11    1    6    6    0    0  0.94824391952E+01 -0.62774103275E+01  0.55821869549E+01  0.12668202110E+02  0.00000000000E+00 0.  1.
         12    1    6    6    0    0 -0.81248551965E+02  0.73425136512E+02  0.22790682459E+03  0.25285193012E+03  0.00000000000E+00 0. -1.
         -5    1    3    3    0  503  0.93941670539E+02 -0.56552394344E+02  0.33355170704E+03  0.35114390503E+03  0.47000000000E+01 0.  1.
         11    1    4    4    0    0 -0.88465195792E+00 -0.54623333328E+02  0.92887287583E+02  0.10776149288E+03  0.00000000000E+00 0. -1.
        -12    1    4    4    0    0 -0.23811574941E+02  0.25305772974E+02  0.63820854608E+02  0.72666875052E+02  0.00000000000E+00 0.  1.
<mgrwt>
<rscale>  2 0.20541385E+03</rscale>
<asrwt>0</asrwt>
<pdfrwt beam="1">  1       21 0.11755743E+00 0.20546134E+03</pdfrwt>
<pdfrwt beam="2">  1       21 0.95782859E-02 0.20546134E+03</pdfrwt>
<totfact> 0.48313753E+04</totfact>
</mgrwt>
</event>
<event>
12    1  0.1029207E-001  0.1879796E+03  0.7546771E-02  0.1161081E+00
         21   -1    0    0  503  502  0.00000000000E+00  0.00000000000E+00  0.23072377796E+03  0.23072377796E+03  0.00000000000E+00 0. -1.
         21   -1    0    0  501  503 -0.00000000000E+00 -0.00000000000E+00 -0.16131426192E+03  0.16131426192E+03  0.00000000000E+00 0. -1.
          6    2    1    2  501    0  0.71921462975E+02 -0.20029176287E+02 -0.15989744843E+02  0.18865841174E+03  0.17251799802E+03 0.  0.
         24    2    3    3    0    0 -0.13566046777E+02  0.22579622803E+02  0.19171171718E+02  0.86766291651E+02  0.80417526390E+02 0.  0.
         -6    2    1    2    0  502 -0.71921462975E+02  0.20029176287E+02  0.85399260881E+02  0.20337962814E+03  0.16880869244E+03 0.  0.
        -24    2    5    5    0    0 -0.17367295244E+02  0.28962021240E+02  0.11362696153E+03  0.14113136696E+03  0.76593437945E+02 0.  0.
          5    1    3    3  501    0  0.85487509752E+02 -0.42608799090E+02 -0.35160916562E+02  0.10189212009E+03  0.47000000000E+01 0. -1.
        -13    1    4    4    0    0  0.16386856126E+02 -0.17356462462E+02  0.27217067487E+02  0.36201444798E+02  0.00000000000E+00 0.  1.
         14    1    4    4    0    0 -0.29952902903E+02  0.39936085264E+02 -0.80458957686E+01  0.50564846853E+02  0.00000000000E+00 0. -1.
         -5    1    5    5    0  502 -0.54554167730E+02 -0.89328449531E+01 -0.28227700648E+02  0.62248261177E+02  0.47000000000E+01 0.  1.
         13    1    6    6    0    0 -0.10906263410E+02 -0.55514047742E+01  0.10400690307E+03  0.10472440290E+03  0.00000000000E+00 0. -1.
        -14    1    6    6    0    0 -0.64610318343E+01  0.34513426014E+02  0.96200584599E+01  0.36406964064E+02  0.00000000000E+00 0.  1.
<mgrwt>
<rscale>  2 0.18712418E+03</rscale>
<asrwt>0</asrwt>
<pdfrwt beam="1">  1       21 0.35495966E-01 0.18797959E+03</pdfrwt>
<pdfrwt beam="2">  1       21 0.24817579E-01 0.18797959E+03</pdfrwt>
<totfact> 0.11773635E+05</totfact>
</mgrwt>
</event>
<event>
12    1  0.1029207E-001  0.2238264E+03  0.7546771E-02  0.1131128E+00
         21   -1    0    0  501  502  0.00000000000E+00  0.00000000000E+00  0.11798181221E+04  0.11798181221E+04  0.00000000000E+00 0. -1.
         21   -1    0    0  502  503 -0.00000000000E+00 -0.00000000000E+00 -0.63429941587E+02  0.63429941587E+02  0.00000000000E+00 0. -1.
         -6    2    1    2    0  503  0.14057189120E+03  0.15998719854E+02  0.19991337948E+03  0.29983706309E+03  0.17297540136E+03 0.  0.
        -24    2    3    3    0    0  0.10387748435E+03  0.22726782968E+02  0.46044140194E+02  0.14144015931E+03  0.81106210621E+02 0.  0.
          6    2    1    2  501    0 -0.14057189120E+03 -0.15998719854E+02  0.91647480104E+03  0.94341100060E+03  0.17344117010E+03 0.  0.
         24    2    5    5    0    0 -0.10517081555E+03 -0.65502085535E+02  0.77848375348E+03  0.79252217207E+03  0.81871943477E+02 0.  0.
          5    1    5    5  501    0 -0.35401075655E+02  0.49503365682E+02  0.13799104756E+03  0.15088882854E+03  0.47000000000E+01 0. -1.
        -13    1    6    6    0    0  0.85025806023E+01  0.36530931198E+01  0.14085116516E+03  0.14115484297E+03  0.00000000000E+00 0.  1.
         14    1    6    6    0    0 -0.11367339615E+03 -0.69155178655E+02  0.63763258832E+03  0.65136732909E+03  0.00000000000E+00 0. -1.
         -5    1    3    3    0  503  0.36694406847E+02 -0.67280631141E+01  0.15386923928E+03  0.15839690377E+03  0.47000000000E+01 0.  1.
         11    1    4    4    0    0  0.67637742119E+02 -0.13055163365E+02  0.56924593947E+02  0.89362804597E+02  0.00000000000E+00 0. -1.
        -12    1    4    4    0    0  0.36239742234E+02  0.35781946333E+02 -0.10880453753E+02  0.52077354718E+02  0.00000000000E+00 0.  1.
<mgrwt>
<rscale>  2 0.22373616E+03</rscale>
<asrwt>0</asrwt>
<pdfrwt beam="1">  1       21 0.18151046E+00 0.22382640E+03</pdfrwt>
<pdfrwt beam="2">  1       21 0.97584534E-02 0.22382640E+03</pdfrwt>
<totfact> 0.14718411E+04</totfact>
</mgrwt>
</event>
<event>
12    1  0.1029207E-001  0.2353133E+03  0.7546771E-02  0.1123204E+00
         21   -1    0    0  501  502  0.00000000000E+00  0.00000000000E+00  0.55472328388E+03  0.55472328388E+03  0.00000000000E+00 0. -1.
         21   -1    0    0  502  503 -0.00000000000E+00 -0.00000000000E+00 -0.15512203185E+03  0.15512203185E+03  0.00000000000E+00 0.  1.
         -6    2    1    2    0  503  0.89978003593E+02  0.13129679049E+03 -0.13688953483E+02  0.23426027262E+03  0.17133475876E+03 0.  0.
        -24    2    3    3    0    0 -0.32291350917E+01  0.16114503691E+02  0.17817936178E+02  0.82703999281E+02  0.79071917295E+02 0.  0.
          6    2    1    2  501    0 -0.89978003593E+02 -0.13129679049E+03  0.41329020551E+03  0.47558504311E+03  0.17331315858E+03 0.  0.
         24    2    5    5    0    0 -0.10916206458E+03 -0.40296945174E+02  0.18862786546E+03  0.23238911987E+03  0.69885844574E+02 0.  0.
          5    1    5    5  501    0  0.19184060990E+02 -0.90999845314E+02  0.22466234005E+03  0.24319592324E+03  0.47000000000E+01 0. -1.
        -13    1    6    6    0    0 -0.49093622332E+02  0.16533612729E+02  0.88313666138E+02  0.10238577895E+03  0.00000000000E+00 0.  1.
         14    1    6    6    0    0 -0.60068442251E+02 -0.56830557903E+02  0.10031419932E+03  0.13000334092E+03  0.00000000000E+00 0. -1.
         -5    1    3    3    0  503  0.93207138685E+02  0.11518228680E+03 -0.31506889661E+02  0.15155627334E+03  0.47000000000E+01 0.  1.
         13    1    4    4    0    0  0.20738375425E+02 -0.24150464315E+02 -0.18474193419E+01  0.31886330929E+02  0.00000000000E+00 0. -1.
        -14    1    4    4    0    0 -0.23967510517E+02  0.40264968006E+02  0.19665355520E+02  0.50817668351E+02  0.00000000000E+00 0.  1.
<mgrwt>
<rscale>  2 0.23494911E+03</rscale>
<asrwt>0</asrwt>
<pdfrwt beam="1">  1       21 0.85342042E-01 0.23531328E+03</pdfrwt>
<pdfrwt beam="2">  1       21 0.23864928E-01 0.23531328E+03</pdfrwt>
<totfact> 0.19168489E+04</totfact>
</mgrwt>
</event>
<event>
12    1  0.1029207E-001  0.1930092E+03  0.7546771E-02  0.1155900E+00
         21   -1    0    0  503  502  0.00000000000E+00  0.00000000000E+00  0.17121264620E+03  0.17121264620E+03  0.00000000000E+00 0.  1.
         21   -1    0    0  501  503 -0.00000000000E+00 -0.00000000000E+00 -0.44813265569E+03  0.44813265569E+03  0.00000000000E+00 0.  1.
          6    2    1    2  501    0 -0.77407968172E+02 -0.34395869882E+02 -0.36098403999E+03  0.40934339207E+03  0.17342856195E+03 0.  0.
         24    2    3    3    0    0  0.18942119944E+02 -0.11590580680E+02 -0.23611496378E+03  0.24991379353E+03  0.78825646899E+02 0.  0.
         -6    2    1    2    0  502  0.77407968172E+02  0.34395869882E+02  0.84064030506E+02  0.21000190982E+03  0.17279748696E+03 0.  0.
        -24    2    5    5    0    0  0.83003054646E+02  0.72097602517E+02  0.23539449215E+02  0.13832178303E+03  0.80568223393E+02 0.  0.
          5    1    3    3  501    0 -0.96350088117E+02 -0.22805289202E+02 -0.12486907622E+03  0.15942959854E+03  0.47000000000E+01 0. -1.
        -11    1    4    4    0    0  0.17918496797E+01  0.27883549148E+02 -0.16045108487E+03  0.16286575354E+03  0.00000000000E+00 0.  1.
         12    1    4    4    0    0  0.17150270264E+02 -0.39474129828E+02 -0.75663878900E+02  0.87048039990E+02  0.00000000000E+00 0. -1.
         -5    1    5    5    0  502 -0.55950864737E+01 -0.37701732636E+02  0.60524581292E+02  0.71680126792E+02  0.47000000000E+01 0.  1.
         11    1    6    6    0    0  0.17595194433E+02 -0.16555128875E+02 -0.46492256684E+01  0.24602407576E+02  0.00000000000E+00 0. -1.
        -12    1    6    6    0    0  0.65407860213E+02  0.88652731393E+02  0.28188674883E+02  0.11371937545E+03  0.00000000000E+00 0.  1.
<mgrwt>
<rscale>  2 0.19286729E+03</rscale>
<asrwt>0</asrwt>
<pdfrwt beam="1">  1       21 0.26340407E-01 0.19300916E+03</pdfrwt>
<pdfrwt beam="2">  1       21 0.68943486E-01 0.19300916E+03</pdfrwt>
<totfact> 0.26256648E+04</totfact>
</mgrwt>
</event>
<event>
12    1  0.1029207E-001  0.2058417E+03  0.7546771E-02  0.1145612E+00
         21   -1    0    0  501  502  0.00000000000E+00  0.00000000000E+00  0.10089743305E+04  0.10089743305E+04  0.00000000000E+00 0. -1.
         21   -1    0    0  502  503 -0.00000000000E+00 -0.00000000000E+00 -0.41466773956E+02  0.41466773956E+02  0.00000000000E+00 0.  1.
         -6    2    1    2    0  503  0.99773303705E+02 -0.47904256504E+02  0.45354174752E+03  0.49806718950E+03  0.17355482876E+03 0.  0.
        -24    2    3    3    0    0  0.37822792554E+02 -0.86132976421E+02  0.35067798037E+03  0.37196268739E+03  0.80819190992E+02 0.  0.
          6    2    1    2  501    0 -0.99773303705E+02  0.47904256504E+02  0.51396580898E+03  0.55237391492E+03  0.16943010109E+03 0.  0.
         24    2    5    5    0    0 -0.87430327847E+02 -0.26303632138E+02  0.25723290900E+03  0.28480517286E+03  0.81297439858E+02 0.  0.
          5    1    5    5  501    0 -0.12342975858E+02  0.74207888642E+02  0.25673289998E+03  0.26756874205E+03  0.47000000000E+01 0. -1.
        -11    1    6    6    0    0 -0.38130976276E+02 -0.48121343660E+02  0.88830467808E+02  0.10798373525E+03  0.00000000000E+00 0.  1.
         12    1    6    6    0    0 -0.49299351572E+02  0.21817711522E+02  0.16840244119E+03  0.17682143762E+03  0.00000000000E+00 0. -1.
         -5    1    3    3    0  503  0.61950511151E+02  0.38228719917E+02  0.10286376715E+03  0.12610450210E+03  0.47000000000E+01 0.  1.
         13    1    4    4    0    0 -0.18592527441E+02 -0.33865917824E+02  0.60636041338E+02  0.71897927479E+02  0.00000000000E+00 0. -1.
        -14    1    4    4    0    0  0.56415319995E+02 -0.52267058597E+02  0.29004193903E+03  0.30006475992E+03  0.00000000000E+00 0.  1.
<mgrwt>
<rscale>  2 0.20496978E+03</rscale>
<asrwt>0</asrwt>
<pdfrwt beam="1">  1       21 0.15522680E+00 0.20584171E+03</pdfrwt>
<pdfrwt beam="2">  1       21 0.63795045E-02 0.20584171E+03</pdfrwt>
<totfact> 0.48089391E+04</totfact>
</mgrwt>
</event>
<event>
12    1  0.1029207E-001  0.3050569E+03  0.7546771E-02  0.1082812E+00
         21   -1    0    0  503  502  0.00000000000E+00  0.00000000000E+00  0.39378143596E+02  0.39378143596E+02  0.00000000000E+00 0. -1.
         21   -1    0    0  501  503 -0.00000000000E+00 -0.00000000000E+00 -0.23668173254E+04  0.23668173254E+04  0.00000000000E+00 0.  1.
          6    2    1    2  501    0  0.19842511811E+03 -0.15214453589E+03 -0.12331688667E+04  0.12701993236E+04  0.17372501441E+03 0.  0.
         24    2    3    3    0    0  0.21225305460E+03 -0.13658201016E+03 -0.94628487833E+03  0.98252256610E+03  0.78673485081E+02 0.  0.
         -6    2    1    2    0  502 -0.19842511811E+03  0.15214453589E+03 -0.10942703151E+04  0.11359961454E+04  0.17475477816E+03 0.  0.
        -24    2    5    5    0    0 -0.15600696212E+03  0.44267286506E+02 -0.53762107686E+03  0.56738620409E+03  0.81196782083E+02 0.  0.
          5    1    3    3  501    0 -0.13827936486E+02 -0.15562525731E+02 -0.28688398838E+03  0.28767675753E+03  0.47000000000E+01 0. -1.
        -11    1    4    4    0    0  0.37791562123E+02 -0.42287122882E+02 -0.33804707469E+03  0.34277139267E+03  0.00000000000E+00 0.  1.
         12    1    4    4    0    0  0.17446149248E+03 -0.94294887281E+02 -0.60823780364E+03  0.63975117343E+03  0.00000000000E+00 0. -1.
         -5    1    5    5    0  502 -0.42418155993E+02  0.10787724939E+03 -0.55664923828E+03  0.56860994132E+03  0.47000000000E+01 0.  1.
         11    1    6    6    0    0 -0.10544812467E+03  0.29460927419E+02 -0.22348277270E+03  0.24886101128E+03  0.00000000000E+00 0. -1.
        -12    1    6    6    0    0 -0.50558837448E+02  0.14806359088E+02 -0.31413830416E+03  0.31852519281E+03  0.00000000000E+00 0.  1.
<mgrwt>
<rscale>  2 0.30490962E+03</rscale>
<asrwt>0</asrwt>
<pdfrwt beam="1">  1       21 0.60581728E-02 0.30505691E+03</pdfrwt>
<pdfrwt beam="2">  1       21 0.36412593E+00 0.30505691E+03</pdfrwt>
<totfact> 0.24774649E+03</totfact>
</mgrwt>
</event>
<event>
12    1  0.1029207E-001  0.2031949E+03  0.7546771E-02  0.1147816E+00
         21   -1    0    0  501  502  0.00000000000E+00  0.00000000000E+00  0.36714000806E+03  0.36714000806E+03  0.00000000000E+00 0. -1.
         21   -1    0    0  502  503 -0.00000000000E+00 -0.00000000000E+00 -0.21047856923E+03  0.21047856923E+03  0.00000000000E+00 0. -1.
         -6    2    1    2    0  503 -0.29159289335E+02  0.10067189257E+03 -0.12108812032E+03  0.23347764456E+03  0.16989521334E+03 0.  0.
        -24    2    3    3    0    0 -0.58237003745E+02  0.21927511439E+01 -0.49193093899E+02  0.10803985282E+03  0.76526417317E+02 0.  0.
          6    2    1    2  501    0  0.29159289335E+02 -0.10067189257E+03  0.27774955915E+03  0.34414093273E+03  0.17407776958E+03 0.  0.
         24    2    5    5    0    0 -0.62577292904E+01  0.13190183425E+02  0.98666456082E+02  0.12893920094E+03  0.81713572125E+02 0.  0.
          5    1    5    5  501    0  0.35417018625E+02 -0.11386207600E+03  0.17908310307E+03  0.21520173179E+03  0.47000000000E+01 0. -1.
        -11    1    6    6    0    0 -0.38433420014E+02  0.19287362968E+02  0.28732467072E+02  0.51717355001E+02  0.00000000000E+00 0.  1.
         12    1    6    6    0    0  0.32175690724E+02 -0.60971795432E+01  0.69933989009E+02  0.77221845942E+02  0.00000000000E+00 0. -1.
         -5    1    3    3    0  503  0.29077714410E+02  0.98479141430E+02 -0.71895026423E+02  0.12543779174E+03  0.47000000000E+01 0.  1.
         11    1    4    4    0    0 -0.65918136668E+02  0.25681996949E+02 -0.30432400833E+02  0.77012315441E+02  0.00000000000E+00 0. -1.
        -12    1    4    4    0    0  0.76811329237E+01 -0.23489245806E+02 -0.18760693066E+02  0.31027537379E+02  0.00000000000E+00 0.  1.
<mgrwt>
<rscale>  2 0.20229606E+03</rscale>
<asrwt>0</asrwt>
<pdfrwt beam="1">  1       21 0.56483078E-01 0.20319489E+03</pdfrwt>
<pdfrwt beam="2">  1       21 0.32381318E-01 0.20319489E+03</pdfrwt>
<totfact> 0.26891502E+04</totfact>
</mgrwt>
</event>
<event>
12    1  0.1029207E-001  0.1760134E+03  0.7546771E-02  0.1172076E+00
         21   -1    0    0  503  502  0.00000000000E+00  0.00000000000E+00  0.19453751901E+03  0.19453751901E+03  0.00000000000E+00 0. -1.
         21   -1    0    0  501  503 -0.00000000000E+00 -0.00000000000E+00 -0.15896500709E+03  0.15896500709E+03  0.00000000000E+00 0. -1.
          6    2    1    2  501    0  0.14072851764E+02 -0.18543657717E+02  0.31761664372E+02  0.17744785656E+03  0.17302319520E+03 0.  0.
         24    2    3    3    0    0 -0.57583705311E+02 -0.18845266341E+02  0.44746425598E+01  0.10062712564E+03  0.80217010714E+02 0.  0.
         -6    2    1    2    0  502 -0.14072851764E+02  0.18543657717E+02  0.38108475456E+01  0.17605466953E+03  0.17446722244E+03 0.  0.
        -24    2    5    5    0    0  0.14639211506E+02 -0.47744794833E+02  0.25450534228E+02  0.10049735646E+03  0.83415328426E+02 0.  0.
          5    1    3    3  501    0  0.71656557075E+02  0.30160862341E+00  0.27287021812E+02  0.76820730919E+02  0.47000000000E+01 0. -1.
        -11    1    4    4    0    0  0.16303908973E+02 -0.10222343753E+02 -0.14217032196E+02  0.23925671653E+02  0.00000000000E+00 0.  1.
         12    1    4    4    0    0 -0.73887614284E+02 -0.86229225872E+01  0.18691674755E+02  0.76701453987E+02  0.00000000000E+00 0. -1.
         -5    1    5    5    0  502 -0.28712063270E+02  0.66288452550E+02 -0.21639686683E+02  0.75557313070E+02  0.47000000000E+01 0.  1.
         13    1    6    6    0    0  0.34752967414E+02 -0.48471717687E+01 -0.15036951543E+02  0.38175564566E+02  0.00000000000E+00 0. -1.
        -14    1    6    6    0    0 -0.20113755907E+02 -0.42897623064E+02  0.40487485771E+02  0.62321791898E+02  0.00000000000E+00 0.  1.
<mgrwt>
<rscale>  2 0.17565451E+03</rscale>
<asrwt>0</asrwt>
<pdfrwt beam="1">  1       21 0.29928849E-01 0.17601342E+03</pdfrwt>
<pdfrwt beam="2">  1       21 0.24456155E-01 0.17601342E+03</pdfrwt>
<totfact> 0.16996419E+05</totfact>
</mgrwt>
</event>
<event>
12    1  0.1029207E-001  0.1812749E+03  0.7546771E-02  0.1167226E+00
         21   -1    0    0  503  502  0.00000000000E+00  0.00000000000E+00  0.40223253199E+03  0.40223253199E+03  0.00000000000E+00 0.  1.
         21   -1    0    0  501  503 -0.00000000000E+00 -0.00000000000E+00 -0.90807442793E+02  0.90807442793E+02  0.00000000000E+00 0.  1.
          6    2    1    2  501    0 -0.10861565937E+02  0.39595677055E+02  0.73635833443E+02  0.19566000392E+03  0.17656389753E+03 0.  0.
         24    2    3    3    0    0  0.56432338748E+02  0.19477454270E+02  0.96507102063E+01  0.10053167747E+03  0.80308790845E+02 0.  0.
         -6    2    1    2    0  502  0.10861565937E+02 -0.39595677055E+02  0.23778925575E+03  0.29737997086E+03  0.17379679417E+03 0.  0.
        -24    2    5    5    0    0  0.45323423315E+02  0.25535341707E+02  0.90180967343E+02  0.13233462550E+03  0.81691981606E+02 0.  0.
          5    1    3    3  501    0 -0.67293904685E+02  0.20118222786E+02  0.63985123237E+02  0.95128326441E+02  0.47000000000E+01 0. -1.
        -11    1    4    4    0    0  0.52078203491E+02 -0.18428125616E+02  0.23373912880E+02  0.59983955320E+02  0.00000000000E+00 0.  1.
         12    1    4    4    0    0  0.43541352570E+01  0.37905579885E+02 -0.13723202673E+02  0.40547722154E+02  0.00000000000E+00 0. -1.
         -5    1    5    5    0  502 -0.34461857378E+02 -0.65131018762E+02  0.14760828841E+03  0.16504534536E+03  0.47000000000E+01 0.  1.
         11    1    6    6    0    0  0.41169311273E+02 -0.19333342705E+02  0.68759858790E+02  0.82441546029E+02  0.00000000000E+00 0. -1.
        -12    1    6    6    0    0  0.41541120427E+01  0.44868684411E+02  0.21421108553E+02  0.49893079473E+02  0.00000000000E+00 0.  1.
<mgrwt>
<rscale>  2 0.18059762E+03</rscale>
<asrwt>0</asrwt>
<pdfrwt beam="1">  1       21 0.61881927E-01 0.18127493E+03</pdfrwt>
<pdfrwt beam="2">  1       21 0.13970376E-01 0.18127493E+03</pdfrwt>
<totfact> 0.10867792E+05</totfact>
</mgrwt>
</event>
<event>
12    1  0.1029207E-001  0.2159274E+03  0.7546771E-02  0.1137213E+00
         21   -1    0    0  501  502  0.00000000000E+00  0.00000000000E+00  0.31603843779E+03  0.31603843779E+03  0.00000000000E+00 0.  1.
         21   -1    0    0  502  503 -0.00000000000E+00 -0.00000000000E+00 -0.14780695791E+03  0.14780695791E+03  0.00000000000E+00 0.  1.
         -6    2    1    2    0  503  0.53029392755E+02 -0.11513226250E+03  0.10520530672E+03  0.24019321040E+03  0.17480579909E+03 0.  0.
        -24    2    3    3    0    0 -0.41494592145E+02 -0.19383814663E+02  0.32150503190E+02  0.87021270073E+02  0.66644678268E+02 0.  0.
          6    2    1    2  501    0 -0.53029392755E+02  0.11513226250E+03  0.63026173154E+02  0.22365218530E+03  0.17314862726E+03 0.  0.
         24    2    5    5    0    0 -0.83565882531E+02  0.60870491159E+02 -0.34134855564E+01  0.13247578875E+03  0.82762970618E+02 0.  0.
          5    1    5    5  501    0  0.30536489775E+02  0.54261771341E+02  0.66439658711E+02  0.91176396542E+02  0.47000000000E+01 0. -1.
        -11    1    6    6    0    0 -0.48033608428E+02  0.72340502879E+01 -0.35899243201E+02  0.60401280488E+02  0.00000000000E+00 0.  1.
         12    1    6    6    0    0 -0.35532274103E+02  0.53636440871E+02  0.32485757644E+02  0.72074508267E+02  0.00000000000E+00 0. -1.
         -5    1    3    3    0  503  0.94523984900E+02 -0.95748447836E+02  0.73054803532E+02  0.15317194033E+03  0.47000000000E+01 0.  1.
         13    1    4    4    0    0 -0.38117494419E+02 -0.39374770456E+02  0.37065062579E+02  0.66159918329E+02  0.00000000000E+00 0. -1.
        -14    1    4    4    0    0 -0.33770977259E+01  0.19990955793E+02 -0.49145593891E+01  0.20861351744E+02  0.00000000000E+00 0.  1.
<mgrwt>
<rscale>  2 0.21559173E+03</rscale>
<asrwt>0</asrwt>
<pdfrwt beam="1">  1       21 0.48621298E-01 0.21592735E+03</pdfrwt>
<pdfrwt beam="2">  1       21 0.22739532E-01 0.21592735E+03</pdfrwt>
<totfact> 0.72504817E+04</totfact>
</mgrwt>
</event>
<event>
12    1  0.1029207E-001  0.1821917E+03  0.7546771E-02  0.1165885E+00
         21   -1    0    0  503  502  0.00000000000E+00  0.00000000000E+00  0.52947620356E+03  0.52947620356E+03  0.00000000000E+00 0. -1.
         21   -1    0    0  501  503 -0.00000000000E+00 -0.00000000000E+00 -0.78970604655E+02  0.78970604655E+02  0.00000000000E+00 0.  1.
          6    2    1    2  501    0 -0.54640780139E+02 -0.30606328802E+01  0.86376783369E+02  0.20163023272E+03  0.17377807604E+03 0.  0.
         24    2    3    3    0    0 -0.92917293925E+01 -0.32051897516E+02  0.11107133695E+03  0.14222534399E+03  0.82325853847E+02 0.  0.
         -6    2    1    2    0  502  0.54640780139E+02  0.30606328802E+01  0.36412881554E+03  0.40681657550E+03  0.17295938676E+03 0.  0.
        -24    2    5    5    0    0  0.37736100287E+02 -0.45084356986E+01  0.37474484947E+03  0.38495681392E+03  0.79458839163E+02 0.  0.
          5    1    3    3  501    0 -0.45349050747E+02  0.28991264636E+02 -0.24694553576E+02  0.59404888731E+02  0.47000000000E+01 0. -1.
        -13    1    4    4    0    0 -0.50427587641E+01 -0.15630170328E+02 -0.10489028969E+02  0.19487210399E+02  0.00000000000E+00 0.  1.
         14    1    4    4    0    0 -0.42489706285E+01 -0.16421727188E+02  0.12156036591E+03  0.12273813359E+03  0.00000000000E+00 0. -1.
         -5    1    5    5    0  502  0.16904679852E+02  0.75690685788E+01 -0.10616033930E+02  0.21859761583E+02  0.47000000000E+01 0.  1.
         11    1    6    6    0    0  0.12763701984E+02  0.25083850876E+02  0.29467293207E+03  0.29601393305E+03  0.00000000000E+00 0. -1.
        -12    1    6    6    0    0  0.24972398303E+02 -0.29592286575E+02  0.80071917398E+02  0.88942880871E+02  0.00000000000E+00 0.  1.
<mgrwt>
<rscale>  2 0.18199617E+03</rscale>
<asrwt>0</asrwt>
<pdfrwt beam="1">  1       21 0.81457876E-01 0.18219166E+03</pdfrwt>
<pdfrwt beam="2">  1       21 0.12149324E-01 0.18219166E+03</pdfrwt>
<totfact> 0.76119728E+04</totfact>
</mgrwt>
</event>
<event>
12    1  0.1029207E-001  0.2061298E+03  0.7546771E-02  0.1144921E+00
         21   -1    0    0  503  502  0.00000000000E+00  0.00000000000E+00  0.76753420042E+03  0.76753420042E+03  0.00000000000E+00 0. -1.
         21   -1    0    0  501  503 -0.00000000000E+00 -0.00000000000E+00 -0.60751617375E+02  0.60751617375E+02  0.00000000000E+00 0. -1.
          6    2    1    2  501    0 -0.71886619436E+02 -0.83611852423E+02  0.22527766622E+03  0.30451442352E+03  0.17268578204E+03 0.  0.
         24    2    3    3    0    0 -0.18548404590E+02  0.13957761918E+02  0.32052384401E+02  0.81528113767E+02  0.71278436837E+02 0.  0.
         -6    2    1    2    0  502  0.71886619436E+02  0.83611852423E+02  0.48150491683E+03  0.52377139427E+03  0.17415757408E+03 0.  0.
        -24    2    5    5    0    0  0.11618856579E+03  0.58373721935E+02  0.38257781871E+03  0.41237890609E+03  0.82360795202E+02 0.  0.
          5    1    3    3  501    0 -0.53338214846E+02 -0.97569614340E+02  0.19322528182E+03  0.22298630976E+03  0.47000000000E+01 0. -1.
        -13    1    4    4    0    0  0.27125707261E+02  0.61354608868E+01  0.63060097041E+01  0.28516900832E+02  0.00000000000E+00 0.  1.
         14    1    4    4    0    0 -0.45674111850E+02  0.78223010309E+01  0.25746374697E+02  0.53011212934E+02  0.00000000000E+00 0. -1.
         -5    1    5    5    0  502 -0.44301946355E+02  0.25238130487E+02  0.98927098117E+02  0.11139248818E+03  0.47000000000E+01 0.  1.
         11    1    6    6    0    0  0.37317114346E+02  0.33827398346E+02  0.25822387744E+03  0.26309015714E+03  0.00000000000E+00 0. -1.
        -12    1    6    6    0    0  0.78871451445E+02  0.24546323589E+02  0.12435394127E+03  0.14928874895E+03  0.00000000000E+00 0.  1.
<mgrwt>
<rscale>  2 0.20581858E+03</rscale>
<asrwt>0</asrwt>
<pdfrwt beam="1">  1       21 0.11808218E+00 0.20612979E+03</pdfrwt>
<pdfrwt beam="2">  1       21 0.93464032E-02 0.20612979E+03</pdfrwt>
<totfact> 0.49880950E+04</totfact>
</mgrwt>
</event>
<event>
12    1  0.1029207E-001  0.1976051E+03  0.7546771E-02  0.1152168E+00
         21   -1    0    0  501  502  0.00000000000E+00  0.00000000000E+00  0.32911726892E+03  0.32911726892E+03  0.00000000000E+00 0.  1.
         21   -1    0    0  502  503 -0.00000000000E+00 -0.00000000000E+00 -0.24130632308E+03  0.24130632308E+03  0.00000000000E+00 0. -1.
         -6    2    1    2    0  503 -0.51204595766E+02  0.79035250061E+02 -0.16044343846E+03  0.25312558924E+03  0.17164494051E+03 0.  0.
        -24    2    3    3    0    0 -0.44493698184E+02  0.17816112907E+02 -0.16672546224E+03  0.19104199460E+03  0.80016003923E+02 0.  0.
          6    2    1    2  501    0  0.51204595766E+02 -0.79035250061E+02  0.24825438431E+03  0.31729800276E+03  0.17372190951E+03 0.  0.
         24    2    5    5    0    0  0.83465933059E+02 -0.14005722959E+02  0.12130411706E+03  0.17098295351E+03  0.85777382339E+02 0.  0.
          5    1    5    5  501    0 -0.32261337293E+02 -0.65029527102E+02  0.12695026726E+03  0.14631504924E+03  0.47000000000E+01 0. -1.
        -13    1    6    6    0    0  0.23275249471E+02 -0.11817480868E+02  0.10554488395E+03  0.10872494020E+03  0.00000000000E+00 0.  1.
         14    1    6    6    0    0  0.60190683588E+02 -0.21882420904E+01  0.15759233101E+02  0.62258013317E+02  0.00000000000E+00 0. -1.
         -5    1    3    3    0  503 -0.67108975822E+01  0.61219137154E+02  0.62820237794E+01  0.62083594637E+02  0.47000000000E+01 0.  1.
         13    1    4    4    0    0 -0.62637546727E+01 -0.30723054628E+02 -0.51430271872E+02  0.60234654255E+02  0.00000000000E+00 0. -1.
        -14    1    4    4    0    0 -0.38229943511E+02  0.48539167535E+02 -0.11529519037E+03  0.13080734035E+03  0.00000000000E+00 0.  1.
<mgrwt>
<rscale>  2 0.19714767E+03</rscale>
<asrwt>0</asrwt>
<pdfrwt beam="1">  1       21 0.50633426E-01 0.19760512E+03</pdfrwt>
<pdfrwt beam="2">  1       21 0.37124050E-01 0.19760512E+03</pdfrwt>
<totfact> 0.25900535E+04</totfact>
</mgrwt>
</event>
<event>
12    1  0.1029207E-001  0.1768139E+03  0.7546771E-02  0.1171316E+00
         21   -1    0    0  503  502  0.00000000000E+00  0.00000000000E+00  0.82417027016E+02  0.82417027016E+02  0.00000000000E+00 0.  1.
         21   -1    0    0  501  503 -0.00000000000E+00 -0.00000000000E+00 -0.53199013129E+03  0.53199013129E+03  0.00000000000E+00 0.  1.
          6    2    1    2  501    0 -0.70361742014E+01 -0.26070340482E+02 -0.39045089533E+03  0.42797056383E+03  0.17314078502E+03 0.  0.
         24    2    3    3    0    0  0.12039710776E+02 -0.43092315375E+02 -0.39113849625E+03  0.40196672157E+03  0.81154295773E+02 0.  0.
         -6    2    1    2    0  502  0.70361742014E+01  0.26070340482E+02 -0.59122208947E+02  0.18643659448E+03  0.17473980019E+03 0.  0.
        -24    2    5    5    0    0  0.68397140448E+02 -0.65916198841E+01 -0.19544256255E+02  0.10630872060E+03  0.78727046489E+02 0.  0.
          5    1    3    3  501    0 -0.19075884977E+02  0.17021974892E+02  0.68760092061E+00  0.26003842253E+02  0.47000000000E+01 0. -1.
        -11    1    4    4    0    0 -0.32322045302E+02 -0.25578614910E+02 -0.23897897480E+03  0.24250758865E+03  0.00000000000E+00 0.  1.
         12    1    4    4    0    0  0.44361756078E+02 -0.17513700465E+02 -0.15215952145E+03  0.15945913293E+03  0.00000000000E+00 0. -1.
         -5    1    5    5    0  502 -0.61360966247E+02  0.32661960366E+02 -0.39577952691E+02  0.80127873882E+02  0.47000000000E+01 0.  1.
         13    1    6    6    0    0  0.34845556837E+02 -0.42502688999E+02 -0.57325280551E+01  0.55258965619E+02  0.00000000000E+00 0. -1.
        -14    1    6    6    0    0  0.33551583611E+02  0.35911069115E+02 -0.13811728200E+02  0.51049754981E+02  0.00000000000E+00 0.  1.
<mgrwt>
<rscale>  2 0.17641758E+03</rscale>
<asrwt>0</asrwt>
<pdfrwt beam="1">  1       21 0.12679543E-01 0.17681394E+03</pdfrwt>
<pdfrwt beam="2">  1       21 0.81844636E-01 0.17681394E+03</pdfrwt>
<totfact> 0.69930323E+04</totfact>
</mgrwt>
</event>
<event>
12    1  0.1029207E-001  0.1880431E+03  0.7546771E-02  0.1160668E+00
         21   -1    0    0  503  502  0.00000000000E+00  0.00000000000E+00  0.65379199385E+03  0.65379199385E+03  0.00000000000E+00 0.  1.
         21   -1    0    0  501  503 -0.00000000000E+00 -0.00000000000E+00 -0.73046791569E+02  0.73046791569E+02  0.00000000000E+00 0. -1.
          6    2    1    2  501    0  0.17038820140E+02 -0.65234006830E+02  0.10367450583E+03  0.21472912953E+03  0.17554030554E+03 0.  0.
         24    2    3    3    0    0 -0.40328681965E+02  0.72790086875E+01  0.24757080936E+02  0.93077094321E+02  0.79818831576E+02 0.  0.
         -6    2    1    2    0  502 -0.17038820140E+02  0.65234006830E+02  0.47707069645E+03  0.51210965589E+03  0.17353401168E+03 0.  0.
        -24    2    5    5    0    0  0.42626363648E+02 -0.76290408207E+01  0.21709663481E+03  0.23556389008E+03  0.80524457888E+02 0.  0.
          5    1    3    3  501    0  0.57367502105E+02 -0.72513015518E+02  0.78917424896E+02  0.12165203520E+03  0.47000000000E+01 0. -1.
        -11    1    4    4    0    0 -0.27819518155E+02 -0.32645642868E+02  0.27825069408E+02  0.51126295350E+02  0.00000000000E+00 0.  1.
         12    1    4    4    0    0 -0.12509163811E+02  0.39924651555E+02 -0.30679884717E+01  0.41950798971E+02  0.00000000000E+00 0. -1.
         -5    1    5    5    0  502 -0.59665183787E+02  0.72863047651E+02  0.25997406163E+03  0.27654576582E+03  0.47000000000E+01 0.  1.
         13    1    6    6    0    0 -0.18541395814E+02 -0.21807508929E+02  0.65954898196E+02  0.71898535454E+02  0.00000000000E+00 0. -1.
        -14    1    6    6    0    0  0.61167759461E+02  0.14178468108E+02  0.15114173662E+03  0.16366535462E+03  0.00000000000E+00 0.  1.
<mgrwt>
<rscale>  2 0.18757344E+03</rscale>
<asrwt>0</asrwt>
<pdfrwt beam="1">  1       21 0.10058338E+00 0.18804307E+03</pdfrwt>
<pdfrwt beam="2">  1       21 0.11237968E-01 0.18804307E+03</pdfrwt>
<totfact> 0.53537496E+04</totfact>
</mgrwt>
</event>
<event>
12    1  0.1029207E-001  0.2007168E+03  0.7546771E-02  0.1150280E+00
         21   -1    0    0  503  502  0.00000000000E+00  0.00000000000E+00  0.16118359452E+03  0.16118359452E+03  0.00000000000E+00 0. -1.
         21   -1    0    0  501  503 -0.00000000000E+00 -0.00000000000E+00 -0.57850325092E+03  0.57850325092E+03  0.00000000000E+00 0.  1.
          6    2    1    2  501    0 -0.99920180891E+02  0.91326622062E+01 -0.49136514474E+03  0.53077957662E+03  0.17383844635E+03 0.  0.
         24    2    3    3    0    0 -0.11855778545E+03 -0.18510947074E+02 -0.46554793214E+03  0.48835142672E+03  0.85753339323E+02 0.  0.
         -6    2    1    2    0  502  0.99920180891E+02 -0.91326622062E+01  0.74045488338E+02  0.20890726882E+03  0.16760687502E+03 0.  0.
        -24    2    5    5    0    0  0.19723346457E+02  0.14957105795E+02  0.90975667677E+02  0.12334693836E+03  0.79530935397E+02 0.  0.
          5    1    3    3  501    0  0.18637604563E+02  0.27643609281E+02 -0.25817212594E+02  0.42428149901E+02  0.47000000000E+01 0. -1.
        -11    1    4    4    0    0 -0.55305342414E+02 -0.28615560629E+02 -0.10434613494E+03  0.12151397897E+03  0.00000000000E+00 0.  1.
         12    1    4    4    0    0 -0.63252443040E+02  0.10104613555E+02 -0.36120179721E+03  0.36683744775E+03  0.00000000000E+00 0. -1.
         -5    1    5    5    0  502  0.80196834434E+02 -0.24089768001E+02 -0.16930179338E+02  0.85560330458E+02  0.47000000000E+01 0.  1.
         11    1    6    6    0    0  0.20106586742E+02 -0.30734056066E+02  0.31781354703E+02  0.48568627111E+02  0.00000000000E+00 0. -1.
        -12    1    6    6    0    0 -0.38324028528E+00  0.45691161861E+02  0.59194312974E+02  0.74778311252E+02  0.00000000000E+00 0.  1.
<mgrwt>
<rscale>  2 0.19936009E+03</rscale>
<asrwt>0</asrwt>
<pdfrwt beam="1">  1       21 0.24797476E-01 0.20071685E+03</pdfrwt>
<pdfrwt beam="2">  1       21 0.89000500E-01 0.20071685E+03</pdfrwt>
<totfact> 0.16499361E+04</totfact>
</mgrwt>
</event>
<event>
12    1  0.1029207E-001  0.1756219E+03  0.7546771E-02  0.1172305E+00
         21   -1    0    0  501  502  0.00000000000E+00  0.00000000000E+00  0.44464277661E+03  0.44464277661E+03  0.00000000000E+00 0.  1.
         21   -1    0    0  502  503 -0.00000000000E+00 -0.00000000000E+00 -0.33470632243E+03  0.33470632243E+03  0.00000000000E+00 0.  1.
         -6    2    1    2    0  503  0.13188711422E+02 -0.13827573296E+02 -0.29216200259E+03  0.34088367037E+03  0.17457920000E+03 0.  0.
        -24    2    3    3    0    0 -0.17016237571E+02 -0.54541792967E+02 -0.10755186336E+03  0.14938176403E+03  0.86505194004E+02 0.  0.
          6    2    1    2  501    0 -0.13188711422E+02  0.13827573296E+02  0.40209845677E+03  0.43846542868E+03  0.17379188508E+03 0.  0.
         24    2    5    5    0    0  0.48733053878E+02 -0.31187599923E+02  0.23177953184E+03  0.25167330619E+03  0.79184119214E+02 0.  0.
          5    1    5    5  501    0 -0.61921765300E+02  0.45015173219E+02  0.17031892492E+03  0.18679212249E+03  0.47000000000E+01 0. -1.
        -13    1    6    6    0    0  0.78465601005E+01  0.21355143952E+02  0.22256313660E+02  0.31826941046E+02  0.00000000000E+00 0.  1.
         14    1    6    6    0    0  0.40886493777E+02 -0.52542743875E+02  0.20952321818E+03  0.21984636514E+03  0.00000000000E+00 0. -1.
         -5    1    3    3    0  503  0.30204948992E+02  0.40714219671E+02 -0.18461013923E+03  0.19150190634E+03  0.47000000000E+01 0.  1.
         11    1    4    4    0    0 -0.26873349826E+02 -0.44916587894E+02 -0.11993402987E+03  0.13085812286E+03  0.00000000000E+00 0. -1.
        -12    1    4    4    0    0  0.98571122554E+01 -0.96252050738E+01  0.12382166503E+02  0.18523641166E+02  0.00000000000E+00 0.  1.
<mgrwt>
<rscale>  2 0.17542589E+03</rscale>
<asrwt>0</asrwt>
<pdfrwt beam="1">  1       21 0.68406581E-01 0.17562187E+03</pdfrwt>
<pdfrwt beam="2">  1       21 0.51493280E-01 0.17562187E+03</pdfrwt>
<totfact> 0.70742364E+03</totfact>
</mgrwt>
</event>
<event>
12    1  0.1029207E-001  0.2018140E+03  0.7546771E-02  0.1148626E+00
         21   -1    0    0  503  502  0.00000000000E+00  0.00000000000E+00  0.77923768242E+02  0.77923768242E+02  0.00000000000E+00 0.  1.
         21   -1    0    0  501  503 -0.00000000000E+00 -0.00000000000E+00 -0.90058257946E+03  0.90058257946E+03  0.00000000000E+00 0.  1.
          6    2    1    2  501    0 -0.10446353835E+03 -0.40190799700E+01 -0.73151262765E+03  0.75884097333E+03  0.17262709679E+03 0.  0.
         24    2    3    3    0    0 -0.94510758926E+02  0.45460811094E+02 -0.64522544270E+03  0.65876657238E+03  0.81599976031E+02 0.  0.
         -6    2    1    2    0  502  0.10446353835E+03  0.40190799700E+01 -0.91146183572E+02  0.21966537437E+03  0.17034220285E+03 0.  0.
        -24    2    5    5    0    0  0.15638853776E+01  0.31670364185E+02 -0.71925322278E+02  0.11129349790E+03  0.78787898725E+02 0.  0.
          5    1    3    3  501    0 -0.99527794261E+01 -0.49479891064E+02 -0.86287184949E+02  0.10007440094E+03  0.47000000000E+01 0. -1.
        -11    1    4    4    0    0 -0.59702174468E+02  0.58081759544E+02 -0.29327426021E+03  0.30487314104E+03  0.00000000000E+00 0.  1.
         12    1    4    4    0    0 -0.34808584458E+02 -0.12620948450E+02 -0.35195118249E+03  0.35389343134E+03  0.00000000000E+00 0. -1.
         -5    1    5    5    0  502  0.10289965297E+03 -0.27651284215E+02 -0.19220861294E+02  0.10837187647E+03  0.47000000000E+01 0.  1.
         11    1    6    6    0    0  0.39354582804E+02  0.22687220120E+02 -0.31825348616E+02  0.55464817308E+02  0.00000000000E+00 0. -1.
        -12    1    6    6    0    0 -0.37790697427E+02  0.89831440652E+01 -0.40099973661E+02  0.55828680594E+02  0.00000000000E+00 0.  1.
<mgrwt>
<rscale>  2 0.20132451E+03</rscale>
<asrwt>0</asrwt>
<pdfrwt beam="1">  1       21 0.11988272E-01 0.20181402E+03</pdfrwt>
<pdfrwt beam="2">  1       21 0.13855116E+00 0.20181402E+03</pdfrwt>
<totfact> 0.21478792E+04</totfact>
</mgrwt>
</event>
<event>
12    1  0.1029207E-001  0.2524741E+03  0.7546771E-02  0.1111813E+00
         21   -1    0    0  503  502  0.00000000000E+00  0.00000000000E+00  0.68301376568E+02  0.68301376568E+02  0.00000000000E+00 0.  1.
         21   -1    0    0  501  503 -0.00000000000E+00 -0.00000000000E+00 -0.12079650127E+04  0.12079650127E+04  0.00000000000E+00 0.  1.
          6    2    1    2  501    0  0.18127176299E+03  0.32653615353E+02 -0.87528993544E+03  0.91097510773E+03  0.17267734413E+03 0.  0.
         24    2    3    3    0    0  0.16343756647E+03  0.81809664008E+02 -0.71226294628E+03  0.73970262051E+03  0.80229688317E+02 0.  0.
         -6    2    1    2    0  502 -0.18127176299E+03 -0.32653615353E+02 -0.26437370068E+03  0.36529128153E+03  0.17210042445E+03 0.  0.
        -24    2    5    5    0    0 -0.89924847994E+02  0.44507865304E+02 -0.10585331443E+03  0.16667366944E+03  0.80670685793E+02 0.  0.
          5    1    3    3  501    0  0.17834196516E+02 -0.49156048655E+02 -0.16302698915E+03  0.17127248722E+03  0.47000000000E+01 0. -1.
        -13    1    4    4    0    0  0.13914682137E+03  0.34218619004E+02 -0.57003718627E+03  0.58777133777E+03  0.00000000000E+00 0.  1.
         14    1    4    4    0    0  0.24290745104E+02  0.47591045004E+02 -0.14222576002E+03  0.15193128274E+03  0.00000000000E+00 0. -1.
         -5    1    5    5    0  502 -0.91346914991E+02 -0.77161480657E+02 -0.15852038625E+03  0.19861761209E+03  0.47000000000E+01 0.  1.
         13    1    6    6    0    0  0.81825328035E+01  0.28014253187E+02 -0.26437723346E+02  0.39378997453E+02  0.00000000000E+00 0. -1.
        -14    1    6    6    0    0 -0.98107380798E+02  0.16493612117E+02 -0.79415591084E+02  0.12729467198E+03  0.00000000000E+00 0.  1.
<mgrwt>
<rscale>  2 0.25237549E+03</rscale>
<asrwt>0</asrwt>
<pdfrwt beam="1">  1       21 0.10507906E-01 0.25247411E+03</pdfrwt>
<pdfrwt beam="2">  1       21 0.18584074E+00 0.25247411E+03</pdfrwt>
<totfact> 0.11838727E+04</totfact>
</mgrwt>
</event>
<event>
12    1  0.1029207E-001  0.2897520E+03  0.7546771E-02  0.1090508E+00
         21   -1    0    0  501  502  0.00000000000E+00  0.00000000000E+00  0.44293602336E+03  0.44293602336E+03  0.00000000000E+00 0. -1.
         21   -1    0    0  502  503 -0.00000000000E+00 -0.00000000000E+00 -0.20859087342E+03  0.20859087342E+03  0.00000000000E+00 0. -1.
         -6    2    1    2    0  503 -0.23174552891E+03  0.99042862830E-01  0.18310304010E+02  0.29010296358E+03  0.17354671493E+03 0.  0.
        -24    2    3    3    0    0 -0.19174942558E+03 -0.22749598666E+02 -0.42869767530E+02  0.21337721917E+03  0.80041453269E+02 0.  0.
          6    2    1    2  501    0  0.23174552891E+03 -0.99042862830E-01  0.21603484593E+03  0.36142393320E+03  0.17392586023E+03 0.  0.
         24    2    5    5    0    0  0.16001510805E+03  0.45454971242E+02  0.83227071994E+02  0.20368866037E+03  0.83014068896E+02 0.  0.
          5    1    5    5  501    0  0.71730420856E+02 -0.45554014104E+02  0.13280777393E+03  0.15773527283E+03  0.47000000000E+01 0. -1.
        -13    1    6    6    0    0  0.15383697361E+02 -0.18887934227E+02 -0.99419542523E+00  0.24380332820E+02  0.00000000000E+00 0.  1.
         14    1    6    6    0    0  0.14463141069E+03  0.64342905469E+02  0.84221267419E+02  0.17930832755E+03  0.00000000000E+00 0. -1.
         -5    1    3    3    0  503 -0.39996103326E+02  0.22848641528E+02  0.61180071541E+02  0.76725744406E+02  0.47000000000E+01 0.  1.
         13    1    4    4    0    0 -0.43437637138E+01 -0.19497678257E+02 -0.12321846821E+02  0.23470314222E+02  0.00000000000E+00 0. -1.
        -14    1    4    4    0    0 -0.18740566187E+03 -0.32519204089E+01 -0.30547920710E+02  0.18990690495E+03  0.00000000000E+00 0.  1.
<mgrwt>
<rscale>  2 0.28969510E+03</rscale>
<asrwt>0</asrwt>
<pdfrwt beam="1">  1       21 0.68144004E-01 0.28975197E+03</pdfrwt>
<pdfrwt beam="2">  1       21 0.32090904E-01 0.28975197E+03</pdfrwt>
<totfact> 0.17457409E+04</totfact>
</mgrwt>
</event>
<event>
12    1  0.1029207E-001  0.2799024E+03  0.7546771E-02  0.1096641E+00
         21   -1    0    0  503  502  0.00000000000E+00  0.00000000000E+00  0.67966926388E+03  0.67966926388E+03  0.00000000000E+00 0.  1.
         21   -1    0    0  501  503 -0.00000000000E+00 -0.00000000000E+00 -0.11529807075E+03  0.11529807075E+03  0.00000000000E+00 0.  1.
          6    2    1    2  501    0 -0.58401453649E+02  0.21203961881E+03  0.21824868903E+03  0.34983122013E+03  0.16241263060E+03 0.  0.
         24    2    3    3    0    0 -0.90249682532E+02  0.20752226116E+03  0.19548317122E+03  0.31014400551E+03  0.82250470203E+02 0.  0.
         -6    2    1    2    0  502  0.58401453649E+02 -0.21203961881E+03  0.34612250410E+03  0.44513611450E+03  0.17312955510E+03 0.  0.
        -24    2    5    5    0    0  0.52818023178E+02 -0.15022304998E+03  0.12999084443E+03  0.22021958067E+03  0.79008453692E+02 0.  0.
          5    1    3    3  501    0  0.31848228884E+02  0.45173576551E+01  0.22765517818E+02  0.39687214626E+02  0.47000000000E+01 0. -1.
        -13    1    4    4    0    0 -0.83687635970E+02  0.19160656066E+03  0.13894423363E+03  0.25104221669E+03  0.00000000000E+00 0.  1.
         14    1    4    4    0    0 -0.65620465625E+01  0.15915700497E+02  0.56538937588E+02  0.59101788814E+02  0.00000000000E+00 0. -1.
         -5    1    5    5    0  502  0.55834304708E+01 -0.61816568833E+02  0.21613165967E+03  0.22491653383E+03  0.47000000000E+01 0.  1.
         11    1    6    6    0    0 -0.19794391256E+02 -0.17687417694E+02  0.16937066415E+02  0.31488519950E+02  0.00000000000E+00 0. -1.
        -12    1    6    6    0    0  0.72612414433E+02 -0.13253563229E+03  0.11305377802E+03  0.18873106072E+03  0.00000000000E+00 0.  1.
<mgrwt>
<rscale>  2 0.27826332E+03</rscale>
<asrwt>0</asrwt>
<pdfrwt beam="1">  1       21 0.10456450E+00 0.27990243E+03</pdfrwt>
<pdfrwt beam="2">  1       21 0.17738165E-01 0.27990243E+03</pdfrwt>
<totfact> 0.20320932E+04</totfact>
</mgrwt>
</event>
<event>
12    1  0.1029207E-001  0.2196466E+03  0.7546771E-02  0.1134196E+00
         21   -1    0    0  501  502  0.00000000000E+00  0.00000000000E+00  0.23605362913E+03  0.23605362913E+03  0.00000000000E+00 0. -1.
         21   -1    0    0  502  503 -0.00000000000E+00 -0.00000000000E+00 -0.29735279856E+03  0.29735279856E+03  0.00000000000E+00 0. -1.
         -6    2    1    2    0  503 -0.71262336688E+02  0.11330652404E+03 -0.17999000007E+03  0.28397363144E+03  0.17414917229E+03 0.  0.
        -24    2    3    3    0    0 -0.47384985882E+02  0.17894984211E+02 -0.22207323396E+02  0.97987199483E+02  0.80887321029E+02 0.  0.
          6    2    1    2  501    0  0.71262336688E+02 -0.11330652404E+03  0.11869083064E+03  0.24943279625E+03  0.17381748343E+03 0.  0.
         24    2    5    5    0    0  0.11253011951E+03 -0.56714003973E+02  0.84813039622E+02  0.17148705903E+03  0.79593050446E+02 0.  0.
          5    1    5    5  501    0 -0.41267782825E+02 -0.56592520069E+02  0.33877791022E+02  0.77945737226E+02  0.47000000000E+01 0. -1.
        -13    1    6    6    0    0 -0.68158335285E+00 -0.74250176298E+01 -0.12309262168E+02  0.14391434181E+02  0.00000000000E+00 0.  1.
         14    1    6    6    0    0  0.11321170287E+03 -0.49288986343E+02  0.97122301790E+02  0.15709562485E+03  0.00000000000E+00 0. -1.
         -5    1    3    3    0  503 -0.23877350806E+02  0.95411539832E+02 -0.15778267668E+03  0.18598643196E+03  0.47000000000E+01 0.  1.
         11    1    4    4    0    0 -0.86808877367E+01  0.17405349965E+02 -0.47785523852E+02  0.51592250475E+02  0.00000000000E+00 0. -1.
        -12    1    4    4    0    0 -0.38704098146E+02  0.48963424611E+00  0.25578200455E+02  0.46394949008E+02  0.00000000000E+00 0.  1.
<mgrwt>
<rscale>  2 0.21958084E+03</rscale>
<asrwt>0</asrwt>
<pdfrwt beam="1">  1       21 0.36315943E-01 0.21964659E+03</pdfrwt>
<pdfrwt beam="2">  1       21 0.45746584E-01 0.21964659E+03</pdfrwt>
<totfact> 0.33028226E+04</totfact>
</mgrwt>
</event>
<event>
12    1  0.1029207E-001  0.2115949E+03  0.7546771E-02  0.1140485E+00
         21   -1    0    0  503  502  0.00000000000E+00  0.00000000000E+00  0.82560955110E+02  0.82560955110E+02  0.00000000000E+00 0. -1.
         21   -1    0    0  501  503 -0.00000000000E+00 -0.00000000000E+00 -0.54046945918E+03  0.54046945918E+03  0.00000000000E+00 0. -1.
          6    2    1    2  501    0 -0.31299570747E+02  0.11870807320E+03 -0.21934637503E+03  0.30415066743E+03  0.17124113550E+03 0.  0.
         24    2    3    3    0    0  0.15586968171E+01  0.14072216826E+03 -0.13939894031E+03  0.21483119337E+03  0.83157795235E+02 0.  0.
         -6    2    1    2    0  502  0.31299570747E+02 -0.11870807320E+03 -0.23856212904E+03  0.31887974686E+03  0.17234016878E+03 0.  0.
        -24    2    5    5    0    0 -0.10263809549E+02 -0.77935459152E+02 -0.53341175911E+02  0.12466643085E+03  0.80728906557E+02 0.  0.
          5    1    3    3  501    0 -0.32858267564E+02 -0.22014095058E+02 -0.79947434720E+02  0.89319474063E+02  0.47000000000E+01 0. -1.
        -11    1    4    4    0    0 -0.25696632277E+02  0.66115943506E+01 -0.20234435426E+02  0.33368585035E+02  0.00000000000E+00 0.  1.
         12    1    4    4    0    0  0.27255329094E+02  0.13411057391E+03 -0.11916450489E+03  0.18146260833E+03  0.00000000000E+00 0. -1.
         -5    1    5    5    0  502  0.41563380297E+02 -0.40772614047E+02 -0.18522095313E+03  0.19421331601E+03  0.47000000000E+01 0.  1.
         11    1    6    6    0    0  0.47832927703E+01  0.86601509509E+01  0.11702031347E+02  0.15323695438E+02  0.00000000000E+00 0. -1.
        -12    1    6    6    0    0 -0.15047102320E+02 -0.86595610103E+02 -0.65043207258E+02  0.10934273541E+03  0.00000000000E+00 0.  1.
<mgrwt>
<rscale>  2 0.21137100E+03</rscale>
<asrwt>0</asrwt>
<pdfrwt beam="1">  1       21 0.12701685E-01 0.21159490E+03</pdfrwt>
<pdfrwt beam="2">  1       21 0.83149149E-01 0.21159490E+03</pdfrwt>
<totfact> 0.66195176E+04</totfact>
</mgrwt>
</event>
<event>
12    1  0.1029207E-001  0.2090302E+03  0.7546771E-02  0.1142750E+00
         21   -1    0    0  501  502  0.00000000000E+00  0.00000000000E+00  0.10195535433E+03  0.10195535433E+03  0.00000000000E+00 0.  1.
         21   -1    0    0  502  503 -0.00000000000E+00 -0.00000000000E+00 -0.95830525763E+03  0.95830525763E+03  0.00000000000E+00 0. -1.
         -6    2    1    2    0  503 -0.98560673742E+01 -0.11413872629E+03 -0.82295383989E+03  0.84857946222E+03  0.17236383093E+03 0.  0.
        -24    2    3    3    0    0 -0.44790370889E+01 -0.95540872950E+02 -0.81869108233E+03  0.82820659533E+03  0.80764819541E+02 0.  0.
          6    2    1    2  501    0  0.98560673742E+01  0.11413872629E+03 -0.33396063405E+02  0.21168114974E+03  0.17483941547E+03 0.  0.
         24    2    5    5    0    0 -0.27289924233E+02  0.95613594613E+02  0.35201260503E+02  0.13136497426E+03  0.78300244457E+02 0.  0.
          5    1    5    5  501    0  0.37145991607E+02  0.18525131677E+02 -0.68597323908E+02  0.80316175478E+02  0.47000000000E+01 0. -1.
        -11    1    6    6    0    0 -0.10213754716E+02  0.69239279624E+01  0.39061241084E+02  0.40963912397E+02  0.00000000000E+00 0.  1.
         12    1    6    6    0    0 -0.17076169517E+02  0.88689666651E+02 -0.38599805812E+01  0.90401061864E+02  0.00000000000E+00 0. -1.
         -5    1    3    3    0  503 -0.53770302854E+01 -0.18597853340E+02 -0.42627575573E+01  0.20372866895E+02  0.47000000000E+01 0.  1.
         11    1    4    4    0    0 -0.15131193273E+02 -0.10062890494E+03 -0.55502782417E+03  0.56427919962E+03  0.00000000000E+00 0. -1.
        -12    1    4    4    0    0  0.10652156184E+02  0.50880319884E+01 -0.26366325816E+03  0.26392739571E+03  0.00000000000E+00 0.  1.
<mgrwt>
<rscale>  2 0.20851169E+03</rscale>
<asrwt>0</asrwt>
<pdfrwt beam="1">  1       21 0.15685439E-01 0.20903017E+03</pdfrwt>
<pdfrwt beam="2">  1       21 0.14743158E+00 0.20903017E+03</pdfrwt>
<totfact> 0.11174466E+04</totfact>
</mgrwt>
</event>
<event>
12    1  0.1029207E-001  0.1802403E+03  0.7546771E-02  0.1168481E+00
         21   -1    0    0  501  502  0.00000000000E+00  0.00000000000E+00  0.13843698684E+02  0.13843698684E+02  0.00000000000E+00 0.  1.
         21   -1    0    0  502  503 -0.00000000000E+00 -0.00000000000E+00 -0.25035655911E+04  0.25035655911E+04  0.00000000000E+00 0. -1.
         -6    2    1    2    0  503 -0.15530371831E+02  0.49173631961E+02 -0.15932305889E+04  0.16029787355E+04  0.16881314645E+03 0.  0.
        -24    2    3    3    0    0 -0.71732072464E+02  0.26102462976E+02 -0.11863708444E+04  0.11915812978E+04  0.81014690747E+02 0.  0.
          6    2    1    2  501    0  0.15530371831E+02 -0.49173631961E+02 -0.89649130352E+03  0.91443055432E+03  0.17270594334E+03 0.  0.
         24    2    5    5    0    0  0.58156869067E+02 -0.10762686732E+02 -0.33604932792E+03  0.35103928975E+03  0.82470451133E+02 0.  0.
          5    1    5    5  501    0 -0.42626497236E+02 -0.38410945230E+02 -0.56044197560E+03  0.56339126457E+03  0.47000000000E+01 0. -1.
        -11    1    6    6    0    0 -0.59860140410E+01  0.18670356077E+02 -0.23421624693E+02  0.30544836935E+02  0.00000000000E+00 0.  1.
         12    1    6    6    0    0  0.64142883108E+02 -0.29433042809E+02 -0.31262770322E+03  0.32049445282E+03  0.00000000000E+00 0. -1.
         -5    1    3    3    0  503  0.56201700633E+02  0.23071168985E+02 -0.40685974448E+03  0.41139743761E+03  0.47000000000E+01 0.  1.
         11    1    4    4    0    0 -0.18467698414E+02  0.48983941023E+02 -0.64269921950E+03  0.64482770498E+03  0.00000000000E+00 0. -1.
        -12    1    4    4    0    0 -0.53264374049E+02 -0.22881478047E+02 -0.54367162491E+03  0.54675359286E+03  0.00000000000E+00 0.  1.
<mgrwt>
<rscale>  2 0.17930139E+03</rscale>
<asrwt>0</asrwt>
<pdfrwt beam="1">  1       21 0.21298016E-02 0.18024034E+03</pdfrwt>
<pdfrwt beam="2">  1       21 0.38516361E+00 0.18024034E+03</pdfrwt>
<totfact> 0.12142096E+04</totfact>
</mgrwt>
</event>
<event>
12    1  0.1029207E-001  0.2829416E+03  0.7546771E-02  0.1094145E+00
         21   -1    0    0  501  502  0.00000000000E+00  0.00000000000E+00  0.34309368032E+03  0.34309368032E+03  0.00000000000E+00 0. -1.
         21   -1    0    0  502  503 -0.00000000000E+00 -0.00000000000E+00 -0.25890958391E+03  0.25890958391E+03  0.00000000000E+00 0.  1.
         -6    2    1    2    0  503 -0.21307650398E+02 -0.22292056119E+03 -0.53125562237E+02  0.28750386486E+03  0.17230366909E+03 0.  0.
        -24    2    3    3    0    0 -0.68876872103E+02 -0.17662558377E+03 -0.54749965113E+01  0.20565814291E+03  0.79527830380E+02 0.  0.
          6    2    1    2  501    0  0.21307650398E+02  0.22292056119E+03  0.13730965865E+03  0.31449939937E+03  0.17294027085E+03 0.  0.
         24    2    5    5    0    0  0.26658045116E+02  0.37705941190E+02  0.96303475908E+01  0.89427902605E+02  0.75975106444E+02 0.  0.
          5    1    5    5  501    0 -0.53503947181E+01  0.18521462000E+03  0.12767931106E+03  0.22507149677E+03  0.47000000000E+01 0. -1.
        -11    1    6    6    0    0 -0.16334866274E+02  0.21425805744E+02 -0.21022514441E+02  0.34173661223E+02  0.00000000000E+00 0.  1.
         12    1    6    6    0    0  0.42992911390E+02  0.16280135446E+02  0.30652862032E+02  0.55254241382E+02  0.00000000000E+00 0. -1.
         -5    1    3    3    0  503  0.47569221706E+02 -0.46294977423E+02 -0.47650565726E+02  0.81845721955E+02  0.47000000000E+01 0.  1.
         13    1    4    4    0    0 -0.13410918721E+02 -0.11739981397E+02 -0.24889748507E+02  0.30613387347E+02  0.00000000000E+00 0. -1.
        -14    1    4    4    0    0 -0.55465953382E+02 -0.16488560237E+03  0.19414751995E+02  0.17504475556E+03  0.00000000000E+00 0.  1.
<mgrwt>
<rscale>  2 0.28284435E+03</rscale>
<asrwt>0</asrwt>
<pdfrwt beam="1">  1       21 0.52783643E-01 0.28294157E+03</pdfrwt>
<pdfrwt beam="2">  1       21 0.39832243E-01 0.28294157E+03</pdfrwt>
<totfact> 0.19733925E+04</totfact>
</mgrwt>
</event>
<event>
12    1  0.1029207E-001  0.1979136E+03  0.7546771E-02  0.1155700E+00
         21   -1    0    0  501  502  0.00000000000E+00  0.00000000000E+00  0.17421752066E+03  0.17421752066E+03  0.00000000000E+00 0.  1.
         21   -1    0    0  502  503 -0.00000000000E+00 -0.00000000000E+00 -0.83225250095E+03  0.83225250095E+03  0.00000000000E+00 0.  1.
         -6    2    1    2    0  503 -0.33030314366E+02 -0.36116127872E+02 -0.76206542871E+03  0.78288080484E+03  0.17252031938E+03 0.  0.
        -24    2    3    3    0    0 -0.44707757684E+02 -0.68020598835E+02 -0.32225732766E+03  0.34173738860E+03  0.79429667448E+02 0.  0.
          6    2    1    2  501    0  0.33030314366E+02  0.36116127872E+02  0.10403044842E+03  0.22358921677E+03  0.19176659588E+03 0.  0.
         24    2    5    5    0    0  0.95335388104E+02  0.60667891709E+01  0.47291507441E+02  0.13399969509E+03  0.81202151774E+02 0.  0.
          5    1    5    5  501    0 -0.62305073738E+02  0.30049338702E+02  0.56738940982E+02  0.89589521674E+02  0.47000000000E+01 0. -1.
        -13    1    6    6    0    0  0.55921023766E+01 -0.20815121268E+02  0.32733846122E+02  0.39192417179E+02  0.00000000000E+00 0.  1.
         14    1    6    6    0    0  0.89743285728E+02  0.26881910439E+02  0.14557661319E+02  0.94807277912E+02  0.00000000000E+00 0. -1.
         -5    1    3    3    0  503  0.11677443318E+02  0.31904470963E+02 -0.43980810105E+03  0.44114341625E+03  0.47000000000E+01 0.  1.
         13    1    4    4    0    0 -0.63078741699E+02 -0.40327906232E+02 -0.16778764749E+03  0.18373340014E+03  0.00000000000E+00 0. -1.
        -14    1    4    4    0    0  0.18370984015E+02 -0.27692692603E+02 -0.15446968017E+03  0.15800398846E+03  0.00000000000E+00 0.  1.
<mgrwt>
<rscale>  2 0.19309409E+03</rscale>
<asrwt>0</asrwt>
<pdfrwt beam="1">  1       21 0.26802695E-01 0.19791363E+03</pdfrwt>
<pdfrwt beam="2">  1       21 0.12803885E+00 0.19791363E+03</pdfrwt>
<totfact> 0.59283268E+03</totfact>
</mgrwt>
</event>
<event>
12    1  0.1029207E-001  0.1921477E+03  0.7546771E-02  0.1157556E+00
         21   -1    0    0  503  502  0.00000000000E+00  0.00000000000E+00  0.44886615297E+02  0.44886615297E+02  0.00000000000E+00 0. -1.
         21   -1    0    0  501  503 -0.00000000000E+00 -0.00000000000E+00 -0.95726751154E+03  0.95726751154E+03  0.00000000000E+00 0. -1.
          6    2    1    2  501    0  0.42264405755E+02  0.68443648850E+02 -0.66168982854E+03  0.68902405874E+03  0.17449902940E+03 0.  0.
         24    2    3    3    0    0  0.82803141527E+01  0.77001613345E+02 -0.63486323533E+03  0.64464035293E+03  0.80697242740E+02 0.  0.
         -6    2    1    2    0  502 -0.42264405755E+02 -0.68443648850E+02 -0.25069106770E+03  0.31313006809E+03  0.16950992614E+03 0.  0.
        -24    2    5    5    0    0 -0.93049504250E+02 -0.46304603053E+02 -0.18047606748E+03  0.22356724192E+03  0.81291907464E+02 0.  0.
          5    1    3    3  501    0  0.33984091602E+02 -0.85579644942E+01 -0.26826593212E+02  0.44383705813E+02  0.47000000000E+01 0. -1.
        -13    1    4    4    0    0 -0.25957482774E+02  0.76439283360E+01 -0.28745208085E+03  0.28872291100E+03  0.00000000000E+00 0.  1.
         14    1    4    4    0    0  0.34237796927E+02  0.69357685009E+02 -0.34741115448E+03  0.35591744193E+03  0.00000000000E+00 0. -1.
         -5    1    5    5    0  502  0.50785098495E+02 -0.22139045797E+02 -0.70215000211E+02  0.89562826176E+02  0.47000000000E+01 0.  1.
         11    1    6    6    0    0 -0.54373867586E+02  0.10245345890E+01 -0.14017532092E+03  0.15035520523E+03  0.00000000000E+00 0. -1.
        -12    1    6    6    0    0 -0.38675636663E+02 -0.47329137642E+02 -0.40300746569E+02  0.73212036683E+02  0.00000000000E+00 0.  1.
<mgrwt>
<rscale>  2 0.19100775E+03</rscale>
<asrwt>0</asrwt>
<pdfrwt beam="1">  1       21 0.69056327E-02 0.19214766E+03</pdfrwt>
<pdfrwt beam="2">  1       21 0.14727193E+00 0.19214766E+03</pdfrwt>
<totfact> 0.48586299E+04</totfact>
</mgrwt>
</event>
<event>
12    1  0.1029207E-001  0.1984406E+03  0.7546771E-02  0.1151381E+00
         21   -1    0    0  503  502  0.00000000000E+00  0.00000000000E+00  0.22741328355E+03  0.22741328355E+03  0.00000000000E+00 0.  1.
         21   -1    0    0  501  503 -0.00000000000E+00 -0.00000000000E+00 -0.17355337120E+03  0.17355337120E+03  0.00000000000E+00 0. -1.
          6    2    1    2  501    0  0.79874585229E+01  0.87158582141E+02  0.46837825932E+02  0.20389326619E+03  0.17809622153E+03 0.  0.
         24    2    3    3    0    0  0.47826068073E+02 -0.10214051174E+02  0.14251766598E+02  0.93654952553E+02  0.78590569777E+02 0.  0.
         -6    2    1    2    0  502 -0.79874585229E+01 -0.87158582141E+02  0.70220864265E+01  0.19707338857E+03  0.17643183627E+03 0.  0.
        -24    2    5    5    0    0 -0.24263082682E+02 -0.10569515356E+03 -0.42332873973E+02  0.14169737807E+03  0.80783117459E+02 0.  0.
          5    1    3    3  501    0 -0.39838609550E+02  0.97372633315E+02  0.32586059334E+02  0.11023831363E+03  0.47000000000E+01 0. -1.
        -11    1    4    4    0    0  0.18257545319E+02 -0.16551261801E+02  0.44509808746E+02  0.50876372737E+02  0.00000000000E+00 0.  1.
         12    1    4    4    0    0  0.29568522754E+02  0.63372106269E+01 -0.30258042148E+02  0.42778579815E+02  0.00000000000E+00 0. -1.
         -5    1    5    5    0  502  0.16275624159E+02  0.18536571422E+02  0.49354960399E+02  0.55376010491E+02  0.47000000000E+01 0.  1.
         11    1    6    6    0    0  0.28751848238E+02 -0.22319191401E+02 -0.10203891945E+02  0.37801249883E+02  0.00000000000E+00 0. -1.
        -12    1    6    6    0    0 -0.53014930921E+02 -0.83375962162E+02 -0.32128982027E+02  0.10389612819E+03  0.00000000000E+00 0.  1.
<mgrwt>
<rscale>  2 0.19806647E+03</rscale>
<asrwt>0</asrwt>
<pdfrwt beam="1">  1       21 0.34986659E-01 0.19844063E+03</pdfrwt>
<pdfrwt beam="2">  1       21 0.26700518E-01 0.19844063E+03</pdfrwt>
<totfact> 0.10491733E+05</totfact>
</mgrwt>
</event>
<event>
12    1  0.1029207E-001  0.1945205E+03  0.7546771E-02  0.1154579E+00
         21   -1    0    0  501  502  0.00000000000E+00  0.00000000000E+00  0.75633081846E+03  0.75633081846E+03  0.00000000000E+00 0. -1.
         21   -1    0    0  502  503 -0.00000000000E+00 -0.00000000000E+00 -0.77034696824E+02  0.77034696824E+02  0.00000000000E+00 0. -1.
         -6    2    1    2    0  503 -0.50781475154E+02 -0.71843138421E+02  0.91881869173E+02  0.21458142834E+03  0.17280832372E+03 0.  0.
        -24    2    3    3    0    0 -0.42722750342E+00  0.76446471067E+01  0.90185998031E+02  0.12035391493E+03  0.79327973909E+02 0.  0.
          6    2    1    2  501    0  0.50781475154E+02  0.71843138421E+02  0.58741425246E+03  0.61878408694E+03  0.17348788864E+03 0.  0.
         24    2    5    5    0    0  0.21947345503E+02  0.96952034767E+02  0.55210959521E+03  0.56653112021E+03  0.79064037532E+02 0.  0.
          5    1    5    5  501    0  0.28834129651E+02 -0.25108896346E+02  0.35304657253E+02  0.52252966731E+02  0.47000000000E+01 0. -1.
        -11    1    6    6    0    0 -0.18752852612E+02  0.34668137478E+02  0.87052008315E+02  0.95559412875E+02  0.00000000000E+00 0.  1.
         12    1    6    6    0    0  0.40700198115E+02  0.62283897289E+02  0.46505758689E+03  0.47097170734E+03  0.00000000000E+00 0. -1.
         -5    1    3    3    0  503 -0.50354247651E+02 -0.79487785528E+02  0.16958711423E+01  0.94227513410E+02  0.47000000000E+01 0.  1.
         11    1    4    4    0    0 -0.23221164255E+02  0.15263360174E+02  0.80699646531E+00  0.27800069721E+02  0.00000000000E+00 0. -1.
        -12    1    4    4    0    0  0.22793936752E+02 -0.76187130671E+01  0.89379001565E+02  0.92553845205E+02  0.00000000000E+00 0.  1.
<mgrwt>
<rscale>  2 0.19436891E+03</rscale>
<asrwt>0</asrwt>
<pdfrwt beam="1">  1       21 0.11635858E+00 0.19452054E+03</pdfrwt>
<pdfrwt beam="2">  1       21 0.11851492E-01 0.19452054E+03</pdfrwt>
<totfact> 0.34148422E+04</totfact>
</mgrwt>
</event>
<event>
12    1  0.1029207E-001  0.2505111E+03  0.7546771E-02  0.1113230E+00
         21   -1    0    0  501  502  0.00000000000E+00  0.00000000000E+00  0.89365483410E+03  0.89365483410E+03  0.00000000000E+00 0. -1.
         21   -1    0    0  502  503 -0.00000000000E+00 -0.00000000000E+00 -0.18441098947E+03  0.18441098947E+03  0.00000000000E+00 0.  1.
         -6    2    1    2    0  503 -0.13691567370E+03 -0.11845354571E+03 -0.69931638761E+02  0.26008891156E+03  0.17314347699E+03 0.  0.
        -24    2    3    3    0    0 -0.27625948658E+02 -0.47026827528E+02 -0.84048393763E+02  0.12868345947E+03  0.80750137462E+02 0.  0.
          6    2    1    2  501    0  0.13691567370E+03  0.11845354571E+03  0.77917548339E+03  0.81797691201E+03  0.17086442130E+03 0.  0.
         24    2    5    5    0    0  0.96702920474E+02  0.15022227917E+03  0.62132601154E+03  0.65195021623E+03  0.84112328690E+02 0.  0.
          5    1    5    5  501    0  0.40212753223E+02 -0.31768733466E+02  0.15784947184E+03  0.16602669577E+03  0.47000000000E+01 0. -1.
        -11    1    6    6    0    0  0.48766050164E+02  0.39626008611E+02  0.11070411860E+03  0.12729395148E+03  0.00000000000E+00 0.  1.
         12    1    6    6    0    0  0.47936870310E+02  0.11059627056E+03  0.51062189294E+03  0.52465626475E+03  0.00000000000E+00 0. -1.
         -5    1    3    3    0  503 -0.10928972504E+03 -0.71426718177E+02  0.14116755002E+02  0.13140545210E+03  0.47000000000E+01 0.  1.
         11    1    4    4    0    0  0.14833113595E+02  0.81889827343E+01  0.29907068071E+01  0.17205377774E+02  0.00000000000E+00 0. -1.
        -12    1    4    4    0    0 -0.42459062253E+02 -0.55215810262E+02 -0.87039100570E+02  0.11147808170E+03  0.00000000000E+00 0.  1.
<mgrwt>
<rscale>  2 0.25011773E+03</rscale>
<asrwt>0</asrwt>
<pdfrwt beam="1">  1       21 0.13748536E+00 0.25051109E+03</pdfrwt>
<pdfrwt beam="2">  1       21 0.28370922E-01 0.25051109E+03</pdfrwt>
<totfact> 0.42619025E+03</totfact>
</mgrwt>
</event>
<event>
12    1  0.1029207E-001  0.2334216E+03  0.7546771E-02  0.1124256E+00
         21   -1    0    0  501  502  0.00000000000E+00  0.00000000000E+00  0.44811377999E+03  0.44811377999E+03  0.00000000000E+00 0. -1.
         21   -1    0    0  502  503 -0.00000000000E+00 -0.00000000000E+00 -0.15461324830E+03  0.15461324830E+03  0.00000000000E+00 0.  1.
         -6    2    1    2    0  503 -0.13995446061E+03 -0.69931949739E+02  0.74575323799E+01  0.23353027143E+03  0.17321386851E+03 0.  0.
        -24    2    3    3    0    0 -0.40484878066E+02  0.27792872378E+02  0.13369274159E+02  0.93882939191E+02  0.78891062058E+02 0.  0.
          6    2    1    2  501    0  0.13995446061E+03  0.69931949739E+02  0.28604299930E+03  0.36919675686E+03  0.17322793998E+03 0.  0.
         24    2    5    5    0    0  0.14776913628E+03  0.85876521207E+02  0.18459251124E+03  0.26609685365E+03  0.86733187327E+02 0.  0.
          5    1    5    5  501    0 -0.78146756685E+01 -0.15944571467E+02  0.10145048806E+03  0.10309990321E+03  0.47000000000E+01 0. -1.
        -13    1    6    6    0    0  0.98699597359E+02  0.21708855387E+02  0.14336890888E+03  0.17540675288E+03  0.00000000000E+00 0.  1.
         14    1    6    6    0    0  0.49069538921E+02  0.64167665820E+02  0.41223602364E+02  0.90690100775E+02  0.00000000000E+00 0. -1.
         -5    1    3    3    0  503 -0.99469582545E+02 -0.97724822117E+02 -0.59117417793E+01  0.13964733224E+03  0.47000000000E+01 0.  1.
         11    1    4    4    0    0 -0.21810184017E+02 -0.24080112931E+02  0.20311123315E+02  0.38315502032E+02  0.00000000000E+00 0. -1.
        -12    1    4    4    0    0 -0.18674694048E+02  0.51872985309E+02 -0.69418491560E+01  0.55567437159E+02  0.00000000000E+00 0.  1.
<mgrwt>
<rscale>  2 0.23341900E+03</rscale>
<asrwt>0</asrwt>
<pdfrwt beam="1">  1       21 0.68940581E-01 0.23342161E+03</pdfrwt>
<pdfrwt beam="2">  1       21 0.23786654E-01 0.23342161E+03</pdfrwt>
<totfact> 0.31239440E+04</totfact>
</mgrwt>
</event>
<event>
12    1  0.1029207E-001  0.1843733E+03  0.7546771E-02  0.1166276E+00
         21   -1    0    0  503  502  0.00000000000E+00  0.00000000000E+00  0.25993556545E+03  0.25993556545E+03  0.00000000000E+00 0. -1.
         21   -1    0    0  501  503 -0.00000000000E+00 -0.00000000000E+00 -0.31911853137E+03  0.31911853137E+03  0.00000000000E+00 0. -1.
          6    2    1    2  501    0  0.68625072778E+01  0.18237286810E+02 -0.25608113312E+03  0.30930902882E+03  0.17237991743E+03 0.  0.
         24    2    3    3    0    0  0.19210649539E+02  0.51154132420E+02 -0.25569457635E+03  0.27383742372E+03  0.81372132446E+02 0.  0.
         -6    2    1    2    0  502 -0.68625072778E+01 -0.18237286810E+02  0.19689816721E+03  0.26974506800E+03  0.18334072331E+03 0.  0.
        -24    2    5    5    0    0  0.63401690225E+02 -0.42316119774E+01  0.15780189591E+03  0.18799040570E+03  0.80007958479E+02 0.  0.
          5    1    3    3  501    0 -0.12348142262E+02 -0.32916845610E+02 -0.38655677464E+00  0.35471605100E+02  0.47000000000E+01 0. -1.
        -11    1    4    4    0    0  0.17814839510E+02  0.10705068064E+02 -0.70899976451E+01  0.21959850993E+02  0.00000000000E+00 0.  1.
         12    1    4    4    0    0  0.13958100290E+01  0.40449064356E+02 -0.24860457870E+03  0.25187757273E+03  0.00000000000E+00 0. -1.
         -5    1    5    5    0  502 -0.70264197503E+02 -0.14005674833E+02  0.39096271295E+02  0.81754662298E+02  0.47000000000E+01 0.  1.
         11    1    6    6    0    0 -0.97767508862E+00 -0.31807332052E+02  0.42670264291E+02  0.53229819420E+02  0.00000000000E+00 0. -1.
        -12    1    6    6    0    0  0.64379365314E+02  0.27575720075E+02  0.11513163162E+03  0.13476058628E+03  0.00000000000E+00 0.  1.
<mgrwt>
<rscale>  2 0.18158688E+03</rscale>
<asrwt>0</asrwt>
<pdfrwt beam="1">  1       21 0.39990088E-01 0.18437330E+03</pdfrwt>
<pdfrwt beam="2">  1       21 0.49095158E-01 0.18437330E+03</pdfrwt>
<totfact> 0.23966042E+04</totfact>
</mgrwt>
</event>
<event>
12    1  0.1029207E-001  0.2087586E+03  0.7546771E-02  0.1142624E+00
         21   -1    0    0  501  502  0.00000000000E+00  0.00000000000E+00  0.18121800185E+04  0.18121800185E+04  0.00000000000E+00 0.  1.
         21   -1    0    0  502  503 -0.00000000000E+00 -0.00000000000E+00 -0.67749677999E+02  0.67749677999E+02  0.00000000000E+00 0.  1.
         -6    2    1    2    0  503 -0.11491969843E+03 -0.16506114148E+02  0.11667260184E+03  0.23883999934E+03  0.17306952467E+03 0.  0.
        -24    2    3    3    0    0  0.92793074318E+01  0.63195721721E+01  0.58407888289E+02  0.99688025366E+02  0.80001115293E+02 0.  0.
          6    2    1    2  501    0  0.11491969843E+03  0.16506114148E+02  0.16277577386E+04  0.16410896971E+04  0.17349682844E+03 0.  0.
         24    2    5    5    0    0  0.51252330248E+02  0.28091743954E+02  0.40233977744E+03  0.41395521788E+03  0.77882465665E+02 0.  0.
          5    1    5    5  501    0  0.63667368187E+02 -0.11585629806E+02  0.12254179612E+04  0.12271344793E+04  0.47000000000E+01 0. -1.
        -11    1    6    6    0    0  0.26427554478E+02  0.25058333824E+02  0.37552842946E+03  0.37729025572E+03  0.00000000000E+00 0.  1.
         12    1    6    6    0    0  0.24824775770E+02  0.30334101300E+01  0.26811347986E+02  0.36664962155E+02  0.00000000000E+00 0. -1.
         -5    1    3    3    0  503 -0.12419900587E+03 -0.22825686320E+02  0.58264713552E+02  0.13915197397E+03  0.47000000000E+01 0.  1.
         13    1    4    4    0    0 -0.68504004552E+01  0.38215337761E+01  0.75586111582E+02  0.75992054656E+02  0.00000000000E+00 0. -1.
        -14    1    4    4    0    0  0.16129707887E+02  0.24980383960E+01 -0.17178223293E+02  0.23695970709E+02  0.00000000000E+00 0.  1.
<mgrwt>
<rscale>  2 0.20866976E+03</rscale>
<asrwt>0</asrwt>
<pdfrwt beam="1">  1       21 0.27879689E+00 0.20875856E+03</pdfrwt>
<pdfrwt beam="2">  1       21 0.10423029E-01 0.20875856E+03</pdfrwt>
<totfact> 0.33490256E+03</totfact>
</mgrwt>
</event>
<event>
12    1  0.1029207E-001  0.1980436E+03  0.7546771E-02  0.1151563E+00
         21   -1    0    0  501  502  0.00000000000E+00  0.00000000000E+00  0.11698657612E+04  0.11698657612E+04  0.00000000000E+00 0.  1.
         21   -1    0    0  502  503 -0.00000000000E+00 -0.00000000000E+00 -0.34814691180E+02  0.34814691180E+02  0.00000000000E+00 0.  1.
         -6    2    1    2    0  503  0.16078423661E+02  0.94204866342E+02  0.44704915115E+03  0.48895215263E+03  0.17345948075E+03 0.  0.
        -24    2    3    3    0    0  0.44253126861E+02  0.95130996122E+01  0.12836465974E+03  0.15797117988E+03  0.80178360561E+02 0.  0.
          6    2    1    2  501    0 -0.16078423661E+02 -0.94204866342E+02  0.68800191887E+03  0.71572829976E+03  0.17258993641E+03 0.  0.
         24    2    5    5    0    0 -0.57888987953E+02 -0.46950708117E+02  0.24671439341E+03  0.26992806548E+03  0.80235059028E+02 0.  0.
          5    1    5    5  501    0  0.41810564292E+02 -0.47254158225E+02  0.44128752546E+03  0.44580023428E+03  0.47000000000E+01 0. -1.
        -13    1    6    6    0    0 -0.10052662149E+02 -0.57481332882E+02  0.10702014049E+03  0.12189532443E+03  0.00000000000E+00 0.  1.
         14    1    6    6    0    0 -0.47836325804E+02  0.10530624765E+02  0.13969425292E+03  0.14803274105E+03  0.00000000000E+00 0. -1.
         -5    1    3    3    0  503 -0.28174703201E+02  0.84691766729E+02  0.31868449141E+03  0.33098097275E+03  0.47000000000E+01 0.  1.
         13    1    4    4    0    0  0.51667819364E+01 -0.30268010883E+02  0.21677673378E+02  0.37586828031E+02  0.00000000000E+00 0. -1.
        -14    1    4    4    0    0  0.39086344925E+02  0.39781110495E+02  0.10668698636E+03  0.12038435185E+03  0.00000000000E+00 0.  1.
<mgrwt>
<rscale>  2 0.19785303E+03</rscale>
<asrwt>0</asrwt>
<pdfrwt beam="1">  1       21 0.17997932E+00 0.19804359E+03</pdfrwt>
<pdfrwt beam="2">  1       21 0.53561072E-02 0.19804359E+03</pdfrwt>
<totfact> 0.43413093E+04</totfact>
</mgrwt>
</event>
<event>
12    1  0.1029207E-001  0.1877486E+03  0.7546771E-02  0.1160646E+00
         21   -1    0    0  503  502  0.00000000000E+00  0.00000000000E+00  0.15344580676E+03  0.15344580676E+03  0.00000000000E+00 0.  1.
         21   -1    0    0  501  503 -0.00000000000E+00 -0.00000000000E+00 -0.23872291456E+03  0.23872291456E+03  0.00000000000E+00 0.  1.
          6    2    1    2  501    0  0.25138936549E+02 -0.68756701880E+02 -0.82308725206E+02  0.20499819334E+03  0.17288748608E+03 0.  0.
         24    2    3    3    0    0  0.79314733574E+02 -0.38165382779E+02 -0.70413968584E+02  0.14148110097E+03  0.85506441601E+02 0.  0.
         -6    2    1    2    0  502 -0.25138936549E+02  0.68756701880E+02 -0.29683826001E+01  0.18717052798E+03  0.17223398348E+03 0.  0.
        -24    2    5    5    0    0  0.16020817952E+02  0.59623387846E+00 -0.47297820580E+02  0.95917232916E+02  0.81890229186E+02 0.  0.
          5    1    3    3  501    0 -0.54175797025E+02 -0.30591319101E+02 -0.11894756622E+02  0.63517092367E+02  0.47000000000E+01 0. -1.
        -11    1    4    4    0    0  0.47037451396E+01 -0.11540798978E+02  0.18556711902E+02  0.22353228312E+02  0.00000000000E+00 0.  1.
         12    1    4    4    0    0  0.74610988434E+02 -0.26624583801E+02 -0.88970680486E+02  0.11912787266E+03  0.00000000000E+00 0. -1.
         -5    1    5    5    0  502 -0.41159754500E+02  0.68160468001E+02  0.44329437979E+02  0.91253295065E+02  0.47000000000E+01 0.  1.
         11    1    6    6    0    0  0.36713061473E+02 -0.12175788452E+02  0.42595153094E+01  0.38913264806E+02  0.00000000000E+00 0. -1.
        -12    1    6    6    0    0 -0.20692243522E+02  0.12772022331E+02 -0.51557335889E+02  0.57003968111E+02  0.00000000000E+00 0.  1.
<mgrwt>
<rscale>  2 0.18759801E+03</rscale>
<asrwt>0</asrwt>
<pdfrwt beam="1">  1       21 0.23607047E-01 0.18774859E+03</pdfrwt>
<pdfrwt beam="2">  1       21 0.36726602E-01 0.18774859E+03</pdfrwt>
<totfact> 0.12099569E+05</totfact>
</mgrwt>
</event>
<event>
12    1  0.1029207E-001  0.2231542E+03  0.7546771E-02  0.1131571E+00
         21   -1    0    0  501  502  0.00000000000E+00  0.00000000000E+00  0.24930358860E+03  0.24930358860E+03  0.00000000000E+00 0.  1.
         21   -1    0    0  502  503 -0.00000000000E+00 -0.00000000000E+00 -0.20611909843E+03  0.20611909843E+03  0.00000000000E+00 0.  1.
         -6    2    1    2    0  503 -0.92583421031E+02  0.10629708512E+03  0.61898536983E+02  0.23148516839E+03  0.17286756245E+03 0.  0.
        -24    2    3    3    0    0 -0.10453256517E+03  0.71235966405E+02  0.99092202368E+02  0.17878295937E+03  0.78373859794E+02 0.  0.
          6    2    1    2  501    0  0.92583421031E+02 -0.10629708512E+03 -0.18714046816E+02  0.22393751864E+03  0.17299432519E+03 0.  0.
         24    2    5    5    0    0  0.12239515424E+03 -0.11924154151E+03 -0.17021385068E+02  0.19105509945E+03  0.83744877296E+02 0.  0.
          5    1    5    5  501    0 -0.29811733207E+02  0.12944456385E+02 -0.16926617477E+01  0.32882419189E+02  0.47000000000E+01 0. -1.
        -13    1    6    6    0    0  0.32830472674E+02 -0.37873972627E+02  0.33114541000E+02  0.60073709426E+02  0.00000000000E+00 0.  1.
         14    1    6    6    0    0  0.89564681564E+02 -0.81367568879E+02 -0.50135926068E+02  0.13098139002E+03  0.00000000000E+00 0. -1.
         -5    1    3    3    0  503  0.11949144137E+02  0.35061118716E+02 -0.37193665385E+02  0.52702209024E+02  0.47000000000E+01 0.  1.
         13    1    4    4    0    0 -0.65082065190E+02  0.15691487171E+02  0.86695649665E+02  0.10953553601E+03  0.00000000000E+00 0. -1.
        -14    1    4    4    0    0 -0.39450499979E+02  0.55544479234E+02  0.12396552703E+02  0.69247423352E+02  0.00000000000E+00 0.  1.
<mgrwt>
<rscale>  2 0.22312963E+03</rscale>
<asrwt>0</asrwt>
<pdfrwt beam="1">  1       21 0.38354398E-01 0.22315420E+03</pdfrwt>
<pdfrwt beam="2">  1       21 0.31710631E-01 0.22315420E+03</pdfrwt>
<totfact> 0.61831976E+04</totfact>
</mgrwt>
</event>
<event>
12    1  0.1029207E-001  0.1803876E+03  0.7546771E-02  0.1168168E+00
         21   -1    0    0  501  502  0.00000000000E+00  0.00000000000E+00  0.28824244651E+03  0.28824244651E+03  0.00000000000E+00 0.  1.
         21   -1    0    0  502  503 -0.00000000000E+00 -0.00000000000E+00 -0.12505360523E+03  0.12505360523E+03  0.00000000000E+00 0.  1.
         -6    2    1    2    0  503 -0.94979882269E+01 -0.49385773108E+02  0.12930145124E+02  0.18085040447E+03  0.17323542876E+03 0.  0.
        -24    2    3    3    0    0  0.33077733024E+02 -0.47375608020E+02 -0.44390192781E+02  0.10926518294E+03  0.81423622683E+02 0.  0.
          6    2    1    2  501    0  0.94979882269E+01  0.49385773108E+02  0.15025869616E+03  0.23244564727E+03  0.17007097577E+03 0.  0.
         24    2    5    5    0    0  0.82014551770E+01  0.68940498901E+02  0.17215004978E+03  0.20269014926E+03  0.81410077450E+02 0.  0.
          5    1    5    5  501    0  0.12965330499E+01 -0.19554725793E+02 -0.21891353624E+02  0.29755498018E+02  0.47000000000E+01 0. -1.
        -11    1    6    6    0    0  0.17736179870E+02 -0.11223407325E+02  0.66460382161E+02  0.69695906231E+02  0.00000000000E+00 0.  1.
         12    1    6    6    0    0 -0.95347246935E+01  0.80163906226E+02  0.10568966762E+03  0.13299424302E+03  0.00000000000E+00 0. -1.
         -5    1    3    3    0  503 -0.42575721251E+02 -0.20101650878E+01  0.57320337905E+02  0.71585221529E+02  0.47000000000E+01 0.  1.
         13    1    4    4    0    0 -0.11655054466E+02  0.16585918131E+02 -0.17286603293E+02  0.26641314312E+02  0.00000000000E+00 0. -1.
        -14    1    4    4    0    0  0.44732787490E+02 -0.63961526151E+02 -0.27103589488E+02  0.82623868630E+02  0.00000000000E+00 0.  1.
<mgrwt>
<rscale>  2 0.17962354E+03</rscale>
<asrwt>0</asrwt>
<pdfrwt beam="1">  1       21 0.44344992E-01 0.18038758E+03</pdfrwt>
<pdfrwt beam="2">  1       21 0.19239016E-01 0.18038758E+03</pdfrwt>
<totfact> 0.12170082E+05</totfact>
</mgrwt>
</event>
<event>
12    1  0.1029207E-001  0.1771193E+03  0.7546771E-02  0.1171117E+00
         21   -1    0    0  503  502  0.00000000000E+00  0.00000000000E+00  0.80295033106E+02  0.80295033106E+02  0.00000000000E+00 0.  1.
         21   -1    0    0  501  503 -0.00000000000E+00 -0.00000000000E+00 -0.46801873519E+03  0.46801873519E+03  0.00000000000E+00 0. -1.
          6    2    1    2  501    0  0.19018444061E+02  0.28610834324E+02 -0.30932519618E+03  0.35644538721E+03  0.17375544888E+03 0.  0.
         24    2    3    3    0    0 -0.87115434213E+01 -0.14300553966E+02 -0.29083167935E+03  0.30190696391E+03  0.79273906887E+02 0.  0.
         -6    2    1    2    0  502 -0.19018444061E+02 -0.28610834324E+02 -0.78398505899E+02  0.19186838108E+03  0.17171740994E+03 0.  0.
        -24    2    5    5    0    0  0.30847900191E+02 -0.17351296637E+02  0.10382456979E+02  0.89313133301E+02  0.81341133051E+02 0.  0.
          5    1    3    3  501    0  0.27729987482E+02  0.42911388290E+02 -0.18493516830E+02  0.54538423295E+02  0.47000000000E+01 0. -1.
        -13    1    4    4    0    0  0.19434506229E+01  0.26530054806E+02 -0.43406523019E+02  0.50909203971E+02  0.00000000000E+00 0.  1.
         14    1    4    4    0    0 -0.10654994044E+02 -0.40830608772E+02 -0.24742515633E+03  0.25099775994E+03  0.00000000000E+00 0. -1.
         -5    1    5    5    0  502 -0.49866344252E+02 -0.11259537687E+02 -0.88780962879E+02  0.10255524778E+03  0.47000000000E+01 0.  1.
         11    1    6    6    0    0  0.32161357293E+02  0.26320676309E+02 -0.72705392765E+01  0.42189947211E+02  0.00000000000E+00 0. -1.
        -12    1    6    6    0    0 -0.13134571014E+01 -0.43671972946E+02  0.17652996256E+02  0.47123186091E+02  0.00000000000E+00 0.  1.
<mgrwt>
<rscale>  2 0.17661742E+03</rscale>
<asrwt>0</asrwt>
<pdfrwt beam="1">  1       21 0.12353082E-01 0.17711927E+03</pdfrwt>
<pdfrwt beam="2">  1       21 0.72002881E-01 0.17711927E+03</pdfrwt>
<totfact> 0.97584852E+04</totfact>
</mgrwt>
</event>
<event>
12    1  0.1029207E-001  0.2068472E+03  0.7546771E-02  0.1144852E+00
         21   -1    0    0  503  502  0.00000000000E+00  0.00000000000E+00  0.25787370778E+03  0.25787370778E+03  0.00000000000E+00 0. -1.
         21   -1    0    0  501  503 -0.00000000000E+00 -0.00000000000E+00 -0.29458494761E+03  0.29458494761E+03  0.00000000000E+00 0. -1.
          6    2    1    2  501    0  0.93607485298E+02 -0.63319559557E+02 -0.20311310840E+03  0.28989774704E+03  0.17324560892E+03 0.  0.
         24    2    3    3    0    0  0.12886737644E+01  0.17951687539E+02 -0.90216268747E+02  0.12287809260E+03  0.81462425254E+02 0.  0.
         -6    2    1    2    0  502 -0.93607485298E+02  0.63319559557E+02  0.16640186857E+03  0.26256090835E+03  0.16875106164E+03 0.  0.
        -24    2    5    5    0    0 -0.13280414519E+02  0.40028894366E+02  0.22133269370E+02  0.95736413451E+02  0.83047561394E+02 0.  0.
          5    1    3    3  501    0  0.92318811534E+02 -0.81271247097E+02 -0.11289683965E+03  0.16701965444E+03  0.47000000000E+01 0. -1.
        -13    1    4    4    0    0  0.23276735596E+02  0.36141204706E+02 -0.82955455507E+02  0.93432332177E+02  0.00000000000E+00 0.  1.
         14    1    4    4    0    0 -0.21988061831E+02 -0.18189517167E+02 -0.72608132395E+01  0.29445760421E+02  0.00000000000E+00 0. -1.
         -5    1    5    5    0  502 -0.80327070780E+02  0.23290665192E+02  0.14426859920E+03  0.16682449490E+03  0.47000000000E+01 0.  1.
         13    1    6    6    0    0  0.28815163645E+02  0.67015841856E+01  0.29217449951E+02  0.41579854114E+02  0.00000000000E+00 0. -1.
        -14    1    6    6    0    0 -0.42095578163E+02  0.33327310180E+02 -0.70841805810E+01  0.54156559337E+02  0.00000000000E+00 0.  1.
<mgrwt>
<rscale>  2 0.20590338E+03</rscale>
<asrwt>0</asrwt>
<pdfrwt beam="1">  1       21 0.39672878E-01 0.20684721E+03</pdfrwt>
<pdfrwt beam="2">  1       21 0.45320761E-01 0.20684721E+03</pdfrwt>
<totfact> 0.28376036E+04</totfact>
</mgrwt>
</event>
<event>
12    1  0.1029207E-001  0.3719931E+03  0.7546771E-02  0.1054049E+00
         21   -1    0    0  503  502  0.00000000000E+00  0.00000000000E+00  0.57974841895E+03  0.57974841895E+03  0.00000000000E+00 0. -1.
         21   -1    0    0  501  503 -0.00000000000E+00 -0.00000000000E+00 -0.29667547962E+03  0.29667547962E+03  0.00000000000E+00 0. -1.
          6    2    1    2  501    0  0.32334017220E+02  0.32518641896E+03 -0.53683613375E+02  0.37464325123E+03  0.17516831792E+03 0.  0.
         24    2    3    3    0    0 -0.50011899480E+02  0.17244260984E+03 -0.36558118294E+02  0.20021018727E+03  0.80684442707E+02 0.  0.
         -6    2    1    2    0  502 -0.32334017220E+02 -0.32518641896E+03  0.33675655270E+03  0.50178064734E+03  0.17772773142E+03 0.  0.
        -24    2    5    5    0    0 -0.44204431665E+02 -0.33857739518E+03  0.30453570860E+03  0.46462559684E+03  0.80908980471E+02 0.  0.
          5    1    3    3  501    0  0.82345916700E+02  0.15274380912E+03 -0.17125495081E+02  0.17443306396E+03  0.47000000000E+01 0. -1.
        -11    1    4    4    0    0  0.43927894737E+01 -0.63266214512E+01 -0.81241540200E+01  0.11194847783E+02  0.00000000000E+00 0.  1.
         12    1    4    4    0    0 -0.54404688954E+02  0.17876923129E+03 -0.28433964274E+02  0.18901533948E+03  0.00000000000E+00 0. -1.
         -5    1    5    5    0  502  0.11870414445E+02  0.13390976222E+02  0.32220844105E+02  0.37155050506E+02  0.47000000000E+01 0.  1.
         13    1    6    6    0    0  0.18513477461E+02 -0.15014505716E+03  0.14940415489E+03  0.21262146772E+03  0.00000000000E+00 0. -1.
        -14    1    6    6    0    0 -0.62717909126E+02 -0.18843233802E+03  0.15513155371E+03  0.25200412912E+03  0.00000000000E+00 0.  1.
<mgrwt>
<rscale>  2 0.37168869E+03</rscale>
<asrwt>0</asrwt>
<pdfrwt beam="1">  1       21 0.89192064E-01 0.37199307E+03</pdfrwt>
<pdfrwt beam="2">  1       21 0.45642381E-01 0.37199307E+03</pdfrwt>
<totfact> 0.44558496E+03</totfact>
</mgrwt>
</event>
<event>
12    1  0.1029207E-001  0.2643926E+03  0.7546771E-02  0.1105171E+00
         21   -1    0    0  503  502  0.00000000000E+00  0.00000000000E+00  0.19621854920E+04  0.19621854920E+04  0.00000000000E+00 0. -1.
         21   -1    0    0  501  503 -0.00000000000E+00 -0.00000000000E+00 -0.58833042960E+02  0.58833042960E+02  0.00000000000E+00 0.  1.
          6    2    1    2  501    0 -0.19708054326E+03  0.37331529549E+02  0.31382586624E+03  0.41035363539E+03  0.17224705550E+03 0.  0.
         24    2    3    3    0    0 -0.36096840733E+02 -0.19296667971E+02  0.14885623093E+03  0.17295191719E+03  0.77966947265E+02 0.  0.
         -6    2    1    2    0  502  0.19708054326E+03 -0.37331529549E+02  0.15895265828E+04  0.16106648995E+04  0.16556653538E+03 0.  0.
        -24    2    5    5    0    0  0.18716745907E+03  0.13701988496E+02  0.11214356109E+04  0.11396723973E+04  0.77562501163E+02 0.  0.
          5    1    3    3  501    0 -0.16098370253E+03  0.56628197520E+02  0.16496963531E+03  0.23740171820E+03  0.47000000000E+01 0. -1.
        -11    1    4    4    0    0  0.43417826684E+01  0.93389238467E+01 -0.49024921809E+01  0.11406182751E+02  0.00000000000E+00 0.  1.
         12    1    4    4    0    0 -0.40438623402E+02 -0.28635591818E+02  0.15375872311E+03  0.16154573444E+03  0.00000000000E+00 0. -1.
         -5    1    5    5    0  502  0.99130841905E+01 -0.51033518044E+02  0.46809097186E+03  0.47099250221E+03  0.47000000000E+01 0.  1.
         11    1    6    6    0    0  0.67768369166E+02  0.97291779216E+01  0.22142467778E+03  0.23176733310E+03  0.00000000000E+00 0. -1.
        -12    1    6    6    0    0  0.11939908990E+03  0.39728105740E+01  0.90001093312E+03  0.90790506421E+03  0.00000000000E+00 0.  1.
<mgrwt>
<rscale>  2 0.26331023E+03</rscale>
<asrwt>0</asrwt>
<pdfrwt beam="1">  1       21 0.30187464E+00 0.26439257E+03</pdfrwt>
<pdfrwt beam="2">  1       21 0.90512389E-02 0.26439257E+03</pdfrwt>
<totfact> 0.29880086E+03</totfact>
</mgrwt>
</event>
<event>
12    1  0.1029207E-001  0.2074438E+03  0.7546771E-02  0.1144145E+00
         21   -1    0    0  503  502  0.00000000000E+00  0.00000000000E+00  0.60023224666E+02  0.60023224666E+02  0.00000000000E+00 0.  1.
         21   -1    0    0  501  503 -0.00000000000E+00 -0.00000000000E+00 -0.13085770852E+04  0.13085770852E+04  0.00000000000E+00 0. -1.
          6    2    1    2  501    0 -0.10393792845E+03 -0.42485617692E+02 -0.10857656991E+04  0.11049093818E+04  0.17125848284E+03 0.  0.
         24    2    3    3    0    0 -0.50200428424E+02  0.41326149753E+02 -0.47077510134E+03  0.48189440877E+03  0.79781523530E+02 0.  0.
         -6    2    1    2    0  502  0.10393792845E+03  0.42485617692E+02 -0.16278816141E+03  0.26369092806E+03  0.17442706029E+03 0.  0.
        -24    2    5    5    0    0  0.13511910094E+03  0.66239389227E+02 -0.13251474689E+03  0.21394078427E+03  0.74603437645E+02 0.  0.
          5    1    3    3  501    0 -0.53737500030E+02 -0.83811767445E+02 -0.61499059775E+03  0.62301497301E+03  0.47000000000E+01 0. -1.
        -13    1    4    4    0    0  0.20046716632E+02 -0.91592570452E+00 -0.12022086789E+03  0.12188423542E+03  0.00000000000E+00 0.  1.
         14    1    4    4    0    0 -0.70247145056E+02  0.42242075457E+02 -0.35055423345E+03  0.36001017335E+03  0.00000000000E+00 0. -1.
         -5    1    5    5    0  502 -0.31181172483E+02 -0.23753771535E+02 -0.30273414524E+02  0.49750143784E+02  0.47000000000E+01 0.  1.
         11    1    6    6    0    0  0.20093004617E+02  0.22577519080E+02 -0.69328327271E+02  0.75629955471E+02  0.00000000000E+00 0. -1.
        -12    1    6    6    0    0  0.11502609632E+03  0.43661870147E+02 -0.63186419618E+02  0.13831082880E+03  0.00000000000E+00 0.  1.
<mgrwt>
<rscale>  2 0.20677629E+03</rscale>
<asrwt>0</asrwt>
<pdfrwt beam="1">  1       21 0.92343427E-02 0.20744378E+03</pdfrwt>
<pdfrwt beam="2">  1       21 0.20131954E+00 0.20744378E+03</pdfrwt>
<totfact> 0.12148827E+04</totfact>
</mgrwt>
</event>
<event>
12    1  0.1029207E-001  0.2379376E+03  0.7546771E-02  0.1121225E+00
         21   -1    0    0  503  502  0.00000000000E+00  0.00000000000E+00  0.13868879611E+04  0.13868879611E+04  0.00000000000E+00 0. -1.
         21   -1    0    0  501  503 -0.00000000000E+00 -0.00000000000E+00 -0.43424760319E+02  0.43424760319E+02  0.00000000000E+00 0. -1.
          6    2    1    2  501    0 -0.65801410407E+02 -0.14963566343E+03  0.84898038448E+03  0.88169269607E+03  0.17289783022E+03 0.  0.
         24    2    3    3    0    0 -0.71376207233E+01 -0.45806760106E+02  0.58965778797E+03  0.59622434328E+03  0.75086321688E+02 0.  0.
         -6    2    1    2    0  502  0.65801410407E+02  0.14963566343E+03  0.49448281635E+03  0.54862002540E+03  0.17248193882E+03 0.  0.
        -24    2    5    5    0    0  0.92449140757E+02  0.48582574114E+02  0.31010297071E+03  0.33662982310E+03  0.79048562411E+02 0.  0.
          5    1    3    3  501    0 -0.58663789684E+02 -0.10382890332E+03  0.25932259651E+03  0.28546835279E+03  0.47000000000E+01 0. -1.
        -13    1    4    4    0    0  0.28005773309E+02 -0.20693020137E+02  0.13140830034E+03  0.13594361265E+03  0.00000000000E+00 0.  1.
         14    1    4    4    0    0 -0.35143394033E+02 -0.25113739970E+02  0.45824948763E+03  0.46028073063E+03  0.00000000000E+00 0. -1.
         -5    1    5    5    0  502 -0.26647730350E+02  0.10105308932E+03  0.18437984564E+03  0.21199020230E+03  0.47000000000E+01 0.  1.
         13    1    6    6    0    0  0.57723564239E+02  0.51161250352E+02  0.11518291744E+03  0.13862390802E+03  0.00000000000E+00 0. -1.
        -14    1    6    6    0    0  0.34725576518E+02 -0.25786762380E+01  0.19492005328E+03  0.19800591507E+03  0.00000000000E+00 0.  1.
<mgrwt>
<rscale>  2 0.23786209E+03</rscale>
<asrwt>0</asrwt>
<pdfrwt beam="1">  1       21 0.21336734E+00 0.23793763E+03</pdfrwt>
<pdfrwt beam="2">  1       21 0.66807334E-02 0.23793763E+03</pdfrwt>
<totfact> 0.17524346E+04</totfact>
</mgrwt>
</event>
<event>
12    1  0.1029207E-001  0.3059213E+03  0.7546771E-02  0.1082398E+00
         21   -1    0    0  503  502  0.00000000000E+00  0.00000000000E+00  0.17232587707E+04  0.17232587707E+04  0.00000000000E+00 0.  1.
         21   -1    0    0  501  503 -0.00000000000E+00 -0.00000000000E+00 -0.98581767191E+02  0.98581767191E+02  0.00000000000E+00 0.  1.
          6    2    1    2  501    0 -0.42286201025E+02  0.24881621834E+03  0.20156160540E+03  0.36635351742E+03  0.17288778341E+03 0.  0.
         24    2    3    3    0    0  0.12769457556E+02  0.23340616070E+03  0.15187274846E+03  0.29046104137E+03  0.81613662625E+02 0.  0.
         -6    2    1    2    0  502  0.42286201025E+02 -0.24881621834E+03  0.14231153981E+04  0.14554870205E+04  0.17171894802E+03 0.  0.
        -24    2    5    5    0    0 -0.31707561336E+02 -0.73398259937E+02  0.61120713523E+03  0.62154238541E+03  0.79674969136E+02 0.  0.
          5    1    3    3  501    0 -0.55055658581E+02  0.15410057633E+02  0.49688856939E+02  0.75892476056E+02  0.47000000000E+01 0. -1.
        -11    1    4    4    0    0  0.18167884947E+02  0.11058210962E+03  0.11843993056E+03  0.16305364811E+03  0.00000000000E+00 0.  1.
         12    1    4    4    0    0 -0.53984273913E+01  0.12282405109E+03  0.33432817897E+02  0.12740739326E+03  0.00000000000E+00 0. -1.
         -5    1    5    5    0  502  0.73993762361E+02 -0.17541795840E+03  0.81190826287E+03  0.83394463504E+03  0.47000000000E+01 0.  1.
         11    1    6    6    0    0  0.43721670229E+01  0.11566022004E+02  0.18699962708E+03  0.18740797538E+03  0.00000000000E+00 0. -1.
        -12    1    6    6    0    0 -0.36079728359E+02 -0.84964281941E+02  0.42420750814E+03  0.43413441003E+03  0.00000000000E+00 0.  1.
<mgrwt>
<rscale>  2 0.30575637E+03</rscale>
<asrwt>0</asrwt>
<pdfrwt beam="1">  1       21 0.26511671E+00 0.30592126E+03</pdfrwt>
<pdfrwt beam="2">  1       21 0.15166427E-01 0.30592126E+03</pdfrwt>
<totfact> 0.18762807E+03</totfact>
</mgrwt>
</event>
<event>
12    1  0.1029207E-001  0.1785628E+03  0.7546771E-02  0.1169491E+00
         21   -1    0    0  501  502  0.00000000000E+00  0.00000000000E+00  0.62732811093E+02  0.62732811093E+02  0.00000000000E+00 0. -1.
         21   -1    0    0  502  503 -0.00000000000E+00 -0.00000000000E+00 -0.51804905644E+03  0.51804905644E+03  0.00000000000E+00 0. -1.
         -6    2    1    2    0  503  0.28048776672E+02  0.29765348537E+02 -0.27463834350E+03  0.32758343970E+03  0.17381593827E+03 0.  0.
        -24    2    3    3    0    0 -0.36514248250E+02 -0.17781301072E+02 -0.19253442312E+03  0.21272608548E+03  0.80829563675E+02 0.  0.
          6    2    1    2  501    0 -0.28048776672E+02 -0.29765348537E+02 -0.18067790185E+03  0.25319842784E+03  0.17260425776E+03 0.  0.
         24    2    5    5    0    0 -0.61682799796E+02 -0.29240249713E+02 -0.18886379136E+03  0.21826102629E+03  0.85490256267E+02 0.  0.
          5    1    5    5  501    0  0.33634023124E+02 -0.52509882455E+00  0.81858895063E+01  0.34937401553E+02  0.47000000000E+01 0. -1.
        -11    1    6    6    0    0 -0.62874969509E+02 -0.23795807601E+01 -0.61121446036E+02  0.87719754679E+02  0.00000000000E+00 0.  1.
         12    1    6    6    0    0  0.11921697134E+01 -0.26860668953E+02 -0.12774234532E+03  0.13054127161E+03  0.00000000000E+00 0. -1.
         -5    1    3    3    0  503  0.64563024922E+02  0.47546649609E+02 -0.82103920380E+02  0.11485735422E+03  0.47000000000E+01 0.  1.
         11    1    4    4    0    0 -0.14706038263E+01  0.18739264086E+02 -0.64370603031E+01  0.19868528870E+02  0.00000000000E+00 0. -1.
        -12    1    4    4    0    0 -0.35043644424E+02 -0.36520565157E+02 -0.18609736282E+03  0.19285755661E+03  0.00000000000E+00 0.  1.
<mgrwt>
<rscale>  2 0.17826730E+03</rscale>
<asrwt>0</asrwt>
<pdfrwt beam="1">  1       21 0.96512014E-02 0.17856285E+03</pdfrwt>
<pdfrwt beam="2">  1       21 0.79699857E-01 0.17856285E+03</pdfrwt>
<totfact> 0.12045984E+05</totfact>
</mgrwt>
</event>
<event>
12    1  0.1029207E-001  0.2330258E+03  0.7546771E-02  0.1124865E+00
         21   -1    0    0  503  502  0.00000000000E+00  0.00000000000E+00  0.77386078709E+03  0.77386078709E+03  0.00000000000E+00 0.  1.
         21   -1    0    0  501  503 -0.00000000000E+00 -0.00000000000E+00 -0.91533447448E+02  0.91533447448E+02  0.00000000000E+00 0.  1.
          6    2    1    2  501    0 -0.91259510507E+02  0.12445415504E+03  0.12820376316E+03  0.26426697864E+03  0.17199911670E+03 0.  0.
         24    2    3    3    0    0 -0.65972567464E+02  0.11612198691E+03  0.25615212789E+02  0.15817571990E+03  0.80788141076E+02 0.  0.
         -6    2    1    2    0  502  0.91259510507E+02 -0.12445415504E+03  0.55412357649E+03  0.60112725590E+03  0.17459640547E+03 0.  0.
        -24    2    5    5    0    0  0.15588351557E+02 -0.70367180445E+02  0.13369603997E+03  0.17050801738E+03  0.77484295835E+02 0.  0.
          5    1    3    3  501    0 -0.25286943043E+02  0.83321681344E+01  0.10258855037E+03  0.10609125874E+03  0.47000000000E+01 0. -1.
        -11    1    4    4    0    0 -0.82822479737E+02  0.10973983228E+03  0.26971769246E+02  0.14010663894E+03  0.00000000000E+00 0.  1.
         12    1    4    4    0    0  0.16849912274E+02  0.63821546271E+01 -0.13565564570E+01  0.18069080960E+02  0.00000000000E+00 0. -1.
         -5    1    5    5    0  502  0.75671158950E+02 -0.54086974596E+02  0.42042753652E+03  0.43061923852E+03  0.47000000000E+01 0.  1.
         13    1    6    6    0    0 -0.10920602161E+02 -0.16005805176E+01  0.76303867400E+02  0.77097999907E+02  0.00000000000E+00 0. -1.
        -14    1    6    6    0    0  0.26508953719E+02 -0.68766599928E+02  0.57392172566E+02  0.93410017476E+02  0.00000000000E+00 0.  1.
<mgrwt>
<rscale>  2 0.23253940E+03</rscale>
<asrwt>0</asrwt>
<pdfrwt beam="1">  1       21 0.11905550E+00 0.23302583E+03</pdfrwt>
<pdfrwt beam="2">  1       21 0.14082069E-01 0.23302583E+03</pdfrwt>
<totfact> 0.23140017E+04</totfact>
</mgrwt>
</event>
<event>
12    1  0.1029207E-001  0.2110660E+03  0.7546771E-02  0.1140888E+00
         21   -1    0    0  503  502  0.00000000000E+00  0.00000000000E+00  0.31979375372E+03  0.31979375372E+03  0.00000000000E+00 0.  1.
         21   -1    0    0  501  503 -0.00000000000E+00 -0.00000000000E+00 -0.34650585270E+03  0.34650585270E+03  0.00000000000E+00 0. -1.
          6    2    1    2  501    0  0.86182278602E+02  0.82033140656E+02 -0.27130594968E+03  0.34322839173E+03  0.17332625088E+03 0.  0.
         24    2    3    3    0    0  0.89075464768E+01  0.97380985254E+02 -0.13046604502E+03  0.18178208702E+03  0.80379957607E+02 0.  0.
         -6    2    1    2    0  502 -0.86182278602E+02 -0.82033140656E+02  0.24459385070E+03  0.32307121469E+03  0.17433311977E+03 0.  0.
        -24    2    5    5    0    0 -0.45589611745E+02 -0.30975035513E+02  0.36546283004E+02  0.10498734291E+03  0.81540455275E+02 0.  0.
          5    1    3    3  501    0  0.77274732125E+02 -0.15347844598E+02 -0.14083990467E+03  0.16144630471E+03  0.47000000000E+01 0. -1.
        -11    1    4    4    0    0 -0.14897163454E+02 -0.88616954345E+01 -0.23010747323E+02  0.28808846164E+02  0.00000000000E+00 0.  1.
         12    1    4    4    0    0  0.23804709930E+02  0.10624268069E+03 -0.10745529769E+03  0.15297324085E+03  0.00000000000E+00 0. -1.
         -5    1    5    5    0  502 -0.40592666857E+02 -0.51058105143E+02  0.20804756770E+03  0.21808387178E+03  0.47000000000E+01 0.  1.
         11    1    6    6    0    0  0.15628544898E+02  0.14442426889E+02  0.14091782660E+02  0.25522802522E+02  0.00000000000E+00 0. -1.
        -12    1    6    6    0    0 -0.61218156642E+02 -0.45417462402E+02  0.22454500344E+02  0.79464540390E+02  0.00000000000E+00 0.  1.
<mgrwt>
<rscale>  2 0.21085798E+03</rscale>
<asrwt>0</asrwt>
<pdfrwt beam="1">  1       21 0.49199039E-01 0.21106600E+03</pdfrwt>
<pdfrwt beam="2">  1       21 0.53308593E-01 0.21106600E+03</pdfrwt>
<totfact> 0.12974203E+04</totfact>
</mgrwt>
</event>
<event>
12    1  0.1029207E-001  0.1858894E+03  0.7546771E-02  0.1162354E+00
         21   -1    0    0  501  502  0.00000000000E+00  0.00000000000E+00  0.61974900739E+02  0.61974900739E+02  0.00000000000E+00 0. -1.
         21   -1    0    0  502  503 -0.00000000000E+00 -0.00000000000E+00 -0.55591305150E+03  0.55591305150E+03  0.00000000000E+00 0.  1.
         -6    2    1    2    0  503 -0.21085783970E+02 -0.64687544873E+02 -0.24979206716E+03  0.31102941279E+03  0.17237786997E+03 0.  0.
        -24    2    3    3    0    0  0.30123889568E+02 -0.88623766579E+02 -0.13218972806E+03  0.18046229007E+03  0.79566910254E+02 0.  0.
          6    2    1    2  501    0  0.21085783970E+02  0.64687544873E+02 -0.24414608361E+03  0.30685853946E+03  0.17299064816E+03 0.  0.
         24    2    5    5    0    0 -0.20746196205E+02  0.59116729578E+02 -0.24344216739E+03  0.26439050387E+03  0.81933249047E+02 0.  0.
          5    1    5    5  501    0  0.41831980175E+02  0.55708152957E+01 -0.70391621392E+00  0.42468035586E+02  0.47000000000E+01 0. -1.
        -11    1    6    6    0    0  0.27220503793E+01  0.34769711326E+02 -0.22116041401E+03  0.22389343695E+03  0.00000000000E+00 0.  1.
         12    1    6    6    0    0 -0.23468246584E+02  0.24347018251E+02 -0.22281753384E+02  0.40497066922E+02  0.00000000000E+00 0. -1.
         -5    1    3    3    0  503 -0.51209673539E+02  0.23936221705E+02 -0.11760233909E+03  0.13056712271E+03  0.47000000000E+01 0.  1.
         13    1    4    4    0    0  0.15253084825E+02 -0.53745775277E+02 -0.13112572045E+03  0.14253146853E+03  0.00000000000E+00 0. -1.
        -14    1    4    4    0    0  0.14870804744E+02 -0.34877991302E+02 -0.10640076141E+01  0.37930821546E+02  0.00000000000E+00 0.  1.
<mgrwt>
<rscale>  2 0.18574666E+03</rscale>
<asrwt>0</asrwt>
<pdfrwt beam="1">  1       21 0.95346004E-02 0.18588936E+03</pdfrwt>
<pdfrwt beam="2">  1       21 0.85525082E-01 0.18588936E+03</pdfrwt>
<totfact> 0.10455464E+05</totfact>
</mgrwt>
</event>
<event>
12    1  0.1029207E-001  0.2522518E+03  0.7546771E-02  0.1111997E+00
         21   -1    0    0  503  502  0.00000000000E+00  0.00000000000E+00  0.90816901274E+03  0.90816901274E+03  0.00000000000E+00 0.  1.
         21   -1    0    0  501  503 -0.00000000000E+00 -0.00000000000E+00 -0.10678725986E+03  0.10678725986E+03  0.00000000000E+00 0.  1.
          6    2    1    2  501    0  0.13816596158E+03  0.11948283907E+03  0.10197133855E+03  0.27144710896E+03  0.17297224432E+03 0.  0.
         24    2    3    3    0    0  0.63869797524E+02 -0.16486681495E+01 -0.63643646377E+01  0.92697349184E+02  0.66859735762E+02 0.  0.
         -6    2    1    2    0  502 -0.13816596158E+03 -0.11948283907E+03  0.69941041433E+03  0.74350916365E+03  0.17396829305E+03 0.  0.
        -24    2    5    5    0    0 -0.73110589346E+02 -0.24901784683E+02  0.18326023385E+03  0.21472671679E+03  0.80981432653E+02 0.  0.
          5    1    3    3  501    0  0.74296164054E+02  0.12113150722E+03  0.10833570318E+03  0.17874975977E+03  0.47000000000E+01 0. -1.
        -13    1    4    4    0    0  0.34526534196E+02  0.25567280756E+02 -0.23718851220E+02  0.49074956058E+02  0.00000000000E+00 0.  1.
         14    1    4    4    0    0  0.29343263328E+02 -0.27215948906E+02  0.17354486583E+02  0.43622393127E+02  0.00000000000E+00 0. -1.
         -5    1    5    5    0  502 -0.65055372232E+02 -0.94581054385E+02  0.51615018048E+03  0.52878244687E+03  0.47000000000E+01 0.  1.
         13    1    6    6    0    0 -0.39229679257E+02 -0.33454186774E+02  0.16950619419E+03  0.17717364425E+03  0.00000000000E+00 0. -1.
        -14    1    6    6    0    0 -0.33880910089E+02  0.85524020915E+01  0.13754039664E+02  0.37553072538E+02  0.00000000000E+00 0.  1.
<mgrwt>
<rscale>  2 0.25208011E+03</rscale>
<asrwt>0</asrwt>
<pdfrwt beam="1">  1       21 0.13971830E+00 0.25225176E+03</pdfrwt>
<pdfrwt beam="2">  1       21 0.16428810E-01 0.25225176E+03</pdfrwt>
<totfact> 0.11492129E+04</totfact>
</mgrwt>
</event>
<event>
12    1  0.1029207E-001  0.1948374E+03  0.7546771E-02  0.1154670E+00
         21   -1    0    0  503  502  0.00000000000E+00  0.00000000000E+00  0.19171683506E+03  0.19171683506E+03  0.00000000000E+00 0. -1.
         21   -1    0    0  501  503 -0.00000000000E+00 -0.00000000000E+00 -0.19727560651E+03  0.19727560651E+03  0.00000000000E+00 0.  1.
          6    2    1    2  501    0  0.34573866984E+02 -0.82428732907E+02 -0.20189508339E+02  0.19588063691E+03  0.17312353792E+03 0.  0.
         24    2    3    3    0    0 -0.20242944889E+02 -0.51194814779E+02 -0.74288310370E+02  0.11263875510E+03  0.64327678448E+02 0.  0.
         -6    2    1    2    0  502 -0.34573866984E+02  0.82428732907E+02  0.14630736890E+02  0.19311180467E+03  0.17055281397E+03 0.  0.
        -24    2    5    5    0    0  0.29558581119E+02  0.81301755137E+00  0.67961899818E+01  0.88912159672E+02  0.83575195028E+02 0.  0.
          5    1    3    3  501    0  0.54816811873E+02 -0.31233918128E+02  0.54098802031E+02  0.83241881807E+02  0.47000000000E+01 0. -1.
        -11    1    4    4    0    0 -0.59790201393E+00 -0.14289118270E+02 -0.69035679971E+02  0.70501499962E+02  0.00000000000E+00 0.  1.
         12    1    4    4    0    0 -0.19645042875E+02 -0.36905696509E+02 -0.52526303983E+01  0.42137255137E+02  0.00000000000E+00 0. -1.
         -5    1    5    5    0  502 -0.64132448103E+02  0.81615715356E+02  0.78345469087E+01  0.10419964500E+03  0.47000000000E+01 0.  1.
         11    1    6    6    0    0  0.93142054113E+01  0.17738182828E+02  0.41046948400E+02  0.45675480571E+02  0.00000000000E+00 0. -1.
        -12    1    6    6    0    0  0.20244375708E+02 -0.16925165276E+02 -0.34250758418E+02  0.43236679100E+02  0.00000000000E+00 0.  1.
<mgrwt>
<rscale>  2 0.19426471E+03</rscale>
<asrwt>0</asrwt>
<pdfrwt beam="1">  1       21 0.29494898E-01 0.19483739E+03</pdfrwt>
<pdfrwt beam="2">  1       21 0.30350094E-01 0.19483739E+03</pdfrwt>
<totfact> 0.11465527E+05</totfact>
</mgrwt>
</event>
<event>
12    1  0.1029207E-001  0.2236917E+03  0.7546771E-02  0.1131249E+00
         21   -1    0    0  501  502  0.00000000000E+00  0.00000000000E+00  0.28583504770E+03  0.28583504770E+03  0.00000000000E+00 0. -1.
         21   -1    0    0  502  503 -0.00000000000E+00 -0.00000000000E+00 -0.22316895484E+03  0.22316895484E+03  0.00000000000E+00 0. -1.
         -6    2    1    2    0  503 -0.56574910689E+02 -0.13011187735E+03 -0.87270268969E+02  0.24011264392E+03  0.17293976054E+03 0.  0.
        -24    2    3    3    0    0 -0.40104930998E+02 -0.87819673947E+02 -0.12721647034E+03  0.17946876786E+03  0.81879836899E+02 0.  0.
          6    2    1    2  501    0  0.56574910689E+02  0.13011187735E+03  0.14993636183E+03  0.26889135862E+03  0.17231317127E+03 0.  0.
         24    2    5    5    0    0 -0.22322527099E+02  0.47889356880E+02  0.11558451341E+03  0.14978011628E+03  0.79262965965E+02 0.  0.
          5    1    5    5  501    0  0.78897437788E+02  0.82222520471E+02  0.34351848417E+02  0.11911124234E+03  0.47000000000E+01 0. -1.
        -11    1    6    6    0    0 -0.25554678659E+02  0.25245115241E+02  0.43102793099E+01  0.36179219901E+02  0.00000000000E+00 0.  1.
         12    1    6    6    0    0  0.32321515597E+01  0.22644241638E+02  0.11127423410E+03  0.11360089638E+03  0.00000000000E+00 0. -1.
         -5    1    3    3    0  503 -0.16469979691E+02 -0.42292203404E+02  0.39946201366E+02  0.60643876058E+02  0.47000000000E+01 0.  1.
         11    1    4    4    0    0 -0.40118449470E+02 -0.20179579885E+02 -0.13043497076E+02  0.46763642375E+02  0.00000000000E+00 0. -1.
        -12    1    4    4    0    0  0.13518472240E-01 -0.67640094062E+02 -0.11417297326E+03  0.13270512549E+03  0.00000000000E+00 0.  1.
<mgrwt>
<rscale>  2 0.22357060E+03</rscale>
<asrwt>0</asrwt>
<pdfrwt beam="1">  1       21 0.43974623E-01 0.22369171E+03</pdfrwt>
<pdfrwt beam="2">  1       21 0.34333685E-01 0.22369171E+03</pdfrwt>
<totfact> 0.39993143E+04</totfact>
</mgrwt>
</event>
<event>
12    1  0.1029207E-001  0.2175109E+03  0.7546771E-02  0.1136026E+00
         21   -1    0    0  501  502  0.00000000000E+00  0.00000000000E+00  0.88386571730E+03  0.88386571730E+03  0.00000000000E+00 0.  1.
         21   -1    0    0  502  503 -0.00000000000E+00 -0.00000000000E+00 -0.53446460959E+02  0.53446460959E+02  0.00000000000E+00 0.  1.
         -6    2    1    2    0  503  0.10882615832E+03  0.70139337471E+02  0.38030564572E+03  0.43739894943E+03  0.17298207247E+03 0.  0.
        -24    2    3    3    0    0  0.84458333437E+02 -0.17942027039E+02  0.15873028732E+03  0.19767025462E+03  0.80144238892E+02 0.  0.
          6    2    1    2  501    0 -0.10882615832E+03 -0.70139337471E+02  0.45011361062E+03  0.49991322883E+03  0.17478076124E+03 0.  0.
         24    2    5    5    0    0 -0.91040222265E+02  0.11492249229E+02  0.33225830050E+03  0.35537250933E+03  0.86450264771E+02 0.  0.
          5    1    5    5  501    0 -0.17785936059E+02 -0.81631586700E+02  0.11785531013E+03  0.14454071950E+03  0.47000000000E+01 0. -1.
        -11    1    6    6    0    0 -0.63787228193E+02  0.39677468912E+02  0.13725930555E+03  0.15647117620E+03  0.00000000000E+00 0.  1.
         12    1    6    6    0    0 -0.27252994072E+02 -0.28185219683E+02  0.19499899494E+03  0.19890133314E+03  0.00000000000E+00 0. -1.
         -5    1    3    3    0  503  0.24367824888E+02  0.88081364509E+02  0.22157535840E+03  0.23972869481E+03  0.47000000000E+01 0.  1.
         13    1    4    4    0    0  0.43531351011E+02 -0.46083782519E+02  0.60662801515E+02  0.87742059582E+02  0.00000000000E+00 0. -1.
        -14    1    4    4    0    0  0.40926982426E+02  0.28141755480E+02  0.98067485805E+02  0.10992819504E+03  0.00000000000E+00 0.  1.
<mgrwt>
<rscale>  2 0.21714929E+03</rscale>
<asrwt>0</asrwt>
<pdfrwt beam="1">  1       21 0.13597933E+00 0.21751086E+03</pdfrwt>
<pdfrwt beam="2">  1       21 0.82225331E-02 0.21751086E+03</pdfrwt>
<totfact> 0.43520365E+04</totfact>
</mgrwt>
</event>
<event>
12    1  0.1029207E-001  0.2912562E+03  0.7546771E-02  0.1090068E+00
         21   -1    0    0  503  502  0.00000000000E+00  0.00000000000E+00  0.64808914581E+02  0.64808914581E+02  0.00000000000E+00 0. -1.
         21   -1    0    0  501  503 -0.00000000000E+00 -0.00000000000E+00 -0.23132178479E+04  0.23132178479E+04  0.00000000000E+00 0. -1.
          6    2    1    2  501    0 -0.21777502005E+03  0.76692980044E+02 -0.19095171882E+04  0.19311735246E+04  0.17282221445E+03 0.  0.
         24    2    3    3    0    0 -0.65589159237E+02  0.72215351275E+02 -0.62101519737E+03  0.63369903330E+03  0.79984965256E+02 0.  0.
         -6    2    1    2    0  502  0.21777502005E+03 -0.76692980044E+02 -0.33889174514E+03  0.44685323784E+03  0.17754556794E+03 0.  0.
        -24    2    5    5    0    0  0.20039346382E+03 -0.83888462968E+02 -0.19908849126E+03  0.30571170154E+03  0.81416230239E+02 0.  0.
          5    1    3    3  501    0 -0.15218586081E+03  0.44776287693E+01 -0.12885019908E+04  0.12974744913E+04  0.47000000000E+01 0. -1.
        -11    1    4    4    0    0 -0.67358278464E+02  0.28499343480E+02 -0.26164303749E+03  0.27167338722E+03  0.00000000000E+00 0.  1.
         12    1    4    4    0    0  0.17691192269E+01  0.43716007795E+02 -0.35937215989E+03  0.36202564608E+03  0.00000000000E+00 0. -1.
         -5    1    5    5    0  502  0.17381556228E+02  0.71954829235E+01 -0.13980325389E+03  0.14114153630E+03  0.47000000000E+01 0.  1.
         11    1    6    6    0    0  0.27912353129E+02 -0.56751974571E+01  0.31323562756E+01  0.28655173690E+02  0.00000000000E+00 0. -1.
        -12    1    6    6    0    0  0.17248111069E+03 -0.78213265510E+02 -0.20222084753E+03  0.27705652785E+03  0.00000000000E+00 0.  1.
<mgrwt>
<rscale>  2 0.29053986E+03</rscale>
<asrwt>0</asrwt>
<pdfrwt beam="1">  1       21 0.99706021E-02 0.29125625E+03</pdfrwt>
<pdfrwt beam="2">  1       21 0.35587967E+00 0.29125625E+03</pdfrwt>
<totfact> 0.11737898E+03</totfact>
</mgrwt>
</event>
<event>
12    1  0.1029207E-001  0.1858117E+03  0.7546771E-02  0.1162372E+00
         21   -1    0    0  503  502  0.00000000000E+00  0.00000000000E+00  0.17363794886E+04  0.17363794886E+04  0.00000000000E+00 0. -1.
         21   -1    0    0  501  503 -0.00000000000E+00 -0.00000000000E+00 -0.46899631426E+02  0.46899631426E+02  0.00000000000E+00 0. -1.
          6    2    1    2  501    0 -0.62224121128E+02 -0.22527030494E+02  0.16723997002E+03  0.24974063816E+03  0.17326820374E+03 0.  0.
         24    2    3    3    0    0 -0.29384381432E+02 -0.32462519403E+02  0.18812202534E+03  0.20930163870E+03  0.80622717052E+02 0.  0.
         -6    2    1    2    0  502  0.62224121128E+02  0.22527030494E+02  0.15222398871E+04  0.15335384818E+04  0.17362803042E+03 0.  0.
        -24    2    5    5    0    0  0.41523606743E+02 -0.12419864054E+02  0.14260040283E+04  0.14289764082E+04  0.81287288655E+02 0.  0.
          5    1    3    3  501    0 -0.32839739696E+02  0.99354889088E+01 -0.20882055325E+02  0.40438999465E+02  0.47000000000E+01 0. -1.
        -13    1    4    4    0    0 -0.17222371280E+02  0.26380376139E+02  0.70577724268E+02  0.77290034808E+02  0.00000000000E+00 0.  1.
         14    1    4    4    0    0 -0.12162010152E+02 -0.58842895542E+02  0.11754430107E+03  0.13201160389E+03  0.00000000000E+00 0. -1.
         -5    1    5    5    0  502  0.20700514385E+02  0.34946894548E+02  0.96235858799E+02  0.10456207368E+03  0.47000000000E+01 0.  1.
         11    1    6    6    0    0  0.32773201452E+01 -0.41312569469E+02  0.83694018266E+03  0.83796559510E+03  0.00000000000E+00 0. -1.
        -12    1    6    6    0    0  0.38246286598E+02  0.28892705415E+02  0.58906384567E+03  0.59101081305E+03  0.00000000000E+00 0.  1.
<mgrwt>
<rscale>  2 0.18572763E+03</rscale>
<asrwt>0</asrwt>
<pdfrwt beam="1">  1       21 0.26713526E+00 0.18581174E+03</pdfrwt>
<pdfrwt beam="2">  1       21 0.72153292E-02 0.18581174E+03</pdfrwt>
<totfact> 0.76360532E+03</totfact>
</mgrwt>
</event>
<event>
12    1  0.1029207E-001  0.2234527E+03  0.7546771E-02  0.1131363E+00
         21   -1    0    0  503  502  0.00000000000E+00  0.00000000000E+00  0.61786243052E+03  0.61786243052E+03  0.00000000000E+00 0. -1.
         21   -1    0    0  501  503 -0.00000000000E+00 -0.00000000000E+00 -0.25303332295E+03  0.25303332295E+03  0.00000000000E+00 0. -1.
          6    2    1    2  501    0  0.42501026547E+02 -0.14017272996E+03 -0.17686798165E+03  0.28497961669E+03  0.16874942227E+03 0.  0.
         24    2    3    3    0    0 -0.36883150765E+02 -0.66746577282E+02 -0.58883888073E+02  0.12486845580E+03  0.79431395496E+02 0.  0.
         -6    2    1    2    0  502 -0.42501026547E+02  0.14017272996E+03  0.54169708922E+03  0.58591613678E+03  0.16854450864E+03 0.  0.
        -24    2    5    5    0    0 -0.92799982317E+02  0.11123820392E+03  0.41115400325E+03  0.44297986063E+03  0.78725902975E+02 0.  0.
          5    1    3    3  501    0  0.79384177313E+02 -0.73426152680E+02 -0.11798409357E+03  0.16011116089E+03  0.47000000000E+01 0. -1.
        -13    1    4    4    0    0 -0.22276542211E+02 -0.39306097532E+02  0.12611879923E+02  0.46907069310E+02  0.00000000000E+00 0.  1.
         14    1    4    4    0    0 -0.14606608554E+02 -0.27440479750E+02 -0.71495767996E+02  0.77961386492E+02  0.00000000000E+00 0. -1.
         -5    1    5    5    0  502  0.50298955770E+02  0.28934526038E+02  0.13054308596E+03  0.14293627616E+03  0.47000000000E+01 0.  1.
         11    1    6    6    0    0  0.13826447430E+01  0.28950336858E+02  0.15778110400E+03  0.16042104129E+03  0.00000000000E+00 0. -1.
        -12    1    6    6    0    0 -0.94182627060E+02  0.82287867065E+02  0.25337289926E+03  0.28255881933E+03  0.00000000000E+00 0.  1.
<mgrwt>
<rscale>  2 0.22341399E+03</rscale>
<asrwt>0</asrwt>
<pdfrwt beam="1">  1       21 0.95055759E-01 0.22345268E+03</pdfrwt>
<pdfrwt beam="2">  1       21 0.38928204E-01 0.22345268E+03</pdfrwt>
<totfact> 0.57534325E+03</totfact>
</mgrwt>
</event>
<event>
12    1  0.1029207E-001  0.2241759E+03  0.7546771E-02  0.1131293E+00
         21   -1    0    0  503  502  0.00000000000E+00  0.00000000000E+00  0.21102143080E+04  0.21102143080E+04  0.00000000000E+00 0. -1.
         21   -1    0    0  501  503 -0.00000000000E+00 -0.00000000000E+00 -0.74612382342E+02  0.74612382342E+02  0.00000000000E+00 0. -1.
          6    2    1    2  501    0  0.10890464793E+02  0.14110230988E+03  0.11203488977E+03  0.24824078043E+03  0.17042066913E+03 0.  0.
         24    2    3    3    0    0 -0.57474746216E+02  0.83572493266E+02  0.49074860730E+02  0.13883540062E+03  0.81112381454E+02 0.  0.
         -6    2    1    2    0  502 -0.10890464793E+02 -0.14110230988E+03  0.19235670358E+04  0.19365859099E+04  0.17385735770E+03 0.  0.
        -24    2    5    5    0    0 -0.11521261476E+02 -0.47781976760E+02  0.40914880324E+03  0.41928773359E+03  0.77353756077E+02 0.  0.
          5    1    3    3  501    0  0.68365211008E+02  0.57529816617E+02  0.62960029040E+02  0.10940537982E+03  0.47000000000E+01 0. -1.
        -13    1    4    4    0    0 -0.64110081103E+02  0.92271340506E+02  0.56350940549E+02  0.12569618641E+03  0.00000000000E+00 0.  1.
         14    1    4    4    0    0  0.66353348874E+01 -0.86988472393E+01 -0.72760798191E+01  0.13139214204E+02  0.00000000000E+00 0. -1.
         -5    1    5    5    0  502  0.63079668332E+00 -0.93320333123E+02  0.15144182326E+04  0.15172981763E+04  0.47000000000E+01 0.  1.
         11    1    6    6    0    0  0.26100763552E+02 -0.44048558382E+02  0.28303843865E+03  0.28763220110E+03  0.00000000000E+00 0. -1.
        -12    1    6    6    0    0 -0.37622025028E+02 -0.37334183777E+01  0.12611036459E+03  0.13165553249E+03  0.00000000000E+00 0.  1.
<mgrwt>
<rscale>  2 0.22350929E+03</rscale>
<asrwt>0</asrwt>
<pdfrwt beam="1">  1       21 0.32464831E+00 0.22417592E+03</pdfrwt>
<pdfrwt beam="2">  1       21 0.11478830E-01 0.22417592E+03</pdfrwt>
<totfact> 0.15013482E+03</totfact>
</mgrwt>
</event>
<event>
12    1  0.1029207E-001  0.2147372E+03  0.7546771E-02  0.1138023E+00
         21   -1    0    0  501  502  0.00000000000E+00  0.00000000000E+00  0.29632446685E+03  0.29632446685E+03  0.00000000000E+00 0.  1.
         21   -1    0    0  502  503 -0.00000000000E+00 -0.00000000000E+00 -0.31706610437E+03  0.31706610437E+03  0.00000000000E+00 0.  1.
         -6    2    1    2    0  503 -0.11986647863E+03 -0.38601724663E+02 -0.22962664547E+03  0.31438905073E+03  0.17393680768E+03 0.  0.
        -24    2    3    3    0    0  0.14237503027E+02 -0.33759826108E+02 -0.87801134279E+02  0.11908444889E+03  0.71621466299E+02 0.  0.
          6    2    1    2  501    0  0.11986647863E+03  0.38601724663E+02  0.20888500795E+03  0.29900152049E+03  0.17294767088E+03 0.  0.
         24    2    5    5    0    0  0.11675151943E+02 -0.10454239793E+02  0.14305110133E+03  0.16310433848E+03  0.76771136081E+02 0.  0.
          5    1    5    5  501    0  0.10819132668E+03  0.49055964457E+02  0.65833906616E+02  0.13589718201E+03  0.47000000000E+01 0. -1.
        -13    1    6    6    0    0  0.22678803261E+02 -0.25342630388E+02  0.14032993540E+03  0.14439206280E+03  0.00000000000E+00 0.  1.
         14    1    6    6    0    0 -0.11003651318E+02  0.14888390595E+02  0.27211659360E+01  0.18712275673E+02  0.00000000000E+00 0. -1.
         -5    1    3    3    0  503 -0.13410398165E+03 -0.48418985548E+01 -0.14182551119E+03  0.19530460184E+03  0.47000000000E+01 0.  1.
         11    1    4    4    0    0 -0.46509230281E+01  0.65836033740E+00  0.11436126369E+02  0.12363232169E+02  0.00000000000E+00 0. -1.
        -12    1    4    4    0    0  0.18888426056E+02 -0.34418186446E+02 -0.99237260647E+02  0.10672121672E+03  0.00000000000E+00 0.  1.
<mgrwt>
<rscale>  2 0.21453685E+03</rscale>
<asrwt>0</asrwt>
<pdfrwt beam="1">  1       21 0.45588380E-01 0.21473723E+03</pdfrwt>
<pdfrwt beam="2">  1       21 0.48779401E-01 0.21473723E+03</pdfrwt>
<totfact> 0.18264986E+04</totfact>
</mgrwt>
</event>
<event>
12    1  0.1029207E-001  0.2675350E+03  0.7546771E-02  0.1102793E+00
         21   -1    0    0  503  502  0.00000000000E+00  0.00000000000E+00  0.59498412288E+03  0.59498412288E+03  0.00000000000E+00 0.  1.
         21   -1    0    0  501  503 -0.00000000000E+00 -0.00000000000E+00 -0.13677811154E+03  0.13677811154E+03  0.00000000000E+00 0. -1.
          6    2    1    2  501    0  0.38062278728E+02  0.19982302251E+03  0.10072682261E+03  0.28525764634E+03  0.17276589542E+03 0.  0.
         24    2    3    3    0    0  0.56932847505E+02  0.21731560823E+03  0.10139446814E+03  0.25909231294E+03  0.79878443587E+02 0.  0.
         -6    2    1    2    0  502 -0.38062278728E+02 -0.19982302251E+03  0.35747918872E+03  0.44650458807E+03  0.17377283854E+03 0.  0.
        -24    2    5    5    0    0 -0.68639457826E+02 -0.12365506185E+03  0.13170050479E+03  0.20622428046E+03  0.71982507560E+02 0.  0.
          5    1    3    3  501    0 -0.18870568777E+02 -0.17492585729E+02 -0.66764552628E+00  0.26165333401E+02  0.47000000000E+01 0. -1.
        -13    1    4    4    0    0 -0.56134037182E+01  0.14379880693E+02  0.32265374870E+02  0.35767942149E+02  0.00000000000E+00 0.  1.
         14    1    4    4    0    0  0.62546251223E+02  0.20293572754E+03  0.69129093269E+02  0.22332437079E+03  0.00000000000E+00 0. -1.
         -5    1    5    5    0  502  0.30577179098E+02 -0.76167960655E+02  0.22577868393E+03  0.24028030762E+03  0.47000000000E+01 0.  1.
         13    1    6    6    0    0 -0.83117151124E+02 -0.11309740724E+03  0.12128901755E+03  0.18550070112E+03  0.00000000000E+00 0. -1.
        -14    1    6    6    0    0  0.14477693298E+02 -0.10557654612E+02  0.10411487239E+02  0.20723579340E+02  0.00000000000E+00 0.  1.
<mgrwt>
<rscale>  2 0.26737162E+03</rscale>
<asrwt>0</asrwt>
<pdfrwt beam="1">  1       21 0.91536017E-01 0.26753500E+03</pdfrwt>
<pdfrwt beam="2">  1       21 0.21042787E-01 0.26753500E+03</pdfrwt>
<totfact> 0.20365946E+04</totfact>
</mgrwt>
</event>
<event>
12    1  0.1029207E-001  0.2369346E+03  0.7546771E-02  0.1123310E+00
         21   -1    0    0  503  502  0.00000000000E+00  0.00000000000E+00  0.50192847489E+02  0.50192847489E+02  0.00000000000E+00 0. -1.
         21   -1    0    0  501  503 -0.00000000000E+00 -0.00000000000E+00 -0.16958791696E+04  0.16958791696E+04  0.00000000000E+00 0.  1.
          6    2    1    2  501    0  0.13936002229E+03 -0.61193018408E+02 -0.13588603363E+04  0.13793619669E+04  0.18158254581E+03 0.  0.
         24    2    3    3    0    0  0.15847339121E+03 -0.91974606424E+02 -0.11755406198E+04  0.11924367533E+04  0.80227912143E+02 0.  0.
         -6    2    1    2    0  502 -0.13936002229E+03  0.61193018408E+02 -0.28682598581E+03  0.36671005015E+03  0.17041512091E+03 0.  0.
        -24    2    5    5    0    0 -0.14240171590E+02  0.46882108063E+02 -0.75405985177E+02  0.12057942252E+03  0.80328201715E+02 0.  0.
          5    1    3    3  501    0 -0.19113368926E+02  0.30781588016E+02 -0.18331971653E+03  0.18692521366E+03  0.47000000000E+01 0. -1.
        -13    1    4    4    0    0  0.19576315100E+02 -0.49314336751E+02 -0.38710169959E+03  0.39072095125E+03  0.00000000000E+00 0.  1.
         14    1    4    4    0    0  0.13889707611E+03 -0.42660269673E+02 -0.78843892018E+03  0.80171580202E+03  0.00000000000E+00 0. -1.
         -5    1    5    5    0  502 -0.12511985070E+03  0.14310910346E+02 -0.21142000063E+03  0.24613062764E+03  0.47000000000E+01 0.  1.
         11    1    6    6    0    0 -0.16849207748E+02  0.10644450677E+02  0.13811637299E+02  0.24247916546E+02  0.00000000000E+00 0. -1.
        -12    1    6    6    0    0  0.26090361574E+01  0.36237657385E+02 -0.89217622476E+02  0.96331505971E+02  0.00000000000E+00 0.  1.
<mgrwt>
<rscale>  2 0.23479434E+03</rscale>
<asrwt>0</asrwt>
<pdfrwt beam="1">  1       21 0.77219760E-02 0.23693464E+03</pdfrwt>
<pdfrwt beam="2">  1       21 0.26090451E+00 0.23693464E+03</pdfrwt>
<totfact> 0.70275832E+03</totfact>
</mgrwt>
</event>
<event>
12    1  0.1029207E-001  0.1802079E+03  0.7546771E-02  0.1167889E+00
         21   -1    0    0  501  502  0.00000000000E+00  0.00000000000E+00  0.59829179049E+02  0.59829179049E+02  0.00000000000E+00 0. -1.
         21   -1    0    0  502  503 -0.00000000000E+00 -0.00000000000E+00 -0.63654418774E+03  0.63654418774E+03  0.00000000000E+00 0. -1.
         -6    2    1    2    0  503  0.12360643243E+02  0.42701515184E+02 -0.42529631676E+03  0.46190025174E+03  0.17463871453E+03 0.  0.
        -24    2    3    3    0    0  0.10534583359E+02 -0.40002824723E+02 -0.27997525015E+03  0.29461712428E+03  0.81865168356E+02 0.  0.
          6    2    1    2  501    0 -0.12360643243E+02 -0.42701515184E+02 -0.15141869193E+03  0.23447311504E+03  0.17341803975E+03 0.  0.
         24    2    5    5    0    0 -0.94114023109E+01  0.15692708073E+02 -0.15525829759E+03  0.17569032927E+03  0.80169303646E+02 0.  0.
          5    1    5    5  501    0 -0.29492409325E+01 -0.58394223256E+02  0.38396056615E+01  0.58782785775E+02  0.47000000000E+01 0. -1.
        -13    1    6    6    0    0 -0.23682968271E+02 -0.19238354294E+02 -0.12078724240E+03  0.12458152025E+03  0.00000000000E+00 0.  1.
         14    1    6    6    0    0  0.14271565960E+02  0.34931062366E+02 -0.34471055195E+02  0.51108809018E+02  0.00000000000E+00 0. -1.
         -5    1    3    3    0  503  0.18260598843E+01  0.82704339907E+02 -0.14532106661E+03  0.16728312747E+03  0.47000000000E+01 0.  1.
         13    1    4    4    0    0  0.53582112857E+01  0.25479265135E+02 -0.79325922732E+02  0.83489552624E+02  0.00000000000E+00 0. -1.
        -14    1    4    4    0    0  0.51763720735E+01 -0.65482089858E+02 -0.20064932742E+03  0.21112757165E+03  0.00000000000E+00 0.  1.
<mgrwt>
<rscale>  2 0.17991149E+03</rscale>
<asrwt>0</asrwt>
<pdfrwt beam="1">  1       21 0.92044892E-02 0.18020790E+03</pdfrwt>
<pdfrwt beam="2">  1       21 0.97929874E-01 0.18020790E+03</pdfrwt>
<totfact> 0.81437772E+04</totfact>
</mgrwt>
</event>
<event>
12    1  0.1029207E-001  0.2117283E+03  0.7546771E-02  0.1140207E+00
         21   -1    0    0  501  502  0.00000000000E+00  0.00000000000E+00  0.16358385414E+03  0.16358385414E+03  0.00000000000E+00 0. -1.
         21   -1    0    0  502  503 -0.00000000000E+00 -0.00000000000E+00 -0.32531966765E+03  0.32531966765E+03  0.00000000000E+00 0.  1.
         -6    2    1    2    0  503  0.46507770127E+02  0.11286261837E+03 -0.17793467557E+03  0.27656758743E+03  0.17299693159E+03 0.  0.
        -24    2    3    3    0    0  0.20316654561E+02  0.75107641075E+02 -0.28595121674E+02  0.12024802626E+03  0.87109027293E+02 0.  0.
          6    2    1    2  501    0 -0.46507770127E+02 -0.11286261837E+03  0.16198862058E+02  0.21233593436E+03  0.17298324364E+03 0.  0.
         24    2    5    5    0    0 -0.97105348833E+02 -0.95548269532E+02  0.17013959993E+02  0.15864556249E+03  0.79498547668E+02 0.  0.
          5    1    5    5  501    0  0.50597578706E+02 -0.17314348835E+02 -0.81509793431E+00  0.53690371866E+02  0.47000000000E+01 0. -1.
        -11    1    6    6    0    0 -0.47405198959E+02 -0.27565934980E+02 -0.29680073657E+02  0.62354153285E+02  0.00000000000E+00 0.  1.
         12    1    6    6    0    0 -0.49700149874E+02 -0.67982334553E+02  0.46694033649E+02  0.96291409208E+02  0.00000000000E+00 0. -1.
         -5    1    3    3    0  503  0.26191115566E+02  0.37754977292E+02 -0.14933955390E+03  0.15631956117E+03  0.47000000000E+01 0.  1.
         13    1    4    4    0    0 -0.18583505780E+02  0.36747428235E+02 -0.47103247196E+02  0.62565454249E+02  0.00000000000E+00 0. -1.
        -14    1    4    4    0    0  0.38900160341E+02  0.38360212841E+02  0.18508125522E+02  0.57682572014E+02  0.00000000000E+00 0.  1.
<mgrwt>
<rscale>  2 0.21172552E+03</rscale>
<asrwt>0</asrwt>
<pdfrwt beam="1">  1       21 0.25166747E-01 0.21172832E+03</pdfrwt>
<pdfrwt beam="2">  1       21 0.50049179E-01 0.21172832E+03</pdfrwt>
<totfact> 0.56365033E+04</totfact>
</mgrwt>
</event>
<event>
12    1  0.1029207E-001  0.2853335E+03  0.7546771E-02  0.1093768E+00
         21   -1    0    0  501  502  0.00000000000E+00  0.00000000000E+00  0.92056110766E+03  0.92056110766E+03  0.00000000000E+00 0. -1.
         21   -1    0    0  502  503 -0.00000000000E+00 -0.00000000000E+00 -0.22058791246E+03  0.22058791246E+03  0.00000000000E+00 0.  1.
         -6    2    1    2    0  503 -0.22706143570E+03 -0.29687024116E+02 -0.96975458155E+02  0.29466075251E+03  0.15805854801E+03 0.  0.
        -24    2    3    3    0    0 -0.13627132288E+03  0.11978968757E+02 -0.96939128804E+01  0.16192395394E+03  0.86093122728E+02 0.  0.
          6    2    1    2  501    0  0.22706143570E+03  0.29687024116E+02  0.79694865336E+03  0.84648826762E+03  0.17022636735E+03 0.  0.
         24    2    5    5    0    0  0.49935986495E+02 -0.28922536356E+02  0.26954773715E+03  0.28704003788E+03  0.80036772102E+02 0.  0.
          5    1    5    5  501    0  0.17712544921E+03  0.58609560472E+02  0.52740091620E+03  0.55944822973E+03  0.47000000000E+01 0. -1.
        -13    1    6    6    0    0  0.24277732937E+02 -0.23605634984E+02  0.27621170154E+02  0.43698551008E+02  0.00000000000E+00 0.  1.
         14    1    6    6    0    0  0.25658253558E+02 -0.53169013726E+01  0.24192656700E+03  0.24334148688E+03  0.00000000000E+00 0. -1.
         -5    1    3    3    0  503 -0.90790112821E+02 -0.41665992872E+02 -0.87281545275E+02  0.13273679857E+03  0.47000000000E+01 0.  1.
         11    1    4    4    0    0 -0.14500351417E+03  0.53792052281E+01 -0.20498341211E+02  0.14654397621E+03  0.00000000000E+00 0. -1.
        -12    1    4    4    0    0  0.87321912931E+01  0.65997635285E+01  0.10804428330E+02  0.15379977730E+02  0.00000000000E+00 0.  1.
<mgrwt>
<rscale>  2 0.28354486E+03</rscale>
<asrwt>0</asrwt>
<pdfrwt beam="1">  1       21 0.14162478E+00 0.28533354E+03</pdfrwt>
<pdfrwt beam="2">  1       21 0.33936602E-01 0.28533354E+03</pdfrwt>
<totfact> 0.27087683E+03</totfact>
</mgrwt>
</event>
<event>
12    1  0.1029207E-001  0.2597334E+03  0.7546771E-02  0.1107410E+00
         21   -1    0    0  501  502  0.00000000000E+00  0.00000000000E+00  0.16319217557E+03  0.16319217557E+03  0.00000000000E+00 0.  1.
         21   -1    0    0  502  503 -0.00000000000E+00 -0.00000000000E+00 -0.15956523914E+04  0.15956523914E+04  0.00000000000E+00 0. -1.
         -6    2    1    2    0  503  0.16247540314E+03  0.10422191557E+03 -0.14738248376E+04  0.14965363676E+04  0.17378430101E+03 0.  0.
        -24    2    3    3    0    0  0.17260226478E+03  0.40822455355E+02 -0.11753357997E+04  0.11911843730E+04  0.77768590319E+02 0.  0.
          6    2    1    2  501    0 -0.16247540314E+03 -0.10422191557E+03  0.41364621826E+02  0.26230819933E+03  0.17272549083E+03 0.  0.
         24    2    5    5    0    0 -0.15354787800E+03 -0.53067324839E+02  0.80163575405E+02  0.19731634093E+03  0.78194934444E+02 0.  0.
          5    1    5    5  501    0 -0.89275251360E+01 -0.51154590735E+02 -0.38798953579E+02  0.64991858391E+02  0.47000000000E+01 0. -1.
        -13    1    6    6    0    0 -0.12257278417E+03 -0.62075664159E+02  0.34943244271E+02  0.14176919913E+03  0.00000000000E+00 0.  1.
         14    1    6    6    0    0 -0.30975093831E+02  0.90083393207E+01  0.45220331133E+02  0.55547141808E+02  0.00000000000E+00 0. -1.
         -5    1    3    3    0  503 -0.10126861635E+02  0.63399460219E+02 -0.29848903790E+03  0.30535199463E+03  0.47000000000E+01 0.  1.
         13    1    4    4    0    0  0.21357785928E+02  0.30127851951E+01 -0.38589514078E+03  0.38649746645E+03  0.00000000000E+00 0. -1.
        -14    1    4    4    0    0  0.15124447885E+03  0.37809670160E+02 -0.78944065895E+03  0.80468690653E+03  0.00000000000E+00 0.  1.
<mgrwt>
<rscale>  2 0.25955643E+03</rscale>
<asrwt>0</asrwt>
<pdfrwt beam="1">  1       21 0.25106490E-01 0.25973342E+03</pdfrwt>
<pdfrwt beam="2">  1       21 0.24548497E+00 0.25973342E+03</pdfrwt>
<totfact> 0.98929122E+02</totfact>
</mgrwt>
</event>
<event>
12    1  0.1029207E-001  0.1869641E+03  0.7546771E-02  0.1161336E+00
         21   -1    0    0  503  502  0.00000000000E+00  0.00000000000E+00  0.75453943025E+03  0.75453943025E+03  0.00000000000E+00 0. -1.
         21   -1    0    0  501  503 -0.00000000000E+00 -0.00000000000E+00 -0.46604133560E+02  0.46604133560E+02  0.00000000000E+00 0. -1.
          6    2    1    2  501    0  0.41391023277E+02  0.56986698934E+02  0.31675621931E+03  0.36758082059E+03  0.17268600559E+03 0.  0.
         24    2    3    3    0    0  0.28178042364E+02  0.63305654562E+02  0.88037028926E+02  0.13834498108E+03  0.81161612577E+02 0.  0.
         -6    2    1    2    0  502 -0.41391023277E+02 -0.56986698934E+02  0.39117907738E+03  0.43356274323E+03  0.17319030305E+03 0.  0.
        -24    2    5    5    0    0 -0.23499783915E+02 -0.77719932957E+02  0.13935575022E+03  0.18021112681E+03  0.80395256598E+02 0.  0.
          5    1    3    3  501    0  0.13212980912E+02 -0.63189556283E+01  0.22871919039E+03  0.22923583951E+03  0.47000000000E+01 0. -1.
        -11    1    4    4    0    0  0.30718476371E+02 -0.62554283525E+01  0.81583811935E+01  0.32393122081E+02  0.00000000000E+00 0.  1.
         12    1    4    4    0    0 -0.25404340067E+01  0.69561082915E+02  0.79878647732E+02  0.10595185900E+03  0.00000000000E+00 0. -1.
         -5    1    5    5    0  502 -0.17891239362E+02  0.20733234023E+02  0.25182332716E+03  0.25335161641E+03  0.47000000000E+01 0.  1.
         11    1    6    6    0    0  0.37468472787E+01 -0.68481923178E+02  0.13457865414E+03  0.15104710132E+03  0.00000000000E+00 0. -1.
        -12    1    6    6    0    0 -0.27246631193E+02 -0.92380097783E+01  0.47770960861E+01  0.29164025495E+02  0.00000000000E+00 0.  1.
<mgrwt>
<rscale>  2 0.18684725E+03</rscale>
<asrwt>0</asrwt>
<pdfrwt beam="1">  1       21 0.11608298E+00 0.18696412E+03</pdfrwt>
<pdfrwt beam="2">  1       21 0.71698673E-02 0.18696412E+03</pdfrwt>
<totfact> 0.83369988E+04</totfact>
</mgrwt>
</event>
<event>
12    1  0.1029207E-001  0.1937469E+03  0.7546771E-02  0.1158400E+00
         21   -1    0    0  503  502  0.00000000000E+00  0.00000000000E+00  0.15322478059E+04  0.15322478059E+04  0.00000000000E+00 0.  1.
         21   -1    0    0  501  503 -0.00000000000E+00 -0.00000000000E+00 -0.17068313406E+03  0.17068313406E+03  0.00000000000E+00 0.  1.
          6    2    1    2  501    0  0.73262939849E+02  0.44222487633E+02 -0.10842974493E+03  0.22202446699E+03  0.17382395573E+03 0.  0.
         24    2    3    3    0    0  0.10655987661E+03  0.59813504397E+01 -0.46016751394E+02  0.14147297827E+03  0.80661504555E+02 0.  0.
         -6    2    1    2    0  502 -0.73262939849E+02 -0.44222487633E+02  0.14699944168E+04  0.14809064730E+04  0.15772542470E+03 0.  0.
        -24    2    5    5    0    0  0.55411968176E+01 -0.56789622389E+02  0.76123457868E+03  0.76765292555E+03  0.80976319049E+02 0.  0.
          5    1    3    3  501    0 -0.33296936759E+02  0.38241137193E+02 -0.62412993538E+02  0.80551488712E+02  0.47000000000E+01 0. -1.
        -13    1    4    4    0    0  0.48011284140E+02  0.34188860658E+02 -0.48657960106E+02  0.76430090145E+02  0.00000000000E+00 0.  1.
         14    1    4    4    0    0  0.58548592468E+02 -0.28207510219E+02  0.26412087121E+01  0.65042888129E+02  0.00000000000E+00 0. -1.
         -5    1    5    5    0  502 -0.78804136667E+02  0.12567134756E+02  0.70875983807E+03  0.71325354741E+03  0.47000000000E+01 0.  1.
         11    1    6    6    0    0 -0.30044306495E+02  0.91645754323E+00  0.18217993477E+03  0.18464297680E+03  0.00000000000E+00 0. -1.
        -12    1    6    6    0    0  0.35585503312E+02 -0.57706079932E+02  0.57905464391E+03  0.58300994875E+03  0.00000000000E+00 0.  1.
<mgrwt>
<rscale>  2 0.19006786E+03</rscale>
<asrwt>0</asrwt>
<pdfrwt beam="1">  1       21 0.23573042E+00 0.19374688E+03</pdfrwt>
<pdfrwt beam="2">  1       21 0.26258945E-01 0.19374688E+03</pdfrwt>
<totfact> 0.11124198E+03</totfact>
</mgrwt>
</event>
<event>
12    1  0.1029207E-001  0.4109389E+03  0.7546771E-02  0.1040151E+00
         21   -1    0    0  501  502  0.00000000000E+00  0.00000000000E+00  0.23006105857E+04  0.23006105857E+04  0.00000000000E+00 0.  1.
         21   -1    0    0  502  503 -0.00000000000E+00 -0.00000000000E+00 -0.74421701106E+02  0.74421701106E+02  0.00000000000E+00 0.  1.
         -6    2    1    2    0  503 -0.31744386157E+03  0.19366164051E+03  0.12666449167E+04  0.13316381417E+04  0.17491529162E+03 0.  0.
        -24    2    3    3    0    0 -0.15181997156E+03  0.31470005828E+02  0.64114499666E+03  0.66454771362E+03  0.80728507361E+02 0.  0.
          6    2    1    2  501    0  0.31744386157E+03 -0.19366164051E+03  0.95954396793E+03  0.10433941451E+04  0.17225353239E+03 0.  0.
         24    2    5    5    0    0  0.14484698853E+03 -0.15325021584E+03  0.43987679010E+03  0.49430505440E+03  0.79872508395E+02 0.  0.
          5    1    5    5  501    0  0.17259687304E+03 -0.40411424665E+02  0.51966717784E+03  0.54908909072E+03  0.47000000000E+01 0. -1.
        -13    1    6    6    0    0  0.97087592036E+02 -0.14744930357E+03  0.36223369983E+03  0.40296470186E+03  0.00000000000E+00 0.  1.
         14    1    6    6    0    0  0.47759396490E+02 -0.58009122757E+01  0.77643090266E+02  0.91340352541E+02  0.00000000000E+00 0. -1.
         -5    1    3    3    0  503 -0.16562389001E+03  0.16219163468E+03  0.62549992002E+03  0.66709042809E+03  0.47000000000E+01 0.  1.
         11    1    4    4    0    0 -0.23159870547E+02  0.33669372801E+02  0.23433030445E+03  0.23786697512E+03  0.00000000000E+00 0. -1.
        -12    1    4    4    0    0 -0.12866010102E+03 -0.21993669725E+01  0.40681469222E+03  0.42668073851E+03  0.00000000000E+00 0.  1.
<mgrwt>
<rscale>  2 0.41065716E+03</rscale>
<asrwt>0</asrwt>
<pdfrwt beam="1">  1       21 0.35394004E+00 0.41093892E+03</pdfrwt>
<pdfrwt beam="2">  1       21 0.11449494E-01 0.41093892E+03</pdfrwt>
<totfact> 0.85723441E+02</totfact>
</mgrwt>
</event>
<event>
12    1  0.1029207E-001  0.1910756E+03  0.7546771E-02  0.1157626E+00
         21   -1    0    0  503  502  0.00000000000E+00  0.00000000000E+00  0.74430223629E+03  0.74430223629E+03  0.00000000000E+00 0.  1.
         21   -1    0    0  501  503 -0.00000000000E+00 -0.00000000000E+00 -0.17197647649E+03  0.17197647649E+03  0.00000000000E+00 0.  1.
          6    2    1    2  501    0 -0.65847097525E+02 -0.44644344065E+02 -0.10127851062E+03  0.21625730398E+03  0.17372658721E+03 0.  0.
         24    2    3    3    0    0 -0.63041157497E+02 -0.92403647078E+02 -0.96489180488E+02  0.16794734634E+03  0.79896981552E+02 0.  0.
         -6    2    1    2    0  502  0.65847097525E+02  0.44644344065E+02  0.67360427042E+03  0.70002140879E+03  0.17308466693E+03 0.  0.
        -24    2    5    5    0    0  0.26211464535E+02  0.92649706899E+02  0.50273118571E+03  0.51810054869E+03  0.80115693844E+02 0.  0.
          5    1    3    3  501    0 -0.28059400286E+01  0.47759303013E+02 -0.47893301300E+01  0.48309957637E+02  0.47000000000E+01 0. -1.
        -11    1    4    4    0    0 -0.36826745612E+01 -0.18627842052E+02  0.13135717108E+02  0.23089080869E+02  0.00000000000E+00 0.  1.
         12    1    4    4    0    0 -0.59358482936E+02 -0.73775805027E+02 -0.10962489760E+03  0.14485826548E+03  0.00000000000E+00 0. -1.
         -5    1    5    5    0  502  0.39635632991E+02 -0.48005362834E+02  0.17087308471E+03  0.18192086010E+03  0.47000000000E+01 0.  1.
         11    1    6    6    0    0 -0.11542893073E+02 -0.32532946772E+01  0.15377129396E+03  0.15423823505E+03  0.00000000000E+00 0. -1.
        -12    1    6    6    0    0  0.37754357608E+02  0.95903001577E+02  0.34895989176E+03  0.36386231364E+03  0.00000000000E+00 0.  1.
<mgrwt>
<rscale>  2 0.19092957E+03</rscale>
<asrwt>0</asrwt>
<pdfrwt beam="1">  1       21 0.11450803E+00 0.19107560E+03</pdfrwt>
<pdfrwt beam="2">  1       21 0.26457920E-01 0.19107560E+03</pdfrwt>
<totfact> 0.80600549E+03</totfact>
</mgrwt>
</event>
<event>
12    1  0.1029207E-001  0.2191740E+03  0.7546771E-02  0.1134643E+00
         21   -1    0    0  501  502  0.00000000000E+00  0.00000000000E+00  0.36539992395E+02  0.36539992395E+02  0.00000000000E+00 0. -1.
         21   -1    0    0  502  503 -0.00000000000E+00 -0.00000000000E+00 -0.13521155864E+04  0.13521155864E+04  0.00000000000E+00 0. -1.
         -6    2    1    2    0  503  0.47520047956E+02 -0.12508228248E+03 -0.78128992220E+03  0.81145005512E+03  0.17359008346E+03 0.  0.
        -24    2    3    3    0    0  0.74216300308E+02 -0.13872301948E+03 -0.73855307079E+03  0.75903547638E+03  0.76955056199E+02 0.  0.
          6    2    1    2  501    0 -0.47520047956E+02  0.12508228248E+03 -0.53428567183E+03  0.57720552370E+03  0.17263054515E+03 0.  0.
         24    2    5    5    0    0 -0.69173681409E+02  0.12644837270E+03 -0.52914233989E+03  0.55441759032E+03  0.81320719558E+02 0.  0.
          5    1    5    5  501    0  0.21653633453E+02 -0.13660902219E+01 -0.51433319324E+01  0.22787933376E+02  0.47000000000E+01 0. -1.
        -11    1    6    6    0    0 -0.75068855682E+01 -0.64845803849E+01 -0.10904779186E+03  0.10949805488E+03  0.00000000000E+00 0.  1.
         12    1    6    6    0    0 -0.61666795841E+02  0.13293295308E+03 -0.42009454804E+03  0.44491953544E+03  0.00000000000E+00 0. -1.
         -5    1    3    3    0  503 -0.26696252351E+02  0.13640736999E+02 -0.42736851410E+02  0.52414578735E+02  0.47000000000E+01 0.  1.
         11    1    4    4    0    0  0.11235176603E+02 -0.87756517281E+02 -0.28896799956E+03  0.30220843848E+03  0.00000000000E+00 0. -1.
        -12    1    4    4    0    0  0.62981123704E+02 -0.50966502196E+02 -0.44958507123E+03  0.45682703790E+03  0.00000000000E+00 0.  1.
<mgrwt>
<rscale>  2 0.21898397E+03</rscale>
<asrwt>0</asrwt>
<pdfrwt beam="1">  1       21 0.56215379E-02 0.21917402E+03</pdfrwt>
<pdfrwt beam="2">  1       21 0.20801776E+00 0.21917402E+03</pdfrwt>
<totfact> 0.25818878E+04</totfact>
</mgrwt>
</event>
<event>
12    1  0.1029207E-001  0.2765988E+03  0.7546771E-02  0.1098319E+00
         21   -1    0    0  503  502  0.00000000000E+00  0.00000000000E+00  0.22623860669E+03  0.22623860669E+03  0.00000000000E+00 0.  1.
         21   -1    0    0  501  503 -0.00000000000E+00 -0.00000000000E+00 -0.58054443939E+03  0.58054443939E+03  0.00000000000E+00 0.  1.
          6    2    1    2  501    0  0.20659805288E+03 -0.38361222733E+02 -0.44230280892E+03  0.52166910632E+03  0.17986812627E+03 0.  0.
         24    2    3    3    0    0  0.15217121779E+03 -0.60389245884E+02 -0.19152428221E+03  0.26406578018E+03  0.79033189497E+02 0.  0.
         -6    2    1    2    0  502 -0.20659805288E+03  0.38361222733E+02  0.87996976217E+02  0.28511393976E+03  0.17144139510E+03 0.  0.
        -24    2    5    5    0    0 -0.62142263623E+02 -0.11567087387E+02 -0.20082403791E+02  0.97861293351E+02  0.71958817080E+02 0.  0.
          5    1    3    3  501    0  0.54426835091E+02  0.22028023151E+02 -0.25077852671E+03  0.25760332615E+03  0.47000000000E+01 0. -1.
        -11    1    4    4    0    0  0.71661423900E+02 -0.31163995912E+01 -0.12762382335E+03  0.14639983575E+03  0.00000000000E+00 0.  1.
         12    1    4    4    0    0  0.80509793894E+02 -0.57272846292E+02 -0.63900458860E+02  0.11766594443E+03  0.00000000000E+00 0. -1.
         -5    1    5    5    0  502 -0.14445578926E+03  0.49928310119E+02  0.10807938001E+03  0.18725264640E+03  0.47000000000E+01 0.  1.
         13    1    6    6    0    0 -0.64519455985E+02  0.88103446023E+01 -0.33616743284E+02  0.73283475639E+02  0.00000000000E+00 0. -1.
        -14    1    6    6    0    0  0.23771923620E+01 -0.20377431989E+02  0.13534339493E+02  0.24577817713E+02  0.00000000000E+00 0.  1.
<mgrwt>
<rscale>  2 0.27523771E+03</rscale>
<asrwt>0</asrwt>
<pdfrwt beam="1">  1       21 0.34805940E-01 0.27659877E+03</pdfrwt>
<pdfrwt beam="2">  1       21 0.89314529E-01 0.27659877E+03</pdfrwt>
<totfact> 0.80769532E+03</totfact>
</mgrwt>
</event>
<event>
12    1  0.1029207E-001  0.1843661E+03  0.7546771E-02  0.1165533E+00
         21   -1    0    0  501  502  0.00000000000E+00  0.00000000000E+00  0.10412424927E+04  0.10412424927E+04  0.00000000000E+00 0.  1.
         21   -1    0    0  502  503 -0.00000000000E+00 -0.00000000000E+00 -0.65745633022E+02  0.65745633022E+02  0.00000000000E+00 0.  1.
         -6    2    1    2    0  503 -0.28652002968E+02 -0.14268363429E+02  0.81900339420E+02  0.19457068674E+03  0.17356717164E+03 0.  0.
        -24    2    3    3    0    0 -0.25883161922E+02  0.55954382780E+02  0.23088308111E+02  0.10281097013E+03  0.78969580114E+02 0.  0.
          6    2    1    2  501    0  0.28652002968E+02  0.14268363429E+02  0.89359652022E+03  0.91241743894E+03  0.18156629223E+03 0.  0.
         24    2    5    5    0    0 -0.52059571091E+02  0.32127784340E+02  0.45550683043E+03  0.46657219292E+03  0.80378760695E+02 0.  0.
          5    1    5    5  501    0  0.80711574059E+02 -0.17859420911E+02  0.43808968978E+03  0.44584524602E+03  0.47000000000E+01 0. -1.
        -11    1    6    6    0    0 -0.51680466879E+02  0.95402425197E+01  0.42689190346E+03  0.43011461743E+03  0.00000000000E+00 0.  1.
         12    1    6    6    0    0 -0.37910421183E+00  0.22587541820E+02  0.28614926969E+02  0.36457575494E+02  0.00000000000E+00 0. -1.
         -5    1    3    3    0  503 -0.27688410460E+01 -0.70222746208E+02  0.58812031309E+02  0.91759716611E+02  0.47000000000E+01 0.  1.
         13    1    4    4    0    0 -0.19647279148E+02  0.62321264735E+02  0.44876386536E+02  0.79270711392E+02  0.00000000000E+00 0. -1.
        -14    1    4    4    0    0 -0.62358827738E+01 -0.63668819554E+01 -0.21788078425E+02  0.23540258734E+02  0.00000000000E+00 0.  1.
<mgrwt>
<rscale>  2 0.18236569E+03</rscale>
<asrwt>0</asrwt>
<pdfrwt beam="1">  1       21 0.16019114E+00 0.18436605E+03</pdfrwt>
<pdfrwt beam="2">  1       21 0.10114713E-01 0.18436605E+03</pdfrwt>
<totfact> 0.20066071E+04</totfact>
</mgrwt>
</event>
<event>
12    1  0.1029207E-001  0.2705862E+03  0.7546771E-02  0.1101117E+00
         21   -1    0    0  501  502  0.00000000000E+00  0.00000000000E+00  0.40034638319E+03  0.40034638319E+03  0.00000000000E+00 0. -1.
         21   -1    0    0  502  503 -0.00000000000E+00 -0.00000000000E+00 -0.24928557236E+03  0.24928557236E+03  0.00000000000E+00 0.  1.
         -6    2    1    2    0  503 -0.25087582532E+02  0.20628537822E+03 -0.93011976251E+02  0.28612610010E+03  0.17330283715E+03 0.  0.
        -24    2    3    3    0    0  0.47903298506E+02  0.14309485802E+03 -0.92819903429E+02  0.18946774583E+03  0.67168652187E+02 0.  0.
          6    2    1    2  501    0  0.25087582532E+02 -0.20628537822E+03  0.24407278708E+03  0.36350585546E+03  0.17141160257E+03 0.  0.
         24    2    5    5    0    0  0.57799511572E+02 -0.12951834401E+03  0.84769380696E+02  0.18360890404E+03  0.80066202408E+02 0.  0.
          5    1    5    5  501    0 -0.32711929040E+02 -0.76767034215E+02  0.15930340638E+03  0.17989695142E+03  0.47000000000E+01 0. -1.
        -13    1    6    6    0    0  0.39940338568E+02 -0.52587340765E+02  0.81048773411E+02  0.10454454900E+03  0.00000000000E+00 0.  1.
         14    1    6    6    0    0  0.17859173004E+02 -0.76931003242E+02  0.37206072851E+01  0.79064355046E+02  0.00000000000E+00 0. -1.
         -5    1    3    3    0  503 -0.72990881038E+02  0.63190520201E+02 -0.19207282193E+00  0.96658354269E+02  0.47000000000E+01 0.  1.
         11    1    4    4    0    0  0.43077371018E+02  0.80644372630E+02 -0.20323319943E+02  0.93660087893E+02  0.00000000000E+00 0. -1.
        -12    1    4    4    0    0  0.48259274880E+01  0.62450485391E+02 -0.72496583486E+02  0.95807657934E+02  0.00000000000E+00 0.  1.
<mgrwt>
<rscale>  2 0.27028390E+03</rscale>
<asrwt>0</asrwt>
<pdfrwt beam="1">  1       21 0.61591751E-01 0.27058625E+03</pdfrwt>
<pdfrwt beam="2">  1       21 0.38351627E-01 0.27058625E+03</pdfrwt>
<totfact> 0.15383008E+04</totfact>
</mgrwt>
</event>
<event>
12    1  0.1029207E-001  0.1800194E+03  0.7546771E-02  0.1167924E+00
         21   -1    0    0  503  502  0.00000000000E+00  0.00000000000E+00  0.26452100161E+03  0.26452100161E+03  0.00000000000E+00 0.  1.
         21   -1    0    0  501  503 -0.00000000000E+00 -0.00000000000E+00 -0.23221224961E+03  0.23221224961E+03  0.00000000000E+00 0.  1.
          6    2    1    2  501    0  0.33627579467E+01 -0.48016858135E+02 -0.15487151444E+03  0.23703449966E+03  0.17286769865E+03 0.  0.
         24    2    3    3    0    0 -0.53199702810E+02 -0.43462195972E+02 -0.14252519371E+03  0.17877148781E+03  0.83226457050E+02 0.  0.
         -6    2    1    2    0  502 -0.33627579467E+01  0.48016858135E+02  0.18718026644E+03  0.25969875156E+03  0.17346487429E+03 0.  0.
        -24    2    5    5    0    0  0.49665530204E+02 -0.51147793320E+01  0.99187141849E+02  0.14394102949E+03  0.91586598391E+02 0.  0.
          5    1    3    3  501    0  0.56562460757E+02 -0.45546621633E+01 -0.12346320735E+02  0.58263011851E+02  0.47000000000E+01 0. -1.
        -13    1    4    4    0    0 -0.75732716662E+02 -0.30852336957E+02 -0.10223663724E+03  0.13091845196E+03  0.00000000000E+00 0.  1.
         14    1    4    4    0    0  0.22533013852E+02 -0.12609859015E+02 -0.40288556468E+02  0.47853035849E+02  0.00000000000E+00 0. -1.
         -5    1    5    5    0  502 -0.53028288150E+02  0.53131637467E+02  0.87993124589E+02  0.11575772207E+03  0.47000000000E+01 0.  1.
         11    1    6    6    0    0  0.31273897059E+02 -0.21846152843E+02 -0.34792358371E+01  0.38306867704E+02  0.00000000000E+00 0. -1.
        -12    1    6    6    0    0  0.18391633145E+02  0.16731373511E+02  0.10266637769E+03  0.10563416179E+03  0.00000000000E+00 0.  1.
<mgrwt>
<rscale>  2 0.17987540E+03</rscale>
<asrwt>0</asrwt>
<pdfrwt beam="1">  1       21 0.40695539E-01 0.18001941E+03</pdfrwt>
<pdfrwt beam="2">  1       21 0.35724961E-01 0.18001941E+03</pdfrwt>
<totfact> 0.44220085E+04</totfact>
</mgrwt>
</event>
<event>
12    1  0.1029207E-001  0.1802196E+03  0.7546771E-02  0.1168838E+00
         21   -1    0    0  503  502  0.00000000000E+00  0.00000000000E+00  0.54653459862E+02  0.54653459862E+02  0.00000000000E+00 0.  1.
         21   -1    0    0  501  503 -0.00000000000E+00 -0.00000000000E+00 -0.59882578525E+03  0.59882578525E+03  0.00000000000E+00 0.  1.
          6    2    1    2  501    0 -0.31980499844E+02 -0.15439388615E+02 -0.32980472878E+03  0.37342109308E+03  0.17149643302E+03 0.  0.
         24    2    3    3    0    0 -0.55198733011E+02 -0.36155144675E+02 -0.32565990364E+03  0.34167997659E+03  0.79603636546E+02 0.  0.
         -6    2    1    2    0  502  0.31980499844E+02  0.15439388615E+02 -0.21436759661E+03  0.28005815204E+03  0.17668609157E+03 0.  0.
        -24    2    5    5    0    0  0.13149029151E+02 -0.72698487457E+01 -0.19437727066E+02  0.82852478208E+02  0.79126229806E+02 0.  0.
          5    1    3    3  501    0  0.23218233168E+02  0.20715756060E+02 -0.41448251438E+01  0.31741116490E+02  0.47000000000E+01 0. -1.
        -13    1    4    4    0    0 -0.21443219568E+02 -0.58368840523E+02 -0.21764605274E+03  0.22635489277E+03  0.00000000000E+00 0.  1.
         14    1    4    4    0    0 -0.33755513443E+02  0.22213695847E+02 -0.10801385090E+03  0.11532508382E+03  0.00000000000E+00 0. -1.
         -5    1    5    5    0  502  0.18831470692E+02  0.22709237361E+02 -0.19492986954E+03  0.19720567383E+03  0.47000000000E+01 0.  1.
         13    1    6    6    0    0 -0.25886576111E+02 -0.17312177129E+02 -0.27733465659E+02  0.41700976214E+02  0.00000000000E+00 0. -1.
        -14    1    6    6    0    0  0.39035605263E+02  0.10042328383E+02  0.82957385933E+01  0.41151501994E+02  0.00000000000E+00 0.  1.
<mgrwt>
<rscale>  2 0.17893469E+03</rscale>
<asrwt>0</asrwt>
<pdfrwt beam="1">  1       21 0.84082244E-02 0.18021959E+03</pdfrwt>
<pdfrwt beam="2">  1       21 0.92127046E-01 0.18021959E+03</pdfrwt>
<totfact> 0.11003110E+05</totfact>
</mgrwt>
</event>
<event>
12    1  0.1029207E-001  0.3298405E+03  0.7546771E-02  0.1071306E+00
         21   -1    0    0  501  502  0.00000000000E+00  0.00000000000E+00  0.48389065450E+03  0.48389065450E+03  0.00000000000E+00 0.  1.
         21   -1    0    0  502  503 -0.00000000000E+00 -0.00000000000E+00 -0.24024628682E+03  0.24024628682E+03  0.00000000000E+00 0. -1.
         -6    2    1    2    0  503  0.26218625721E+03  0.10040801272E+03  0.28482408461E+02  0.33106793764E+03  0.17312229566E+03 0.  0.
        -24    2    3    3    0    0  0.15388518173E+03 -0.11819292867E+02  0.16407754094E+02  0.17456880555E+03  0.79904371815E+02 0.  0.
          6    2    1    2  501    0 -0.26218625721E+03 -0.10040801272E+03  0.21516195922E+03  0.39306900367E+03  0.17142103274E+03 0.  0.
         24    2    5    5    0    0 -0.28098692436E+03 -0.10037145869E+03  0.20692580600E+03  0.37201216057E+03  0.80911538371E+02 0.  0.
          5    1    5    5  501    0  0.18800667152E+02 -0.36554021156E-01  0.82361532185E+01  0.21056843101E+02  0.47000000000E+01 0. -1.
        -13    1    6    6    0    0 -0.25139593557E+03 -0.63859558398E+02  0.19197030192E+03  0.32269266561E+03  0.00000000000E+00 0.  1.
         14    1    6    6    0    0 -0.29590988789E+02 -0.36511900296E+02  0.14955504084E+02  0.49319494961E+02  0.00000000000E+00 0. -1.
         -5    1    3    3    0  503  0.10830107548E+03  0.11222730558E+03  0.12074654367E+02  0.15649913209E+03  0.47000000000E+01 0.  1.
         13    1    4    4    0    0  0.15942397960E+03 -0.84373126358E+00  0.22225181821E+02  0.16096793426E+03  0.00000000000E+00 0. -1.
        -14    1    4    4    0    0 -0.55387978677E+01 -0.10975561604E+02 -0.58174277267E+01  0.13600871284E+02  0.00000000000E+00 0.  1.
<mgrwt>
<rscale>  2 0.32961780E+03</rscale>
<asrwt>0</asrwt>
<pdfrwt beam="1">  1       21 0.74444716E-01 0.32984046E+03</pdfrwt>
<pdfrwt beam="2">  1       21 0.36960967E-01 0.32984046E+03</pdfrwt>
<totfact> 0.10612500E+04</totfact>
</mgrwt>
</event>
<event>
12    1  0.1029207E-001  0.1877827E+03  0.7546771E-02  0.1161361E+00
         21   -1    0    0  501  502  0.00000000000E+00  0.00000000000E+00  0.33905523165E+03  0.33905523165E+03  0.00000000000E+00 0. -1.
         21   -1    0    0  502  503 -0.00000000000E+00 -0.00000000000E+00 -0.12241137368E+03  0.12241137368E+03  0.00000000000E+00 0. -1.
         -6    2    1    2    0  503  0.28702267405E+01  0.66258035476E+02  0.14795730610E+02  0.18836469733E+03  0.17568147338E+03 0.  0.
        -24    2    3    3    0    0  0.59134878694E+02  0.70757466927E+02 -0.17213154567E+02  0.12330614929E+03  0.80028499667E+02 0.  0.
          6    2    1    2  501    0 -0.28702267405E+01 -0.66258035476E+02  0.20184812735E+03  0.27310190800E+03  0.17159143385E+03 0.  0.
         24    2    5    5    0    0  0.55906984849E+02 -0.18709319427E+02  0.72371313821E+02  0.12309532067E+03  0.80244758817E+02 0.  0.
          5    1    5    5  501    0 -0.58777211589E+02 -0.47548716049E+02  0.12947681353E+03  0.15000658733E+03  0.47000000000E+01 0. -1.
        -11    1    6    6    0    0  0.20994426137E+02  0.26571152450E+02  0.52673953031E+02  0.62620582872E+02  0.00000000000E+00 0.  1.
         12    1    6    6    0    0  0.34912558712E+02 -0.45280471877E+02  0.19697360789E+02  0.60474737794E+02  0.00000000000E+00 0. -1.
         -5    1    3    3    0  503 -0.56264651953E+02 -0.44994314504E+01  0.32008885177E+02  0.65058548040E+02  0.47000000000E+01 0.  1.
         11    1    4    4    0    0  0.86648346136E-01  0.59598880853E+02  0.36077898705E+01  0.59708041792E+02  0.00000000000E+00 0. -1.
        -12    1    4    4    0    0  0.59048230347E+02  0.11158586074E+02 -0.20820944437E+02  0.63598107500E+02  0.00000000000E+00 0.  1.
<mgrwt>
<rscale>  2 0.18682013E+03</rscale>
<asrwt>0</asrwt>
<pdfrwt beam="1">  1       21 0.52162343E-01 0.18778271E+03</pdfrwt>
<pdfrwt beam="2">  1       21 0.18832519E-01 0.18778271E+03</pdfrwt>
<totfact> 0.90218234E+04</totfact>
</mgrwt>
</event>
<event>
12    1  0.1029207E-001  0.2113295E+03  0.7546771E-02  0.1143195E+00
         21   -1    0    0  503  502  0.00000000000E+00  0.00000000000E+00  0.26304516637E+03  0.26304516637E+03  0.00000000000E+00 0. -1.
         21   -1    0    0  501  503 -0.00000000000E+00 -0.00000000000E+00 -0.16010726706E+03  0.16010726706E+03  0.00000000000E+00 0. -1.
          6    2    1    2  501    0  0.92990079084E+02 -0.28736861101E+02  0.64256213703E+02  0.20831198420E+03  0.17260376522E+03 0.  0.
         24    2    3    3    0    0  0.52162659843E+02 -0.26567048030E+02  0.10911986675E+03  0.14743158000E+03  0.80013588470E+02 0.  0.
         -6    2    1    2    0  502 -0.92990079084E+02  0.28736861101E+02  0.38681685612E+02  0.21484044924E+03  0.18758247208E+03 0.  0.
        -24    2    5    5    0    0 -0.13113686522E+03  0.39323346850E+01  0.67297266353E+02  0.16088321354E+03  0.64359503283E+02 0.  0.
          5    1    3    3  501    0  0.40827419241E+02 -0.21698130706E+01 -0.44863653044E+02  0.60880404196E+02  0.47000000000E+01 0. -1.
        -13    1    4    4    0    0  0.45531335505E+02 -0.46193394890E+02  0.10885487077E+03  0.12671351599E+03  0.00000000000E+00 0.  1.
         14    1    4    4    0    0  0.66313243380E+01  0.19626346860E+02  0.26499597934E+00  0.20718064013E+02  0.00000000000E+00 0. -1.
         -5    1    5    5    0  502  0.38146786137E+02  0.24804526416E+02 -0.28615580741E+02  0.53957235701E+02  0.47000000000E+01 0.  1.
         13    1    6    6    0    0  0.16807758291E+00 -0.11213498487E+02  0.15020031799E+02  0.18744923410E+02  0.00000000000E+00 0. -1.
        -14    1    6    6    0    0 -0.13130494280E+03  0.15145833172E+02  0.52277234554E+02  0.14213829013E+03  0.00000000000E+00 0.  1.
<mgrwt>
<rscale>  2 0.20795568E+03</rscale>
<asrwt>0</asrwt>
<pdfrwt beam="1">  1       21 0.40468487E-01 0.21132947E+03</pdfrwt>
<pdfrwt beam="2">  1       21 0.24631887E-01 0.21132947E+03</pdfrwt>
<totfact> 0.90971891E+04</totfact>
</mgrwt>
</event>
<event>
12    1  0.1029207E-001  0.1807323E+03  0.7546771E-02  0.1167256E+00
         21   -1    0    0  501  502  0.00000000000E+00  0.00000000000E+00  0.15653639613E+03  0.15653639613E+03  0.00000000000E+00 0. -1.
         21   -1    0    0  502  503 -0.00000000000E+00 -0.00000000000E+00 -0.24396381552E+03  0.24396381552E+03  0.00000000000E+00 0. -1.
         -6    2    1    2    0  503 -0.38651973137E+02 -0.27037739178E+02  0.33343124890E+02  0.18313030544E+03  0.17378127179E+03 0.  0.
        -24    2    3    3    0    0 -0.76386470547E+02  0.99536516767E+01  0.56204995807E+02  0.12536344267E+03  0.81381958323E+02 0.  0.
          6    2    1    2  501    0  0.38651973137E+02  0.27037739178E+02 -0.12077054428E+03  0.21736990622E+03  0.17446815582E+03 0.  0.
         24    2    5    5    0    0  0.38112858829E+02  0.53017830137E+02 -0.10547882383E+02  0.10402802972E+03  0.80293790699E+02 0.  0.
          5    1    5    5  501    0  0.53911430812E+00 -0.25980090959E+02 -0.11022266190E+03  0.11334187649E+03  0.47000000000E+01 0. -1.
        -13    1    6    6    0    0  0.56555842417E+02  0.31416967777E+02 -0.28212372054E+02  0.70579934207E+02  0.00000000000E+00 0.  1.
         14    1    6    6    0    0 -0.18442983588E+02  0.21600862360E+02  0.17664489671E+02  0.33448095516E+02  0.00000000000E+00 0. -1.
         -5    1    3    3    0  503  0.37734497409E+02 -0.36991390855E+02 -0.22861870917E+02  0.57766862767E+02  0.47000000000E+01 0.  1.
         13    1    4    4    0    0  0.76719928773E+01  0.24351140340E+02  0.21164561064E+02  0.33162873151E+02  0.00000000000E+00 0. -1.
        -14    1    4    4    0    0 -0.84058463424E+02 -0.14397488663E+02  0.35040434742E+02  0.92200569521E+02  0.00000000000E+00 0.  1.
<mgrwt>
<rscale>  2 0.18056629E+03</rscale>
<asrwt>0</asrwt>
<pdfrwt beam="1">  1       21 0.24082523E-01 0.18073227E+03</pdfrwt>
<pdfrwt beam="2">  1       21 0.37532895E-01 0.18073227E+03</pdfrwt>
<totfact> 0.11183445E+05</totfact>
</mgrwt>
</event>
<event>
12    1  0.1029207E-001  0.2259772E+03  0.7546771E-02  0.1129828E+00
         21   -1    0    0  503  502  0.00000000000E+00  0.00000000000E+00  0.66674322576E+03  0.66674322576E+03  0.00000000000E+00 0. -1.
         21   -1    0    0  501  503 -0.00000000000E+00 -0.00000000000E+00 -0.10481325445E+03  0.10481325445E+03  0.00000000000E+00 0. -1.
          6    2    1    2  501    0 -0.10626825143E+03 -0.10075894849E+03  0.77828843364E+02  0.23730970469E+03  0.16974469098E+03 0.  0.
         24    2    3    3    0    0  0.10033409741E+02 -0.58284245637E+02  0.29842845432E+02  0.10443787633E+03  0.80740027175E+02 0.  0.
         -6    2    1    2    0  502  0.10626825143E+03  0.10075894849E+03  0.48410112795E+03  0.53424677553E+03  0.17210580500E+03 0.  0.
        -24    2    5    5    0    0  0.41625003864E+02  0.10351705088E+03  0.42389350388E+03  0.44574025271E+03  0.80933611576E+02 0.  0.
          5    1    3    3  501    0 -0.11630166117E+03 -0.42474702850E+02  0.47985997933E+02  0.13287182836E+03  0.47000000000E+01 0. -1.
        -11    1    4    4    0    0 -0.28269572339E+02 -0.54393970477E+02  0.14498354499E+02  0.62992658522E+02  0.00000000000E+00 0.  1.
         12    1    4    4    0    0  0.38302982081E+02 -0.38902751596E+01  0.15344490933E+02  0.41445217807E+02  0.00000000000E+00 0. -1.
         -5    1    5    5    0  502  0.64643247569E+02 -0.27581023923E+01  0.60207624067E+02  0.88506522815E+02  0.47000000000E+01 0.  1.
         13    1    6    6    0    0  0.22763273771E+02  0.47480544381E+01  0.24075400680E+02  0.33471414246E+02  0.00000000000E+00 0. -1.
        -14    1    6    6    0    0  0.18861730093E+02  0.98768996441E+02  0.39981810320E+03  0.41226883846E+03  0.00000000000E+00 0.  1.
<mgrwt>
<rscale>  2 0.22552765E+03</rscale>
<asrwt>0</asrwt>
<pdfrwt beam="1">  1       21 0.10257588E+00 0.22597724E+03</pdfrwt>
<pdfrwt beam="2">  1       21 0.16125116E-01 0.22597724E+03</pdfrwt>
<totfact> 0.26062583E+04</totfact>
</mgrwt>
</event>
<event>
12    1  0.1029207E-001  0.2025835E+03  0.7546771E-02  0.1147817E+00
         21   -1    0    0  501  502  0.00000000000E+00  0.00000000000E+00  0.58589776006E+03  0.58589776006E+03  0.00000000000E+00 0.  1.
         21   -1    0    0  502  503 -0.00000000000E+00 -0.00000000000E+00 -0.77182091250E+02  0.77182091250E+02  0.00000000000E+00 0.  1.
         -6    2    1    2    0  503 -0.10548153740E+03 -0.92360020226E+01  0.15012152603E+03  0.25121842785E+03  0.17135509168E+03 0.  0.
        -24    2    3    3    0    0 -0.11839020619E+03  0.26990891883E+02  0.15482137222E+03  0.21219023129E+03  0.79437319904E+02 0.  0.
          6    2    1    2  501    0  0.10548153740E+03  0.92360020226E+01  0.35859414279E+03  0.41186142347E+03  0.17270904561E+03 0.  0.
         24    2    5    5    0    0  0.63040750776E+02  0.19580231251E+02  0.35241074771E+03  0.36749310344E+03  0.80624588450E+02 0.  0.
          5    1    5    5  501    0  0.42440786623E+02 -0.10344229228E+02  0.61833950796E+01  0.44368320030E+02  0.47000000000E+01 0. -1.
        -11    1    6    6    0    0  0.83838341515E+01  0.39837937648E+02  0.20446161027E+03  0.20847517844E+03  0.00000000000E+00 0.  1.
         12    1    6    6    0    0  0.54656916624E+02 -0.20257706398E+02  0.14794913744E+03  0.15901792500E+03  0.00000000000E+00 0. -1.
         -5    1    3    3    0  503  0.12908668793E+02 -0.36226893905E+02 -0.46998461881E+01  0.39028196554E+02  0.47000000000E+01 0.  1.
         11    1    4    4    0    0 -0.11845914072E+03  0.32100453780E+02  0.10330517333E+03  0.16042121427E+03  0.00000000000E+00 0. -1.
        -12    1    4    4    0    0  0.68934528586E-01 -0.51095618977E+01  0.51516198892E+02  0.51769017018E+02  0.00000000000E+00 0.  1.
<mgrwt>
<rscale>  2 0.20229462E+03</rscale>
<asrwt>0</asrwt>
<pdfrwt beam="1">  1       21 0.90138114E-01 0.20258350E+03</pdfrwt>
<pdfrwt beam="2">  1       21 0.11874168E-01 0.20258350E+03</pdfrwt>
<totfact> 0.62302977E+04</totfact>
</mgrwt>
</event>
<event>
12    1  0.1029207E-001  0.2757118E+03  0.7546771E-02  0.1098109E+00
         21   -1    0    0  501  502  0.00000000000E+00  0.00000000000E+00  0.24933246617E+04  0.24933246617E+04  0.00000000000E+00 0.  1.
         21   -1    0    0  502  503 -0.00000000000E+00 -0.00000000000E+00 -0.30516724317E+02  0.30516724317E+02  0.00000000000E+00 0. -1.
         -6    2    1    2    0  503  0.19837301965E+03 -0.81928143582E+02  0.11711949120E+04  0.12032100999E+04  0.17306919693E+03 0.  0.
        -24    2    3    3    0    0  0.52590161255E+02 -0.85843004334E+02  0.58716842742E+03  0.60123253167E+03  0.81111334148E+02 0.  0.
          6    2    1    2  501    0 -0.19837301965E+03  0.81928143582E+02  0.12916130254E+04  0.13206312861E+04  0.17244915465E+03 0.  0.
         24    2    5    5    0    0 -0.62312873351E+02  0.32808940175E+02  0.29925427327E+03  0.31777384738E+03  0.80422492324E+02 0.  0.
          5    1    5    5  501    0 -0.13606014630E+03  0.49119203407E+02  0.99235875212E+03  0.10028574388E+04  0.47000000000E+01 0. -1.
        -13    1    6    6    0    0 -0.72978774330E+01 -0.25192006699E+02  0.90954011542E+02  0.94660067780E+02  0.00000000000E+00 0.  1.
         14    1    6    6    0    0 -0.55014995918E+02  0.58000946874E+02  0.20830026172E+03  0.22311377960E+03  0.00000000000E+00 0. -1.
         -5    1    3    3    0  503  0.14578285840E+03  0.39148607522E+01  0.58402648458E+03  0.60197756821E+03  0.47000000000E+01 0.  1.
         11    1    4    4    0    0  0.50836814303E+02 -0.45450655540E+02  0.18733790517E+03  0.19936307204E+03  0.00000000000E+00 0. -1.
        -12    1    4    4    0    0  0.17533469525E+01 -0.40392348793E+02  0.39983052224E+03  0.40186945963E+03  0.00000000000E+00 0.  1.
<mgrwt>
<rscale>  2 0.27561460E+03</rscale>
<asrwt>0</asrwt>
<pdfrwt beam="1">  1       21 0.38358825E+00 0.27571185E+03</pdfrwt>
<pdfrwt beam="2">  1       21 0.46948826E-02 0.27571185E+03</pdfrwt>
<totfact> 0.29895043E+03</totfact>
</mgrwt>
</event>
<event>
12    1  0.1029207E-001  0.1929434E+03  0.7546771E-02  0.1156187E+00
         21   -1    0    0  501  502  0.00000000000E+00  0.00000000000E+00  0.10043861001E+03  0.10043861001E+03  0.00000000000E+00 0. -1.
         21   -1    0    0  502  503 -0.00000000000E+00 -0.00000000000E+00 -0.36952169424E+03  0.36952169424E+03  0.00000000000E+00 0. -1.
         -6    2    1    2    0  503 -0.65862126578E+02  0.52839390987E+02 -0.15098863827E+03  0.24374476103E+03  0.17170940186E+03 0.  0.
        -24    2    3    3    0    0  0.23645677891E+02  0.47571858007E+02 -0.48486784565E+02  0.10747989404E+03  0.79867137092E+02 0.  0.
          6    2    1    2  501    0  0.65862126578E+02 -0.52839390987E+02 -0.11809444596E+03  0.22621554321E+03  0.17348588665E+03 0.  0.
         24    2    5    5    0    0 -0.22425730249E+02 -0.33096278115E+02 -0.82315096486E+02  0.12881539938E+03  0.90660658537E+02 0.  0.
          5    1    5    5  501    0  0.88287856827E+02 -0.19743112872E+02 -0.35779349475E+02  0.97400143829E+02  0.47000000000E+01 0. -1.
        -11    1    6    6    0    0 -0.25020150924E+02 -0.11190042800E+02  0.13458275294E+02  0.30534409835E+02  0.00000000000E+00 0.  1.
         12    1    6    6    0    0  0.25944206743E+01 -0.21906235315E+02 -0.95773371780E+02  0.98280989547E+02  0.00000000000E+00 0. -1.
         -5    1    3    3    0  503 -0.89507804469E+02  0.52675329793E+01 -0.10250185371E+03  0.13626486700E+03  0.47000000000E+01 0.  1.
         13    1    4    4    0    0 -0.27305486613E+02  0.40965257944E+01 -0.62932874303E+01  0.28319191186E+02  0.00000000000E+00 0. -1.
        -14    1    4    4    0    0  0.50951164503E+02  0.43475332213E+02 -0.42193497135E+02  0.79160702850E+02  0.00000000000E+00 0.  1.
<mgrwt>
<rscale>  2 0.19254327E+03</rscale>
<asrwt>0</asrwt>
<pdfrwt beam="1">  1       21 0.15452094E-01 0.19294345E+03</pdfrwt>
<pdfrwt beam="2">  1       21 0.56849491E-01 0.19294345E+03</pdfrwt>
<totfact> 0.10805483E+05</totfact>
</mgrwt>
</event>
<event>
12    1  0.1029207E-001  0.1741779E+03  0.7546771E-02  0.1173974E+00
         21   -1    0    0  503  502  0.00000000000E+00  0.00000000000E+00  0.19973616379E+03  0.19973616379E+03  0.00000000000E+00 0. -1.
         21   -1    0    0  501  503 -0.00000000000E+00 -0.00000000000E+00 -0.20149089480E+03  0.20149089480E+03  0.00000000000E+00 0. -1.
          6    2    1    2  501    0 -0.12054082527E+02 -0.14528497521E+02 -0.10182214518E+03  0.20035045137E+03  0.17151144559E+03 0.  0.
         24    2    3    3    0    0 -0.63920565972E+02 -0.34903929017E+01 -0.22145456310E+02  0.10452542015E+03  0.79606033847E+02 0.  0.
         -6    2    1    2    0  502  0.12054082527E+02  0.14528497521E+02  0.10006741417E+03  0.20087660722E+03  0.17315179988E+03 0.  0.
        -24    2    5    5    0    0 -0.37460207619E+02  0.32406054794E+02  0.11213756557E+03  0.14666359644E+03  0.80510604069E+02 0.  0.
          5    1    3    3  501    0  0.51866483445E+02 -0.11038104619E+02 -0.79676688872E+02  0.95825031220E+02  0.47000000000E+01 0. -1.
        -13    1    4    4    0    0  0.48535641117E+01  0.11167165525E+02  0.19360241641E+02  0.22870977829E+02  0.00000000000E+00 0.  1.
         14    1    4    4    0    0 -0.68774130084E+02 -0.14657558427E+02 -0.41505697950E+02  0.81654442318E+02  0.00000000000E+00 0. -1.
         -5    1    5    5    0  502  0.49514290146E+02 -0.17877557273E+02 -0.12070151400E+02  0.54213010777E+02  0.47000000000E+01 0.  1.
         11    1    6    6    0    0  0.17368225977E+02 -0.70302615413E+00 -0.16137976545E+00  0.17383197715E+02  0.00000000000E+00 0. -1.
        -12    1    6    6    0    0 -0.54828433596E+02  0.33109080948E+02  0.11229894533E+03  0.12928039873E+03  0.00000000000E+00 0.  1.
<mgrwt>
<rscale>  2 0.17376876E+03</rscale>
<asrwt>0</asrwt>
<pdfrwt beam="1">  1       21 0.30728641E-01 0.17417785E+03</pdfrwt>
<pdfrwt beam="2">  1       21 0.30998599E-01 0.17417785E+03</pdfrwt>
<totfact> 0.10235699E+05</totfact>
</mgrwt>
</event>
<event>
12    1  0.1029207E-001  0.2027906E+03  0.7546771E-02  0.1147560E+00
         21   -1    0    0  503  502  0.00000000000E+00  0.00000000000E+00  0.89436961742E+03  0.89436961742E+03  0.00000000000E+00 0.  1.
         21   -1    0    0  501  503 -0.00000000000E+00 -0.00000000000E+00 -0.45865687219E+02  0.45865687219E+02  0.00000000000E+00 0.  1.
          6    2    1    2  501    0 -0.91824189247E+02 -0.51769197907E+02  0.40899268385E+03  0.45650743155E+03  0.17324054963E+03 0.  0.
         24    2    3    3    0    0 -0.10035079356E+03 -0.43439208496E+02  0.21281860195E+03  0.25991533580E+03  0.10152328720E+03 0.  0.
         -6    2    1    2    0  502  0.91824189247E+02  0.51769197907E+02  0.43951124635E+03  0.48372787309E+03  0.17236817557E+03 0.  0.
        -24    2    5    5    0    0  0.77047010759E+02  0.35665132727E+02  0.44552590095E+03  0.46057680423E+03  0.80183668007E+02 0.  0.
          5    1    3    3  501    0  0.85266043118E+01 -0.83299894110E+01  0.19617408189E+03  0.19659209575E+03  0.47000000000E+01 0. -1.
        -13    1    4    4    0    0 -0.99461696180E+02  0.31252848514E-01  0.17921040184E+03  0.20496096729E+03  0.00000000000E+00 0.  1.
         14    1    4    4    0    0 -0.88909737950E+00 -0.43470461345E+02  0.33608200114E+02  0.54954368512E+02  0.00000000000E+00 0. -1.
         -5    1    5    5    0  502  0.14777178488E+02  0.16104065180E+02 -0.60146546000E+01  0.23151068860E+02  0.47000000000E+01 0.  1.
         11    1    6    6    0    0 -0.17995082575E+01  0.51845783077E+01 -0.14510288097E+01  0.56765805556E+01  0.00000000000E+00 0. -1.
        -12    1    6    6    0    0  0.78846519017E+02  0.30480554420E+02  0.44697692976E+03  0.45490022367E+03  0.00000000000E+00 0.  1.
<mgrwt>
<rscale>  2 0.20260414E+03</rscale>
<asrwt>0</asrwt>
<pdfrwt beam="1">  1       21 0.13759531E+00 0.20279058E+03</pdfrwt>
<pdfrwt beam="2">  1       21 0.70562603E-02 0.20279058E+03</pdfrwt>
<totfact> 0.55518413E+04</totfact>
</mgrwt>
</event>
<event>
12    1  0.1029207E-001  0.2498511E+03  0.7546771E-02  0.1114829E+00
         21   -1    0    0  501  502  0.00000000000E+00  0.00000000000E+00  0.17031457801E+03  0.17031457801E+03  0.00000000000E+00 0. -1.
         21   -1    0    0  502  503 -0.00000000000E+00 -0.00000000000E+00 -0.40295042975E+03  0.40295042975E+03  0.00000000000E+00 0.  1.
         -6    2    1    2    0  503  0.13840982330E+03 -0.87591663192E+02 -0.21473928167E+03  0.32277378511E+03  0.17674947981E+03 0.  0.
        -24    2    3    3    0    0  0.10394253122E+03 -0.10857295744E+03 -0.22360822537E+03  0.28119305527E+03  0.80478313822E+02 0.  0.
          6    2    1    2  501    0 -0.13840982330E+03  0.87591663192E+02 -0.17896570066E+02  0.25049122265E+03  0.18866898728E+03 0.  0.
         24    2    5    5    0    0 -0.29344504655E+02  0.10568850107E+03  0.10351015810E+02  0.13628633931E+03  0.80222587478E+02 0.  0.
          5    1    5    5  501    0 -0.10906531864E+03 -0.18096837883E+02 -0.28247585876E+02  0.11420488334E+03  0.47000000000E+01 0. -1.
        -13    1    6    6    0    0  0.10782479740E+01 -0.10108259077E+02  0.13034341869E+02  0.16529778831E+02  0.00000000000E+00 0.  1.
         14    1    6    6    0    0 -0.30422752629E+02  0.11579676015E+03 -0.26833260584E+01  0.11975656048E+03  0.00000000000E+00 0. -1.
         -5    1    3    3    0  503  0.34467292078E+02  0.20981294243E+02  0.88689437031E+01  0.41580729837E+02  0.47000000000E+01 0.  1.
         11    1    4    4    0    0  0.30124524493E+02 -0.80951955177E+02 -0.81843995123E+02  0.11899220798E+03  0.00000000000E+00 0. -1.
        -12    1    4    4    0    0  0.73818006724E+02 -0.27621002259E+02 -0.14176423025E+03  0.16220084729E+03  0.00000000000E+00 0.  1.
<mgrwt>
<rscale>  2 0.24760241E+03</rscale>
<asrwt>0</asrwt>
<pdfrwt beam="1">  1       21 0.26202243E-01 0.24985109E+03</pdfrwt>
<pdfrwt beam="2">  1       21 0.61992374E-01 0.24985109E+03</pdfrwt>
<totfact> 0.32505678E+04</totfact>
</mgrwt>
</event>
<event>
12    1  0.1029207E-001  0.1951848E+03  0.7546771E-02  0.1153963E+00
         21   -1    0    0  503  502  0.00000000000E+00  0.00000000000E+00  0.88319098759E+02  0.88319098759E+02  0.00000000000E+00 0.  1.
         21   -1    0    0  501  503 -0.00000000000E+00 -0.00000000000E+00 -0.54333246653E+03  0.54333246653E+03  0.00000000000E+00 0.  1.
          6    2    1    2  501    0  0.89998046765E+02 -0.96029196566E+01 -0.83712799337E+02  0.21237919159E+03  0.17293126889E+03 0.  0.
         24    2    3    3    0    0  0.11875130886E+03 -0.36609593454E+02 -0.42557991103E+02  0.15517850320E+03  0.82625961772E+02 0.  0.
         -6    2    1    2    0  502 -0.89998046765E+02  0.96029196566E+01 -0.37130056843E+03  0.41927237370E+03  0.17243360097E+03 0.  0.
        -24    2    5    5    0    0 -0.81654193616E+02  0.24477095171E+01 -0.11190426160E+03  0.15960075239E+03  0.79223972267E+02 0.  0.
          5    1    3    3  501    0 -0.28753262100E+02  0.27006673798E+02 -0.41154808234E+02  0.57200688386E+02  0.47000000000E+01 0. -1.
        -13    1    4    4    0    0  0.62515649065E+02 -0.44571327587E+02  0.10453997062E+02  0.77486099886E+02  0.00000000000E+00 0.  1.
         14    1    4    4    0    0  0.56235659800E+02  0.79617341331E+01 -0.53011988165E+02  0.77692403314E+02  0.00000000000E+00 0. -1.
         -5    1    5    5    0  502 -0.83438531486E+01  0.71552101395E+01 -0.25939630683E+03  0.25967162131E+03  0.47000000000E+01 0.  1.
         13    1    6    6    0    0  0.30643526924E+00 -0.19831098958E+02 -0.93178918197E+00  0.19855342342E+02  0.00000000000E+00 0. -1.
        -14    1    6    6    0    0 -0.81960628885E+02  0.22278808475E+02 -0.11097247242E+03  0.13974541005E+03  0.00000000000E+00 0.  1.
<mgrwt>
<rscale>  2 0.19507446E+03</rscale>
<asrwt>0</asrwt>
<pdfrwt beam="1">  1       21 0.13587554E-01 0.19518475E+03</pdfrwt>
<pdfrwt beam="2">  1       21 0.83589609E-01 0.19518475E+03</pdfrwt>
<totfact> 0.58362137E+04</totfact>
</mgrwt>
</event>
<event>
12    1  0.1029207E-001  0.1892601E+03  0.7546771E-02  0.1159158E+00
         21   -1    0    0  501  502  0.00000000000E+00  0.00000000000E+00  0.60214263043E+02  0.60214263043E+02  0.00000000000E+00 0. -1.
         21   -1    0    0  502  503 -0.00000000000E+00 -0.00000000000E+00 -0.61163074783E+03  0.61163074783E+03  0.00000000000E+00 0. -1.
         -6    2    1    2    0  503 -0.58784296722E+02  0.51304038008E+02 -0.33203269357E+03  0.38218465161E+03  0.17242882727E+03 0.  0.
        -24    2    3    3    0    0 -0.13548090705E+01  0.83739862712E+02 -0.15467273971E+03  0.19289949105E+03  0.79198214144E+02 0.  0.
          6    2    1    2  501    0  0.58784296722E+02 -0.51304038008E+02 -0.21938379121E+03  0.28966035926E+03  0.17229677310E+03 0.  0.
         24    2    5    5    0    0  0.76631704548E+02 -0.65581270888E+02 -0.23024078760E+03  0.26392451430E+03  0.80448789557E+02 0.  0.
          5    1    5    5  501    0 -0.17847407826E+02  0.14277232880E+02  0.10856996389E+02  0.25735844952E+02  0.47000000000E+01 0. -1.
        -13    1    6    6    0    0  0.12759354856E+01 -0.48277329409E+01  0.64784452798E+01  0.81795641666E+01  0.00000000000E+00 0.  1.
         14    1    6    6    0    0  0.75355769063E+02 -0.60753537947E+02 -0.23671923288E+03  0.25574495014E+03  0.00000000000E+00 0. -1.
         -5    1    3    3    0  503 -0.57429487652E+02 -0.32435824704E+02 -0.17735995386E+03  0.18928516057E+03  0.47000000000E+01 0.  1.
         11    1    4    4    0    0 -0.27262876966E+02  0.40987350481E+02 -0.27800735545E+02  0.56534133555E+02  0.00000000000E+00 0. -1.
        -12    1    4    4    0    0  0.25908067896E+02  0.42752512230E+02 -0.12687200416E+03  0.13636535749E+03  0.00000000000E+00 0.  1.
<mgrwt>
<rscale>  2 0.18923005E+03</rscale>
<asrwt>0</asrwt>
<pdfrwt beam="1">  1       21 0.92637325E-02 0.18926013E+03</pdfrwt>
<pdfrwt beam="2">  1       21 0.94097041E-01 0.18926013E+03</pdfrwt>
<totfact> 0.88082354E+04</totfact>
</mgrwt>
</event>
<event>
12    1  0.1029207E-001  0.2554818E+03  0.7546771E-02  0.1110556E+00
         21   -1    0    0  503  502  0.00000000000E+00  0.00000000000E+00  0.22683720477E+03  0.22683720477E+03  0.00000000000E+00 0.  1.
         21   -1    0    0  501  503 -0.00000000000E+00 -0.00000000000E+00 -0.28453909115E+03  0.28453909115E+03  0.00000000000E+00 0. -1.
          6    2    1    2  501    0  0.14668975986E+03 -0.11822982566E+03 -0.93039699445E+01  0.25135074228E+03  0.16611578631E+03 0.  0.
         24    2    3    3    0    0  0.16436440479E+03 -0.64836124921E+02  0.28689655808E+01  0.19361383284E+03  0.79111975378E+02 0.  0.
         -6    2    1    2    0  502 -0.14668975986E+03  0.11822982566E+03 -0.48397916428E+02  0.26002555364E+03  0.17255362328E+03 0.  0.
        -24    2    5    5    0    0 -0.47885504983E+02  0.26035027067E+02 -0.74863693281E+02  0.12224061610E+03  0.79795685538E+02 0.  0.
          5    1    3    3  501    0 -0.17674644926E+02 -0.53393700739E+02 -0.12172935525E+02  0.57736909436E+02  0.47000000000E+01 0. -1.
        -13    1    4    4    0    0  0.10085036997E+03 -0.26040346416E+02  0.38568274165E+02  0.11106938613E+03  0.00000000000E+00 0.  1.
         14    1    4    4    0    0  0.63514034822E+02 -0.38795778505E+02 -0.35699308584E+02  0.82544446710E+02  0.00000000000E+00 0. -1.
         -5    1    5    5    0  502 -0.98804254879E+02  0.92194798592E+02  0.26465776852E+02  0.13778493754E+03  0.47000000000E+01 0.  1.
         11    1    6    6    0    0 -0.58620537256E+02  0.91037799980E+01 -0.18072806312E+02  0.62015099181E+02  0.00000000000E+00 0. -1.
        -12    1    6    6    0    0  0.10735032273E+02  0.16931247069E+02 -0.56790886969E+02  0.60225516917E+02  0.00000000000E+00 0.  1.
<mgrwt>
<rscale>  2 0.25439908E+03</rscale>
<asrwt>0</asrwt>
<pdfrwt beam="1">  1       21 0.34898031E-01 0.25548176E+03</pdfrwt>
<pdfrwt beam="2">  1       21 0.43775245E-01 0.25548176E+03</pdfrwt>
<totfact> 0.38541881E+04</totfact>
</mgrwt>
</event>
<event>
12    1  0.1029207E-001  0.2488950E+03  0.7546771E-02  0.1115391E+00
         21   -1    0    0  503  502  0.00000000000E+00  0.00000000000E+00  0.87449344195E+03  0.87449344195E+03  0.00000000000E+00 0.  1.
         21   -1    0    0  501  503 -0.00000000000E+00 -0.00000000000E+00 -0.76740783422E+02  0.76740783422E+02  0.00000000000E+00 0.  1.
          6    2    1    2  501    0  0.16796588736E+03 -0.62008445872E+02  0.24854616045E+03  0.35174410782E+03  0.17289053425E+03 0.  0.
         24    2    3    3    0    0  0.13736854897E+03  0.11061531425E+02  0.11431925052E+03  0.19581344358E+03  0.79256153859E+02 0.  0.
         -6    2    1    2    0  502 -0.16796588736E+03  0.62008445872E+02  0.54920649808E+03  0.59949011756E+03  0.16032166679E+03 0.  0.
        -24    2    5    5    0    0 -0.11978217368E+03  0.91260056912E+01  0.22480871567E+03  0.26726393862E+03  0.80374132232E+02 0.  0.
          5    1    3    3  501    0  0.30597338388E+02 -0.73069977297E+02  0.13422690993E+03  0.15593066424E+03  0.47000000000E+01 0. -1.
        -13    1    4    4    0    0  0.13009132193E+03  0.60181794920E+01  0.12596599187E+03  0.18118333707E+03  0.00000000000E+00 0.  1.
         14    1    4    4    0    0  0.72772270433E+01  0.50433519332E+01 -0.11646741356E+02  0.14630106506E+02  0.00000000000E+00 0. -1.
         -5    1    5    5    0  502 -0.48183713679E+02  0.52882440180E+02  0.32439778241E+03  0.33222617894E+03  0.47000000000E+01 0.  1.
         11    1    6    6    0    0 -0.20862659382E+02 -0.29201567821E+02  0.36878079487E+02  0.51458477109E+02  0.00000000000E+00 0. -1.
        -12    1    6    6    0    0 -0.98919514296E+02  0.38327573512E+02  0.18793063619E+03  0.21580546151E+03  0.00000000000E+00 0.  1.
<mgrwt>
<rscale>  2 0.24672668E+03</rscale>
<asrwt>0</asrwt>
<pdfrwt beam="1">  1       21 0.13453745E+00 0.24889500E+03</pdfrwt>
<pdfrwt beam="2">  1       21 0.11806275E-01 0.24889500E+03</pdfrwt>
<totfact> 0.23173645E+04</totfact>
</mgrwt>
</event>
<event>
12    1  0.1029207E-001  0.2156590E+03  0.7546771E-02  0.1138763E+00
         21   -1    0    0  501  502  0.00000000000E+00  0.00000000000E+00  0.53716522419E+03  0.53716522419E+03  0.00000000000E+00 0.  1.
         21   -1    0    0  502  503 -0.00000000000E+00 -0.00000000000E+00 -0.11579985251E+03  0.11579985251E+03  0.00000000000E+00 0.  1.
         -6    2    1    2    0  503 -0.28654727587E+02  0.11152854923E+03  0.34863290021E+02  0.21036744330E+03  0.17256680301E+03 0.  0.
        -24    2    3    3    0    0 -0.59721599673E+02  0.12702768045E+03  0.53959916288E+02  0.17046575480E+03  0.80275774218E+02 0.  0.
          6    2    1    2  501    0  0.28654727587E+02 -0.11152854923E+03  0.38650208166E+03  0.44259763341E+03  0.18234334445E+03 0.  0.
         24    2    5    5    0    0 -0.32631815011E+00 -0.72126789080E+02  0.37730350126E+03  0.39260659824E+03  0.81114910696E+02 0.  0.
          5    1    5    5  501    0  0.28981045737E+02 -0.39401760152E+02  0.91985803992E+01  0.49991035161E+02  0.47000000000E+01 0. -1.
        -13    1    6    6    0    0  0.39832466832E+02 -0.36341248582E+02  0.16456247242E+03  0.17317078013E+03  0.00000000000E+00 0.  1.
         14    1    6    6    0    0 -0.40158784982E+02 -0.35785540498E+02  0.21274102884E+03  0.21943581811E+03  0.00000000000E+00 0. -1.
         -5    1    3    3    0  503  0.31066872086E+02 -0.15499131222E+02 -0.19096626267E+02  0.39901688493E+02  0.47000000000E+01 0.  1.
         13    1    4    4    0    0 -0.17480056745E+02 -0.87086821431E+01  0.58057305739E+01  0.20374003926E+02  0.00000000000E+00 0. -1.
        -14    1    4    4    0    0 -0.42241542928E+02  0.13573636260E+03  0.48154185714E+02  0.15009175088E+03  0.00000000000E+00 0.  1.
<mgrwt>
<rscale>  2 0.21357897E+03</rscale>
<asrwt>0</asrwt>
<pdfrwt beam="1">  1       21 0.82640803E-01 0.21565900E+03</pdfrwt>
<pdfrwt beam="2">  1       21 0.17815362E-01 0.21565900E+03</pdfrwt>
<totfact> 0.36121270E+04</totfact>
</mgrwt>
</event>
<event>
12    1  0.1029207E-001  0.1877025E+03  0.7546771E-02  0.1160902E+00
         21   -1    0    0  503  502  0.00000000000E+00  0.00000000000E+00  0.22916113294E+04  0.22916113294E+04  0.00000000000E+00 0. -1.
         21   -1    0    0  501  503 -0.00000000000E+00 -0.00000000000E+00 -0.16560934958E+02  0.16560934958E+02  0.00000000000E+00 0.  1.
          6    2    1    2  501    0  0.58986807529E+02  0.39176139768E+02  0.14580057806E+04  0.14698440810E+04  0.17218174370E+03 0.  0.
         24    2    3    3    0    0  0.80871657425E+02  0.77875354491E+02  0.10205560666E+04  0.10301158488E+04  0.83661109257E+02 0.  0.
         -6    2    1    2    0  502 -0.58986807529E+02 -0.39176139768E+02  0.81704461384E+03  0.83832818334E+03  0.17383333563E+03 0.  0.
        -24    2    5    5    0    0 -0.23750052756E+02 -0.40102618345E+02  0.20039731251E+03  0.22065636797E+03  0.79736220520E+02 0.  0.
          5    1    3    3  501    0 -0.21884849896E+02 -0.38699214723E+02  0.43744971404E+03  0.43972823220E+03  0.47000000000E+01 0. -1.
        -11    1    4    4    0    0  0.31422516642E+02 -0.64757624230E+01  0.11816279835E+03  0.12244083046E+03  0.00000000000E+00 0.  1.
         12    1    4    4    0    0  0.49449140783E+02  0.84351116914E+02  0.90239326821E+03  0.90767501836E+03  0.00000000000E+00 0. -1.
         -5    1    5    5    0  502 -0.35236754772E+02  0.92647857687E+00  0.61664730134E+03  0.61767181537E+03  0.47000000000E+01 0.  1.
         11    1    6    6    0    0 -0.13814728565E+02 -0.18967258794E+02  0.19536131575E+03  0.19676546272E+03  0.00000000000E+00 0. -1.
        -12    1    6    6    0    0 -0.99353241917E+01 -0.21135359552E+02  0.50359967612E+01  0.23890905248E+02  0.00000000000E+00 0.  1.
<mgrwt>
<rscale>  2 0.18731923E+03</rscale>
<asrwt>0</asrwt>
<pdfrwt beam="1">  1       21 0.35255534E+00 0.18770254E+03</pdfrwt>
<pdfrwt beam="2">  1       21 0.25478380E-02 0.18770254E+03</pdfrwt>
<totfact> 0.14072883E+04</totfact>
</mgrwt>
</event>
<event>
12    1  0.1029207E-001  0.2508153E+03  0.7546771E-02  0.1113052E+00
         21   -1    0    0  501  502  0.00000000000E+00  0.00000000000E+00  0.12618544212E+04  0.12618544212E+04  0.00000000000E+00 0. -1.
         21   -1    0    0  502  503 -0.00000000000E+00 -0.00000000000E+00 -0.49771445518E+02  0.49771445518E+02  0.00000000000E+00 0. -1.
         -6    2    1    2    0  503  0.17942217950E+03  0.39798654345E+01  0.55799522962E+03  0.61109814249E+03  0.17284127299E+03 0.  0.
        -24    2    3    3    0    0  0.12932440263E+03  0.21531206912E+02  0.22949815774E+03  0.27830653642E+03  0.87159221101E+02 0.  0.
          6    2    1    2  501    0 -0.17942217950E+03 -0.39798654345E+01  0.65408774608E+03  0.70052772425E+03  0.17521459711E+03 0.  0.
         24    2    5    5    0    0 -0.20336048387E+03  0.12643956500E+02  0.60254399452E+03  0.64112871587E+03  0.80445067839E+02 0.  0.
          5    1    5    5  501    0  0.23938304370E+02 -0.16623821935E+02  0.51543751565E+02  0.59399008386E+02  0.47000000000E+01 0. -1.
        -13    1    6    6    0    0 -0.12305254139E+03  0.45317759133E+02  0.39520636132E+03  0.41639367822E+03  0.00000000000E+00 0.  1.
         14    1    6    6    0    0 -0.80307942478E+02 -0.32673802633E+02  0.20733763320E+03  0.22473503764E+03  0.00000000000E+00 0. -1.
         -5    1    3    3    0  503  0.50097776877E+02 -0.17551341478E+02  0.32849707188E+03  0.33279160607E+03  0.47000000000E+01 0.  1.
         13    1    4    4    0    0  0.13367614228E+03  0.15280192766E+02  0.23365854935E+03  0.26962773038E+03  0.00000000000E+00 0. -1.
        -14    1    4    4    0    0 -0.43517396522E+01  0.62510141457E+01 -0.41603916146E+01  0.86788060375E+01  0.00000000000E+00 0.  1.
<mgrwt>
<rscale>  2 0.25040123E+03</rscale>
<asrwt>0</asrwt>
<pdfrwt beam="1">  1       21 0.19413143E+00 0.25081530E+03</pdfrwt>
<pdfrwt beam="2">  1       21 0.76571464E-02 0.25081530E+03</pdfrwt>
<totfact> 0.18236172E+04</totfact>
</mgrwt>
</event>
<event>
12    1  0.1029207E-001  0.1739867E+03  0.7546771E-02  0.1174258E+00
         21   -1    0    0  503  502  0.00000000000E+00  0.00000000000E+00  0.15216494541E+03  0.15216494541E+03  0.00000000000E+00 0. -1.
         21   -1    0    0  501  503 -0.00000000000E+00 -0.00000000000E+00 -0.26890536930E+03  0.26890536930E+03  0.00000000000E+00 0. -1.
          6    2    1    2  501    0  0.95394509390E+01  0.24854311593E+01 -0.16772985119E+03  0.24167058535E+03  0.17370719718E+03 0.  0.
         24    2    3    3    0    0 -0.12145679743E+02 -0.35834213573E+02 -0.24143082583E+02  0.91411175720E+02  0.79633574647E+02 0.  0.
         -6    2    1    2    0  502 -0.95394509390E+01 -0.24854311593E+01  0.50989427293E+02  0.17939972935E+03  0.17171826549E+03 0.  0.
        -24    2    5    5    0    0  0.14854535581E+02 -0.42980647222E+02  0.80958879527E+02  0.12322867658E+03  0.81012179916E+02 0.  0.
          5    1    3    3  501    0  0.21685130682E+02  0.38319644732E+02 -0.14358676860E+03  0.15025940963E+03  0.47000000000E+01 0. -1.
        -13    1    4    4    0    0 -0.15639369521E+02  0.12870374507E+02  0.17858123872E+02  0.27002759252E+02  0.00000000000E+00 0.  1.
         14    1    4    4    0    0  0.34936897778E+01 -0.48704588079E+02 -0.42001206456E+02  0.64408416468E+02  0.00000000000E+00 0. -1.
         -5    1    5    5    0  502 -0.24393986520E+02  0.40495216062E+02 -0.29969452235E+02  0.56171052772E+02  0.47000000000E+01 0.  1.
         11    1    6    6    0    0  0.14362174147E+02 -0.52781808370E+02  0.15244302426E+02  0.56785386302E+02  0.00000000000E+00 0. -1.
        -12    1    6    6    0    0  0.49236143494E+00  0.98011611477E+01  0.65714577101E+02  0.66443290280E+02  0.00000000000E+00 0.  1.
<mgrwt>
<rscale>  2 0.17348813E+03</rscale>
<asrwt>0</asrwt>
<pdfrwt beam="1">  1       21 0.23409992E-01 0.17398669E+03</pdfrwt>
<pdfrwt beam="2">  1       21 0.41370056E-01 0.17398669E+03</pdfrwt>
<totfact> 0.97268105E+04</totfact>
</mgrwt>
</event>
<event>
12    1  0.1029207E-001  0.2537902E+03  0.7546771E-02  0.1111450E+00
         21   -1    0    0  503  502  0.00000000000E+00  0.00000000000E+00  0.28953867127E+02  0.28953867127E+02  0.00000000000E+00 0. -1.
         21   -1    0    0  501  503 -0.00000000000E+00 -0.00000000000E+00 -0.24115353059E+04  0.24115353059E+04  0.00000000000E+00 0. -1.
          6    2    1    2  501    0 -0.16702572669E+03  0.79716978420E+02 -0.15635430774E+04  0.15840064440E+04  0.17365790968E+03 0.  0.
         24    2    3    3    0    0 -0.98646903479E+02 -0.17350715033E+02 -0.62459318705E+03  0.63756744056E+03  0.79645044219E+02 0.  0.
         -6    2    1    2    0  502  0.16702572669E+03 -0.79716978420E+02 -0.81903836140E+03  0.85648272910E+03  0.16877925753E+03 0.  0.
        -24    2    5    5    0    0  0.15851749478E+03 -0.15311728300E+02 -0.49890256660E+03  0.52978800406E+03  0.80058185793E+02 0.  0.
          5    1    3    3  501    0 -0.68378823206E+02  0.97067693452E+02 -0.93894989034E+03  0.94643900339E+03  0.47000000000E+01 0. -1.
        -11    1    4    4    0    0 -0.91520262440E+02 -0.27193116278E+02 -0.35243558913E+03  0.36513869761E+03  0.00000000000E+00 0.  1.
         12    1    4    4    0    0 -0.71266410392E+01  0.98424012448E+01 -0.27215759793E+03  0.27242874295E+03  0.00000000000E+00 0. -1.
         -5    1    5    5    0  502  0.85082319049E+01 -0.64405250120E+02 -0.32013579480E+03  0.32669472504E+03  0.47000000000E+01 0.  1.
         13    1    6    6    0    0  0.11654420972E+03  0.71905556776E+01 -0.43306887960E+03  0.44853418084E+03  0.00000000000E+00 0. -1.
        -14    1    6    6    0    0  0.41973285062E+02 -0.22502283977E+02 -0.65833687003E+02  0.81253823217E+02  0.00000000000E+00 0.  1.
<mgrwt>
<rscale>  2 0.25295786E+03</rscale>
<asrwt>0</asrwt>
<pdfrwt beam="1">  1       21 0.44544423E-02 0.25379019E+03</pdfrwt>
<pdfrwt beam="2">  1       21 0.37100533E+00 0.25379019E+03</pdfrwt>
<totfact> 0.39922819E+03</totfact>
</mgrwt>
</event>
<event>
12    1  0.1029207E-001  0.2052391E+03  0.7546771E-02  0.1146376E+00
         21   -1    0    0  503  502  0.00000000000E+00  0.00000000000E+00  0.16799507897E+04  0.16799507897E+04  0.00000000000E+00 0.  1.
         21   -1    0    0  501  503 -0.00000000000E+00 -0.00000000000E+00 -0.74744183841E+02  0.74744183841E+02  0.00000000000E+00 0.  1.
          6    2    1    2  501    0  0.28926779380E+02 -0.98602017283E+02  0.80171639485E+02  0.21591144337E+03  0.17213698970E+03 0.  0.
         24    2    3    3    0    0 -0.11862732765E+02 -0.11862030406E+03  0.89763124164E+02  0.16923593925E+03  0.79824079766E+02 0.  0.
         -6    2    1    2    0  502 -0.28926779380E+02  0.98602017283E+02  0.15250349664E+04  0.15387835302E+04  0.17766256691E+03 0.  0.
        -24    2    5    5    0    0  0.40861501952E+02  0.15072294800E+02  0.86143981129E+03  0.86630435681E+03  0.80671269627E+02 0.  0.
          5    1    3    3  501    0  0.40789512145E+02  0.20018286777E+02 -0.95914846792E+01  0.46675504120E+02  0.47000000000E+01 0. -1.
        -11    1    4    4    0    0  0.24941285769E+02 -0.14672975589E+02  0.37056825110E+02  0.47016722936E+02  0.00000000000E+00 0.  1.
         12    1    4    4    0    0 -0.36804018534E+02 -0.10394732847E+03  0.52706299054E+02  0.12221921632E+03  0.00000000000E+00 0. -1.
         -5    1    5    5    0  502 -0.69788281332E+02  0.83529722483E+02  0.66359515510E+03  0.67247917338E+03  0.47000000000E+01 0.  1.
         11    1    6    6    0    0 -0.17544421616E+02 -0.10942972551E+01  0.58580622264E+02  0.61161209285E+02  0.00000000000E+00 0. -1.
        -12    1    6    6    0    0  0.58405923568E+02  0.16166592056E+02  0.80285918903E+03  0.80514314753E+03  0.00000000000E+00 0.  1.
<mgrwt>
<rscale>  2 0.20403762E+03</rscale>
<asrwt>0</asrwt>
<pdfrwt beam="1">  1       21 0.25845394E+00 0.20523914E+03</pdfrwt>
<pdfrwt beam="2">  1       21 0.11499106E-01 0.20523914E+03</pdfrwt>
<totfact> 0.37067388E+03</totfact>
</mgrwt>
</event>
<event>
12    1  0.1029207E-001  0.1923577E+03  0.7546771E-02  0.1156674E+00
         21   -1    0    0  503  502  0.00000000000E+00  0.00000000000E+00  0.17560523211E+03  0.17560523211E+03  0.00000000000E+00 0. -1.
         21   -1    0    0  501  503 -0.00000000000E+00 -0.00000000000E+00 -0.31048366969E+03  0.31048366969E+03  0.00000000000E+00 0. -1.
          6    2    1    2  501    0  0.67719361644E+02  0.44524564901E+02 -0.20613220830E+03  0.28095824385E+03  0.17285455929E+03 0.  0.
         24    2    3    3    0    0  0.55562570948E+02 -0.25942678253E+02 -0.62775815191E+02  0.12068795539E+03  0.82852626742E+02 0.  0.
         -6    2    1    2    0  502 -0.67719361644E+02 -0.44524564901E+02  0.71253770720E+02  0.20513065795E+03  0.17445096207E+03 0.  0.
        -24    2    5    5    0    0 -0.76433866939E+02 -0.56120244188E+02  0.10852126208E+03  0.16486456436E+03  0.80073981015E+02 0.  0.
          5    1    3    3  501    0  0.12156790696E+02  0.70467243154E+02 -0.14335639311E+03  0.16027028846E+03  0.47000000000E+01 0. -1.
        -13    1    4    4    0    0 -0.64615556705E+01 -0.36156200127E+02 -0.38757042118E+02  0.53395981338E+02  0.00000000000E+00 0.  1.
         14    1    4    4    0    0  0.62024126619E+02  0.10213521874E+02 -0.24018773073E+02  0.67291974052E+02  0.00000000000E+00 0. -1.
         -5    1    5    5    0  502  0.87145052951E+01  0.11595679287E+02 -0.37267491358E+02  0.40266093587E+02  0.47000000000E+01 0.  1.
         11    1    6    6    0    0  0.10091038294E+02 -0.23361953955E+00  0.39752067049E+02  0.41013540040E+02  0.00000000000E+00 0. -1.
        -12    1    6    6    0    0 -0.86524905233E+02 -0.55886624648E+02  0.68769195029E+02  0.12385102432E+03  0.00000000000E+00 0.  1.
<mgrwt>
<rscale>  2 0.19199503E+03</rscale>
<asrwt>0</asrwt>
<pdfrwt beam="1">  1       21 0.27016190E-01 0.19235771E+03</pdfrwt>
<pdfrwt beam="2">  1       21 0.47766718E-01 0.19235771E+03</pdfrwt>
<totfact> 0.54707607E+04</totfact>
</mgrwt>
</event>
<event>
12    1  0.1029207E-001  0.1852470E+03  0.7546771E-02  0.1163154E+00
         21   -1    0    0  501  502  0.00000000000E+00  0.00000000000E+00  0.17998368818E+03  0.17998368818E+03  0.00000000000E+00 0. -1.
         21   -1    0    0  502  503 -0.00000000000E+00 -0.00000000000E+00 -0.21871508843E+03  0.21871508843E+03  0.00000000000E+00 0. -1.
         -6    2    1    2    0  503 -0.23459075496E+02  0.58223540469E+02  0.53935181366E+02  0.19156710850E+03  0.17276760224E+03 0.  0.
        -24    2    3    3    0    0  0.30136108235E+02  0.66221685491E+02 -0.10209109476E+02  0.10746601404E+03  0.78429724007E+02 0.  0.
          6    2    1    2  501    0  0.23459075496E+02 -0.58223540469E+02 -0.92666581613E+02  0.20713166810E+03  0.17428747429E+03 0.  0.
         24    2    5    5    0    0  0.18761605275E+02  0.42498938045E+01  0.12300747424E+02  0.84799226038E+02  0.81667257329E+02 0.  0.
          5    1    5    5  501    0  0.46974702211E+01 -0.62473434274E+02 -0.10496732904E+03  0.12233244206E+03  0.47000000000E+01 0. -1.
        -13    1    6    6    0    0 -0.97383149987E+01 -0.34438309968E+02  0.36486902089E+01  0.35974225672E+02  0.00000000000E+00 0.  1.
         14    1    6    6    0    0  0.28499920273E+02  0.38688203772E+02  0.86520572148E+01  0.48825000366E+02  0.00000000000E+00 0. -1.
         -5    1    3    3    0  503 -0.53595183731E+02 -0.79981450215E+01  0.64144290842E+02  0.84101094467E+02  0.47000000000E+01 0.  1.
         11    1    4    4    0    0 -0.15063295654E+02  0.47922299803E+02  0.15195521188E+02  0.52481935545E+02  0.00000000000E+00 0. -1.
        -12    1    4    4    0    0  0.45199403889E+02  0.18299385688E+02 -0.25404630663E+02  0.54984078492E+02  0.00000000000E+00 0.  1.
<mgrwt>
<rscale>  2 0.18488860E+03</rscale>
<asrwt>0</asrwt>
<pdfrwt beam="1">  1       21 0.27689798E-01 0.18524695E+03</pdfrwt>
<pdfrwt beam="2">  1       21 0.33648475E-01 0.18524695E+03</pdfrwt>
<totfact> 0.10619540E+05</totfact>
</mgrwt>
</event>
<event>
12    1  0.1029207E-001  0.2392772E+03  0.7546771E-02  0.1120555E+00
         21   -1    0    0  503  502  0.00000000000E+00  0.00000000000E+00  0.51207028349E+03  0.51207028349E+03  0.00000000000E+00 0.  1.
         21   -1    0    0  501  503 -0.00000000000E+00 -0.00000000000E+00 -0.11941974912E+03  0.11941974912E+03  0.00000000000E+00 0.  1.
          6    2    1    2  501    0 -0.16264252647E+03 -0.28901360954E+02  0.11327726574E+03  0.26473631171E+03  0.17310602451E+03 0.  0.
         24    2    3    3    0    0 -0.85171531752E+01 -0.16230220460E+02  0.33253538020E+02  0.90549413538E+02  0.82203628550E+02 0.  0.
         -6    2    1    2    0  502  0.16264252647E+03  0.28901360954E+02  0.27937326863E+03  0.36675372091E+03  0.17079516532E+03 0.  0.
        -24    2    5    5    0    0  0.26945593912E+02 -0.28258091266E+02  0.12119663192E+03  0.15059914917E+03  0.80417009325E+02 0.  0.
          5    1    3    3  501    0 -0.15412537330E+03 -0.12671140494E+02  0.80023727722E+02  0.17418689817E+03  0.47000000000E+01 0. -1.
        -13    1    4    4    0    0 -0.41556265457E+02 -0.19388809977E+02  0.35248646633E+01  0.45992106083E+02  0.00000000000E+00 0.  1.
         14    1    4    4    0    0  0.33039112282E+02  0.31585895168E+01  0.29728673356E+02  0.44557307455E+02  0.00000000000E+00 0. -1.
         -5    1    5    5    0  502  0.13569693256E+03  0.57159452220E+02  0.15817663671E+03  0.21615457174E+03  0.47000000000E+01 0.  1.
         11    1    6    6    0    0  0.16626029525E+02  0.45297254468E+01 -0.64543685656E+01  0.18401145181E+02  0.00000000000E+00 0. -1.
        -12    1    6    6    0    0  0.10319564387E+02 -0.32787816713E+02  0.12765100048E+03  0.13219800399E+03  0.00000000000E+00 0.  1.
<mgrwt>
<rscale>  2 0.23885949E+03</rscale>
<asrwt>0</asrwt>
<pdfrwt beam="1">  1       21 0.78780043E-01 0.23927719E+03</pdfrwt>
<pdfrwt beam="2">  1       21 0.18372269E-01 0.23927719E+03</pdfrwt>
<totfact> 0.37610380E+04</totfact>
</mgrwt>
</event>
<event>
12    1  0.1029207E-001  0.1792372E+03  0.7546771E-02  0.1169124E+00
         21   -1    0    0  501  502  0.00000000000E+00  0.00000000000E+00  0.35041793246E+02  0.35041793246E+02  0.00000000000E+00 0. -1.
         21   -1    0    0  502  503 -0.00000000000E+00 -0.00000000000E+00 -0.93914735152E+03  0.93914735152E+03  0.00000000000E+00 0. -1.
         -6    2    1    2    0  503 -0.51407668149E+02  0.28841057087E+02 -0.35588018460E+03  0.39740754059E+03  0.16675578734E+03 0.  0.
        -24    2    3    3    0    0 -0.65773598108E+02 -0.19771184467E+02 -0.13381734613E+03  0.16958409096E+03  0.78323788457E+02 0.  0.
          6    2    1    2  501    0  0.51407668149E+02 -0.28841057087E+02 -0.54822537367E+03  0.57678160417E+03  0.16926725511E+03 0.  0.
         24    2    5    5    0    0  0.12240679936E+02  0.45524482944E+02 -0.30250024025E+03  0.31703708026E+03  0.82363839831E+02 0.  0.
          5    1    5    5  501    0  0.39166988213E+02 -0.74365540032E+02 -0.24572513342E+03  0.25974452391E+03  0.47000000000E+01 0. -1.
        -13    1    6    6    0    0 -0.23735011958E+02 -0.92177887342E+01 -0.13101978154E+03  0.13347097654E+03  0.00000000000E+00 0.  1.
         14    1    6    6    0    0  0.35975691894E+02  0.54742271679E+02 -0.17148045871E+03  0.18356610372E+03  0.00000000000E+00 0. -1.
         -5    1    3    3    0  503  0.14365929959E+02  0.48612241554E+02 -0.22206283847E+03  0.22782344963E+03  0.47000000000E+01 0.  1.
         11    1    4    4    0    0 -0.27412377589E+00 -0.17277717019E+02 -0.87830491714E+02  0.89514188394E+02  0.00000000000E+00 0. -1.
        -12    1    4    4    0    0 -0.65499474332E+02 -0.24934674481E+01 -0.45986854413E+02  0.80069902563E+02  0.00000000000E+00 0.  1.
<mgrwt>
<rscale>  2 0.17864174E+03</rscale>
<asrwt>0</asrwt>
<pdfrwt beam="1">  1       21 0.53910448E-02 0.17923716E+03</pdfrwt>
<pdfrwt beam="2">  1       21 0.14448422E+00 0.17923716E+03</pdfrwt>
<totfact> 0.78564725E+04</totfact>
</mgrwt>
</event>
<event>
12    1  0.1029207E-001  0.2163032E+03  0.7546771E-02  0.1136697E+00
         21   -1    0    0  503  502  0.00000000000E+00  0.00000000000E+00  0.27742414497E+03  0.27742414497E+03  0.00000000000E+00 0. -1.
         21   -1    0    0  501  503 -0.00000000000E+00 -0.00000000000E+00 -0.17280029883E+03  0.17280029883E+03  0.00000000000E+00 0.  1.
          6    2    1    2  501    0  0.12892711744E+03  0.17553802150E+02  0.16927950071E+02  0.21681999324E+03  0.17260943309E+03 0.  0.
         24    2    3    3    0    0  0.14833814477E+03  0.57426955125E+01 -0.17914010325E+02  0.17495900393E+03  0.90843588350E+02 0.  0.
         -6    2    1    2    0  502 -0.12892711744E+03 -0.17553802150E+02  0.87695896066E+02  0.23340445057E+03  0.17279100027E+03 0.  0.
        -24    2    5    5    0    0 -0.18674400485E+02 -0.51813952935E+02  0.69696432761E+02  0.11646219897E+03  0.75315550170E+02 0.  0.
          5    1    3    3  501    0 -0.19411027325E+02  0.11811106638E+02  0.34841960396E+02  0.41860989310E+02  0.47000000000E+01 0. -1.
        -11    1    4    4    0    0  0.47501353193E+01 -0.17248769717E+02  0.17782160337E+02  0.25224770932E+02  0.00000000000E+00 0.  1.
         12    1    4    4    0    0  0.14358800945E+03  0.22991465229E+02 -0.35696170662E+02  0.14973423300E+03  0.00000000000E+00 0. -1.
         -5    1    5    5    0  502 -0.11025271696E+03  0.34260150785E+02  0.17999463305E+02  0.11694225159E+03  0.47000000000E+01 0.  1.
         11    1    6    6    0    0 -0.34423483291E+02 -0.62309471450E+02  0.66211039246E+02  0.97218044376E+02  0.00000000000E+00 0. -1.
        -12    1    6    6    0    0  0.15749082806E+02  0.10495518515E+02  0.34853935146E+01  0.19244154595E+02  0.00000000000E+00 0.  1.
<mgrwt>
<rscale>  2 0.21626692E+03</rscale>
<asrwt>0</asrwt>
<pdfrwt beam="1">  1       21 0.42680638E-01 0.21630318E+03</pdfrwt>
<pdfrwt beam="2">  1       21 0.26584661E-01 0.21630318E+03</pdfrwt>
<totfact> 0.70370470E+04</totfact>
</mgrwt>
</event>
<event>
12    1  0.1029207E-001  0.2499353E+03  0.7546771E-02  0.1113398E+00
         21   -1    0    0  501  502  0.00000000000E+00  0.00000000000E+00  0.11995609901E+03  0.11995609901E+03  0.00000000000E+00 0.  1.
         21   -1    0    0  502  503 -0.00000000000E+00 -0.00000000000E+00 -0.74681104402E+03  0.74681104402E+03  0.00000000000E+00 0.  1.
         -6    2    1    2    0  503 -0.15270868406E+03  0.94284198990E+02 -0.55208285328E+03  0.60588684203E+03  0.17347603895E+03 0.  0.
        -24    2    3    3    0    0 -0.32951877995E+02  0.69918367534E+02 -0.36037982373E+03  0.37849394883E+03  0.86079309719E+02 0.  0.
          6    2    1    2  501    0  0.15270868406E+03 -0.94284198990E+02 -0.74772091722E+02  0.26088030100E+03  0.17394888152E+03 0.  0.
         24    2    5    5    0    0  0.31653013349E+02  0.10600507508E+02 -0.43425023787E+02  0.97601380934E+02  0.80783741284E+02 0.  0.
          5    1    5    5  501    0  0.12105567071E+03 -0.10488470650E+03 -0.31347067935E+02  0.16327892006E+03  0.47000000000E+01 0. -1.
        -13    1    6    6    0    0  0.55498239887E+02 -0.87388469947E+01 -0.33111835151E+02  0.65213615944E+02  0.00000000000E+00 0.  1.
         14    1    6    6    0    0 -0.23845226538E+02  0.19339354503E+02 -0.10313188636E+02  0.32387764990E+02  0.00000000000E+00 0. -1.
         -5    1    3    3    0  503 -0.11975680607E+03  0.24365831457E+02 -0.19170302955E+03  0.22739289320E+03  0.47000000000E+01 0.  1.
         11    1    4    4    0    0 -0.35477533380E+02 -0.55245224168E+01 -0.72806445332E+02  0.81178532905E+02  0.00000000000E+00 0. -1.
        -12    1    4    4    0    0  0.25256553847E+01  0.75442889950E+02 -0.28757337840E+03  0.29731541592E+03  0.00000000000E+00 0.  1.
<mgrwt>
<rscale>  2 0.24985307E+03</rscale>
<asrwt>0</asrwt>
<pdfrwt beam="1">  1       21 0.18454784E-01 0.24993532E+03</pdfrwt>
<pdfrwt beam="2">  1       21 0.11489401E+00 0.24993532E+03</pdfrwt>
<totfact> 0.15216683E+04</totfact>
</mgrwt>
</event>
<event>
12    1  0.1029207E-001  0.3658095E+03  0.7546771E-02  0.1056430E+00
         21   -1    0    0  503  502  0.00000000000E+00  0.00000000000E+00  0.56916528967E+03  0.56916528967E+03  0.00000000000E+00 0.  1.
         21   -1    0    0  501  503 -0.00000000000E+00 -0.00000000000E+00 -0.87779771526E+03  0.87779771526E+03  0.00000000000E+00 0. -1.
          6    2    1    2  501    0 -0.40787365976E+02  0.31998709830E+03 -0.77369332351E+03  0.85527199991E+03  0.16980424812E+03 0.  0.
         24    2    3    3    0    0 -0.45298530619E+02  0.24111590333E+03 -0.42265071066E+03  0.49541922162E+03  0.81349531144E+02 0.  0.
         -6    2    1    2    0  502  0.40787365976E+02 -0.31998709830E+03  0.46506089792E+03  0.59169100503E+03  0.17251450476E+03 0.  0.
        -24    2    5    5    0    0 -0.27597474392E+02 -0.15080630436E+03  0.15292108385E+03  0.23009457119E+03  0.77810614838E+02 0.  0.
          5    1    3    3  501    0  0.45111646424E+01  0.78871194973E+02 -0.35104261285E+03  0.35985277829E+03  0.47000000000E+01 0. -1.
        -13    1    4    4    0    0 -0.17642868841E+02  0.27614810636E+01 -0.39241279087E+02  0.43113508127E+02  0.00000000000E+00 0.  1.
         14    1    4    4    0    0 -0.27655661777E+02  0.23835442226E+03 -0.38340943157E+03  0.45230571350E+03  0.00000000000E+00 0. -1.
         -5    1    5    5    0  502  0.68384840368E+02 -0.16918079394E+03  0.31213981407E+03  0.36159643383E+03  0.47000000000E+01 0.  1.
         11    1    6    6    0    0  0.17810246132E+02 -0.39625861360E+02  0.12263959393E+02  0.45142202602E+02  0.00000000000E+00 0. -1.
        -12    1    6    6    0    0 -0.45407720523E+02 -0.11118044300E+03  0.14065712445E+03  0.18495236859E+03  0.00000000000E+00 0.  1.
<mgrwt>
<rscale>  2 0.36549153E+03</rscale>
<asrwt>0</asrwt>
<pdfrwt beam="1">  1       21 0.87563891E-01 0.36580952E+03</pdfrwt>
<pdfrwt beam="2">  1       21 0.13504580E+00 0.36580952E+03</pdfrwt>
<totfact> 0.38088074E+02</totfact>
</mgrwt>
</event>
<event>
12    1  0.1029207E-001  0.2147914E+03  0.7546771E-02  0.1137871E+00
         21   -1    0    0  501  502  0.00000000000E+00  0.00000000000E+00  0.11997958857E+04  0.11997958857E+04  0.00000000000E+00 0.  1.
         21   -1    0    0  502  503 -0.00000000000E+00 -0.00000000000E+00 -0.38443277635E+02  0.38443277635E+02  0.00000000000E+00 0.  1.
         -6    2    1    2    0  503 -0.11213856207E+03 -0.59491636840E+02  0.56254438371E+03  0.60207357717E+03  0.17298004721E+03 0.  0.
        -24    2    3    3    0    0 -0.92349422542E+02  0.28425784136E+02  0.35521161085E+03  0.37595402548E+03  0.76352470486E+02 0.  0.
          6    2    1    2  501    0  0.11213856207E+03  0.59491636840E+02  0.59880822441E+03  0.63616558621E+03  0.17326584056E+03 0.  0.
         24    2    5    5    0    0  0.11796348912E+03 -0.20231575198E+01  0.49727421032E+03  0.51721498421E+03  0.79436903929E+02 0.  0.
          5    1    5    5  501    0 -0.58249270577E+01  0.61514794360E+02  0.10153401408E+03  0.11895060200E+03  0.47000000000E+01 0. -1.
        -11    1    6    6    0    0  0.45165321312E+02  0.38003531900E+02  0.19583380762E+03  0.20453619458E+03  0.00000000000E+00 0.  1.
         12    1    6    6    0    0  0.72798167813E+02 -0.40026689420E+02  0.30144040271E+03  0.31267878963E+03  0.00000000000E+00 0. -1.
         -5    1    3    3    0  503 -0.19789139525E+02 -0.87917420976E+02  0.20733277286E+03  0.22611955169E+03  0.47000000000E+01 0.  1.
         11    1    4    4    0    0  0.11771156674E+02  0.12832978575E+02  0.62667765840E+02  0.65042250452E+02  0.00000000000E+00 0. -1.
        -12    1    4    4    0    0 -0.10412057922E+03  0.15592805561E+02  0.29254384501E+03  0.31091177503E+03  0.00000000000E+00 0.  1.
<mgrwt>
<rscale>  2 0.21473380E+03</rscale>
<asrwt>0</asrwt>
<pdfrwt beam="1">  1       21 0.18458395E+00 0.21479144E+03</pdfrwt>
<pdfrwt beam="2">  1       21 0.59143513E-02 0.21479144E+03</pdfrwt>
<totfact> 0.33749358E+04</totfact>
</mgrwt>
</event>
<event>
12    1  0.1029207E-001  0.2208632E+03  0.7546771E-02  0.1133614E+00
         21   -1    0    0  501  502  0.00000000000E+00  0.00000000000E+00  0.21737297489E+03  0.21737297489E+03  0.00000000000E+00 0.  1.
         21   -1    0    0  502  503 -0.00000000000E+00 -0.00000000000E+00 -0.22343511563E+03  0.22343511563E+03  0.00000000000E+00 0.  1.
         -6    2    1    2    0  503  0.57848312212E+02  0.12427738326E+03 -0.18146577506E+02  0.21961455786E+03  0.17061641344E+03 0.  0.
        -24    2    3    3    0    0  0.42368960731E+02  0.37719723702E+02  0.48037387383E+02  0.10945900440E+03  0.80347847936E+02 0.  0.
          6    2    1    2  501    0 -0.57848312212E+02 -0.12427738326E+03  0.12084436765E+02  0.22119353266E+03  0.17317404558E+03 0.  0.
         24    2    5    5    0    0 -0.82030400010E+02 -0.14033760318E+03 -0.12503331863E+02  0.18286139992E+03  0.82815028119E+02 0.  0.
          5    1    5    5  501    0  0.24182087798E+02  0.16060219917E+02  0.24587768628E+02  0.38332132737E+02  0.47000000000E+01 0. -1.
        -11    1    6    6    0    0 -0.14166787125E+02 -0.10456917825E+03 -0.30518764888E+01  0.10556857888E+03  0.00000000000E+00 0.  1.
         12    1    6    6    0    0 -0.67863612885E+02 -0.35768424930E+02 -0.94514553746E+01  0.77292821041E+02  0.00000000000E+00 0. -1.
         -5    1    3    3    0  503  0.15479351481E+02  0.86557659561E+02 -0.66183964888E+02  0.11015555347E+03  0.47000000000E+01 0.  1.
         11    1    4    4    0    0  0.38989927121E+01 -0.23352267094E+02  0.18067364103E+01  0.23744363943E+02  0.00000000000E+00 0. -1.
        -12    1    4    4    0    0  0.38469968019E+02  0.61071990797E+02  0.46230650972E+02  0.85714640456E+02  0.00000000000E+00 0.  1.
<mgrwt>
<rscale>  2 0.22036157E+03</rscale>
<asrwt>0</asrwt>
<pdfrwt beam="1">  1       21 0.33441996E-01 0.22086318E+03</pdfrwt>
<pdfrwt beam="2">  1       21 0.34374633E-01 0.22086318E+03</pdfrwt>
<totfact> 0.69380531E+04</totfact>
</mgrwt>
</event>
<event>
12    1  0.1029207E-001  0.2482753E+03  0.7546771E-02  0.1114763E+00
         21   -1    0    0  503  502  0.00000000000E+00  0.00000000000E+00  0.99159674095E+02  0.99159674095E+02  0.00000000000E+00 0.  1.
         21   -1    0    0  501  503 -0.00000000000E+00 -0.00000000000E+00 -0.10746546953E+04  0.10746546953E+04  0.00000000000E+00 0.  1.
          6    2    1    2  501    0  0.16689799649E+03 -0.61115344513E+02 -0.10303346830E+03  0.26671470356E+03  0.17009059626E+03 0.  0.
         24    2    3    3    0    0  0.14659293275E+03  0.14448627695E+02 -0.67890610142E+02  0.18081173510E+03  0.79909310043E+02 0.  0.
         -6    2    1    2    0  502 -0.16689799649E+03  0.61115344513E+02 -0.87246155291E+03  0.90709966584E+03  0.17335113470E+03 0.  0.
        -24    2    5    5    0    0 -0.89846402774E+02 -0.29073139677E+02 -0.34904262886E+03  0.37038710699E+03  0.80238573784E+02 0.  0.
          5    1    3    3  501    0  0.20305063739E+02 -0.75563972208E+02 -0.35142858158E+02  0.85902968452E+02  0.47000000000E+01 0. -1.
        -13    1    4    4    0    0  0.23858982127E+02 -0.28409706726E+02 -0.94847304402E+01  0.38292591658E+02  0.00000000000E+00 0.  1.
         14    1    4    4    0    0  0.12273395062E+03  0.42858334421E+02 -0.58405879702E+02  0.14251914344E+03  0.00000000000E+00 0. -1.
         -5    1    5    5    0  502 -0.77051593714E+02  0.90188484190E+02 -0.52341892405E+03  0.53671255885E+03  0.47000000000E+01 0.  1.
         11    1    6    6    0    0  0.79513058094E+01 -0.13352116250E+02 -0.11782742355E+03  0.11884781871E+03  0.00000000000E+00 0. -1.
        -12    1    6    6    0    0 -0.97797708583E+02 -0.15721023427E+02 -0.23121520531E+03  0.25153928828E+03  0.00000000000E+00 0.  1.
<mgrwt>
<rscale>  2 0.24770701E+03</rscale>
<asrwt>0</asrwt>
<pdfrwt beam="1">  1       21 0.15255335E-01 0.24827534E+03</pdfrwt>
<pdfrwt beam="2">  1       21 0.16533149E+00 0.24827534E+03</pdfrwt>
<totfact> 0.84143709E+03</totfact>
</mgrwt>
</event>
<event>
12    1  0.1029207E-001  0.1740727E+03  0.7546771E-02  0.1174023E+00
         21   -1    0    0  503  502  0.00000000000E+00  0.00000000000E+00  0.27635553800E+03  0.27635553800E+03  0.00000000000E+00 0.  1.
         21   -1    0    0  501  503 -0.00000000000E+00 -0.00000000000E+00 -0.24210936148E+03  0.24210936148E+03  0.00000000000E+00 0.  1.
          6    2    1    2  501    0 -0.13226931427E+02 -0.46825446284E+01 -0.17529503788E+03  0.24605190681E+03  0.17209390635E+03 0.  0.
         24    2    3    3    0    0  0.34723371261E+02 -0.21027015612E+02 -0.17494634070E+03  0.19517376957E+03  0.76411584911E+02 0.  0.
         -6    2    1    2    0  502  0.13226931427E+02  0.46825446284E+01  0.20954121440E+03  0.27241299267E+03  0.17350631142E+03 0.  0.
        -24    2    5    5    0    0 -0.33790312389E+02  0.52657707094E+02  0.91801083653E+02  0.13677720897E+03  0.79786882424E+02 0.  0.
          5    1    3    3  501    0 -0.47950302688E+02  0.16344470984E+02 -0.34869718793E+00  0.50878137243E+02  0.47000000000E+01 0. -1.
        -13    1    4    4    0    0  0.86935787721E+01  0.11705272928E+02 -0.13976435284E+03  0.14052283106E+03  0.00000000000E+00 0.  1.
         14    1    4    4    0    0  0.26029792489E+02 -0.32732288541E+02 -0.35181987859E+02  0.54650938509E+02  0.00000000000E+00 0. -1.
         -5    1    5    5    0  502  0.47017243815E+02 -0.47975162466E+02  0.11774013075E+03  0.13563578369E+03  0.47000000000E+01 0.  1.
         13    1    6    6    0    0  0.83259720368E+01  0.10816206412E+02 -0.11356566093E+02  0.17756230595E+02  0.00000000000E+00 0. -1.
        -14    1    6    6    0    0 -0.42116284425E+02  0.41841500682E+02  0.10315764975E+03  0.11902097838E+03  0.00000000000E+00 0.  1.
<mgrwt>
<rscale>  2 0.17371972E+03</rscale>
<asrwt>0</asrwt>
<pdfrwt beam="1">  1       21 0.42516237E-01 0.17407274E+03</pdfrwt>
<pdfrwt beam="2">  1       21 0.37247594E-01 0.17407274E+03</pdfrwt>
<totfact> 0.37354317E+04</totfact>
</mgrwt>
</event>
<event>
12    1  0.1029207E-001  0.1904430E+03  0.7546771E-02  0.1158369E+00
         21   -1    0    0  503  502  0.00000000000E+00  0.00000000000E+00  0.14017353377E+04  0.14017353377E+04  0.00000000000E+00 0. -1.
         21   -1    0    0  501  503 -0.00000000000E+00 -0.00000000000E+00 -0.29311787595E+02  0.29311787595E+02  0.00000000000E+00 0. -1.
          6    2    1    2  501    0  0.49306086186E+02 -0.61717154096E+02  0.43684793562E+03  0.47655497859E+03  0.17328713605E+03 0.  0.
         24    2    3    3    0    0  0.47368332625E+02 -0.10879422272E+03  0.33837141550E+03  0.36728595144E+03  0.79522408590E+02 0.  0.
         -6    2    1    2    0  502 -0.49306086186E+02  0.61717154096E+02  0.93557561451E+03  0.95449214673E+03  0.17179473349E+03 0.  0.
        -24    2    5    5    0    0 -0.63034182646E+02  0.83491553708E+02  0.90337231047E+03  0.91299843754E+03  0.80873159400E+02 0.  0.
          5    1    3    3  501    0  0.19377535601E+01  0.47077068622E+02  0.98476520119E+02  0.10926902715E+03  0.47000000000E+01 0. -1.
        -13    1    4    4    0    0  0.31945025864E+01  0.63002379641E+01  0.87255385445E+02  0.87540848376E+02  0.00000000000E+00 0.  1.
         14    1    4    4    0    0  0.44173830039E+02 -0.11509446068E+03  0.25111603005E+03  0.27974510307E+03  0.00000000000E+00 0. -1.
         -5    1    5    5    0  502  0.13728096460E+02 -0.21774399611E+02  0.32203304042E+02  0.41493709187E+02  0.47000000000E+01 0.  1.
         13    1    6    6    0    0  0.40385097230E+01  0.50900228695E+02  0.23525367900E+03  0.24073104562E+03  0.00000000000E+00 0. -1.
        -14    1    6    6    0    0 -0.67072692369E+02  0.32591325013E+02  0.66811863146E+03  0.67226739192E+03  0.00000000000E+00 0.  1.
<mgrwt>
<rscale>  2 0.19010283E+03</rscale>
<asrwt>0</asrwt>
<pdfrwt beam="1">  1       21 0.21565154E+00 0.19044298E+03</pdfrwt>
<pdfrwt beam="2">  1       21 0.45095069E-02 0.19044298E+03</pdfrwt>
<totfact> 0.34329135E+04</totfact>
</mgrwt>
</event>
<event>
12    1  0.1029207E-001  0.2114692E+03  0.7546771E-02  0.1140562E+00
         21   -1    0    0  503  502  0.00000000000E+00  0.00000000000E+00  0.27180450219E+03  0.27180450219E+03  0.00000000000E+00 0. -1.
         21   -1    0    0  501  503 -0.00000000000E+00 -0.00000000000E+00 -0.27629159011E+03  0.27629159011E+03  0.00000000000E+00 0. -1.
          6    2    1    2  501    0  0.32027467608E+02  0.11694528149E+03 -0.17702014100E+03  0.27578134091E+03  0.17325489931E+03 0.  0.
         24    2    3    3    0    0 -0.39537708710E+02  0.30268570199E+02 -0.10607864199E+03  0.14278054008E+03  0.81573203855E+02 0.  0.
         -6    2    1    2    0  502 -0.32027467608E+02 -0.11694528149E+03  0.17253305309E+03  0.27231475139E+03  0.17229542035E+03 0.  0.
        -24    2    5    5    0    0  0.48528877926E+02 -0.62342648567E+02  0.78927484884E+02  0.13720418657E+03  0.79710621116E+02 0.  0.
          5    1    3    3  501    0  0.71565176317E+02  0.86676711286E+02 -0.70941499006E+02  0.13300080083E+03  0.47000000000E+01 0. -1.
        -11    1    4    4    0    0 -0.18753883039E+02  0.24878005611E+02 -0.11528356889E+03  0.11941911300E+03  0.00000000000E+00 0.  1.
         12    1    4    4    0    0 -0.20783825671E+02  0.53905645880E+01  0.92049269026E+01  0.23361427083E+02  0.00000000000E+00 0. -1.
         -5    1    5    5    0  502 -0.80556345533E+02 -0.54602632918E+02  0.93605568202E+02  0.13511056482E+03  0.47000000000E+01 0.  1.
         13    1    6    6    0    0  0.84466886742E+00 -0.63808426311E+02  0.37474352284E+02  0.74003755397E+02  0.00000000000E+00 0. -1.
        -14    1    6    6    0    0  0.47684209058E+02  0.14657777431E+01  0.41453132600E+02  0.63200431172E+02  0.00000000000E+00 0.  1.
<mgrwt>
<rscale>  2 0.21127257E+03</rscale>
<asrwt>0</asrwt>
<pdfrwt beam="1">  1       21 0.41816077E-01 0.21146919E+03</pdfrwt>
<pdfrwt beam="2">  1       21 0.42506399E-01 0.21146919E+03</pdfrwt>
<totfact> 0.29013175E+04</totfact>
</mgrwt>
</event>
<event>
12    1  0.1029207E-001  0.2000277E+03  0.7546771E-02  0.1149961E+00
         21   -1    0    0  503  502  0.00000000000E+00  0.00000000000E+00  0.10728015708E+03  0.10728015708E+03  0.00000000000E+00 0.  1.
         21   -1    0    0  501  503 -0.00000000000E+00 -0.00000000000E+00 -0.10560397305E+04  0.10560397305E+04  0.00000000000E+00 0. -1.
          6    2    1    2  501    0 -0.52175153007E+02  0.85360056119E+02 -0.94243879451E+03  0.96319238140E+03  0.17187232593E+03 0.  0.
         24    2    3    3    0    0 -0.37677028335E+02  0.63683176236E+02 -0.92435614009E+03  0.93111193360E+03  0.84024126066E+02 0.  0.
         -6    2    1    2    0  502  0.52175153007E+02 -0.85360056119E+02 -0.63207788811E+01  0.20012750614E+03  0.17321224177E+03 0.  0.
        -24    2    5    5    0    0 -0.26793703195E+02 -0.62663067413E+02 -0.36467137090E+02  0.11247976539E+03  0.81714643643E+02 0.  0.
          5    1    3    3  501    0 -0.14498124672E+02  0.21676879882E+02 -0.18082654412E+02  0.32080447799E+02  0.47000000000E+01 0. -1.
        -11    1    4    4    0    0  0.14543537827E+02  0.37985996157E+02 -0.18257297330E+03  0.18704903361E+03  0.00000000000E+00 0.  1.
         12    1    4    4    0    0 -0.52220566162E+02  0.25697180080E+02 -0.74178316679E+03  0.74406289998E+03  0.00000000000E+00 0. -1.
         -5    1    5    5    0  502  0.78968856201E+02 -0.22696988705E+02  0.30146358209E+02  0.87647740754E+02  0.47000000000E+01 0.  1.
         13    1    6    6    0    0  0.27298595737E+02 -0.19426772897E+02 -0.26074486093E+02  0.42455761204E+02  0.00000000000E+00 0. -1.
        -14    1    6    6    0    0 -0.54092298932E+02 -0.43236294516E+02 -0.10392650997E+02  0.70024004184E+02  0.00000000000E+00 0.  1.
<mgrwt>
<rscale>  2 0.19973724E+03</rscale>
<asrwt>0</asrwt>
<pdfrwt beam="1">  1       21 0.16504639E-01 0.20002766E+03</pdfrwt>
<pdfrwt beam="2">  1       21 0.16246765E+00 0.20002766E+03</pdfrwt>
<totfact> 0.79074921E+03</totfact>
</mgrwt>
</event>
<event>
12    1  0.1029207E-001  0.2874729E+03  0.7546771E-02  0.1091742E+00
         21   -1    0    0  501  502  0.00000000000E+00  0.00000000000E+00  0.25038793674E+03  0.25038793674E+03  0.00000000000E+00 0.  1.
         21   -1    0    0  502  503 -0.00000000000E+00 -0.00000000000E+00 -0.12431545386E+04  0.12431545386E+04  0.00000000000E+00 0. -1.
         -6    2    1    2    0  503 -0.20371739574E+03 -0.10319356743E+03 -0.11367052551E+04  0.11724928645E+04  0.17461669675E+03 0.  0.
        -24    2    3    3    0    0 -0.20060020780E+03 -0.13513821663E+03 -0.10233143440E+04  0.10545531928E+04  0.80046290835E+02 0.  0.
          6    2    1    2  501    0  0.20371739574E+03  0.10319356743E+03  0.14393865323E+03  0.32104961079E+03  0.17379535958E+03 0.  0.
         24    2    5    5    0    0  0.17036408525E+03  0.84331355424E+02  0.17558712054E+03  0.27113025738E+03  0.80901671927E+02 0.  0.
          5    1    5    5  501    0  0.33353310487E+02  0.18862212002E+02 -0.31648467305E+02  0.49919353409E+02  0.47000000000E+01 0. -1.
        -11    1    6    6    0    0  0.30938572214E+02  0.11305876189E+02 -0.30107432657E+01  0.33076920384E+02  0.00000000000E+00 0.  1.
         12    1    6    6    0    0  0.13942551303E+03  0.73025479235E+02  0.17859786380E+03  0.23805333700E+03  0.00000000000E+00 0. -1.
         -5    1    3    3    0  503 -0.31171879395E+01  0.31944649202E+02 -0.11339091103E+03  0.11793967177E+03  0.47000000000E+01 0.  1.
         13    1    4    4    0    0 -0.74631780367E+02 -0.82704031640E+01 -0.34465760221E+03  0.35274234927E+03  0.00000000000E+00 0. -1.
        -14    1    4    4    0    0 -0.12596842743E+03 -0.12686781346E+03 -0.67865674184E+03  0.70181084349E+03  0.00000000000E+00 0.  1.
<mgrwt>
<rscale>  2 0.28734830E+03</rscale>
<asrwt>0</asrwt>
<pdfrwt beam="1">  1       21 0.38521221E-01 0.28747292E+03</pdfrwt>
<pdfrwt beam="2">  1       21 0.19125455E+00 0.28747292E+03</pdfrwt>
<totfact> 0.91132780E+02</totfact>
</mgrwt>
</event>
<event>
12    1  0.1029207E-001  0.2337352E+03  0.7546771E-02  0.1124054E+00
         21   -1    0    0  501  502  0.00000000000E+00  0.00000000000E+00  0.17030495339E+03  0.17030495339E+03  0.00000000000E+00 0. -1.
         21   -1    0    0  502  503 -0.00000000000E+00 -0.00000000000E+00 -0.37539584345E+03  0.37539584345E+03  0.00000000000E+00 0. -1.
         -6    2    1    2    0  503 -0.17905856019E+02  0.15721614255E+03  0.16543146399E+01  0.23364993114E+03  0.17190700511E+03 0.  0.
        -24    2    3    3    0    0  0.57508759693E+02  0.82984255250E+02  0.71330056740E+01  0.12758465214E+03  0.77674446440E+02 0.  0.
          6    2    1    2  501    0  0.17905856019E+02 -0.15721614255E+03 -0.20674520471E+03  0.31205086570E+03  0.17203089244E+03 0.  0.
         24    2    5    5    0    0  0.19589099051E+02 -0.62887973433E+01 -0.81725742298E+02  0.11600532808E+03  0.79717359559E+02 0.  0.
          5    1    5    5  501    0 -0.16832430317E+01 -0.15092734521E+03 -0.12501946241E+03  0.19604553762E+03  0.47000000000E+01 0. -1.
        -13    1    6    6    0    0  0.33632502455E+02 -0.12911334045E+02 -0.91033390644E+02  0.97902635206E+02  0.00000000000E+00 0.  1.
         14    1    6    6    0    0 -0.14043403404E+02  0.66225367013E+01  0.93076483458E+01  0.18102692873E+02  0.00000000000E+00 0. -1.
         -5    1    3    3    0  503 -0.75414615711E+02  0.74231887305E+02 -0.54786910342E+01  0.10606527901E+03  0.47000000000E+01 0.  1.
         13    1    4    4    0    0  0.31078032565E+02  0.82579011714E+02  0.29420273798E+02  0.93009084471E+02  0.00000000000E+00 0. -1.
        -14    1    4    4    0    0  0.26430727128E+02  0.40524353527E+00 -0.22287268124E+02  0.34575567664E+02  0.00000000000E+00 0.  1.
<mgrwt>
<rscale>  2 0.23371245E+03</rscale>
<asrwt>0</asrwt>
<pdfrwt beam="1">  1       21 0.26200763E-01 0.23373524E+03</pdfrwt>
<pdfrwt beam="2">  1       21 0.57753205E-01 0.23373524E+03</pdfrwt>
<totfact> 0.38151405E+04</totfact>
</mgrwt>
</event>
<event>
12    1  0.1029207E-001  0.2223564E+03  0.7546771E-02  0.1134640E+00
         21   -1    0    0  503  502  0.00000000000E+00  0.00000000000E+00  0.39794657203E+02  0.39794657203E+02  0.00000000000E+00 0.  1.
         21   -1    0    0  501  503 -0.00000000000E+00 -0.00000000000E+00 -0.13602730866E+04  0.13602730866E+04  0.00000000000E+00 0.  1.
          6    2    1    2  501    0  0.12049636175E+02 -0.13271577460E+03 -0.90466757010E+03  0.92853719557E+03  0.16124280015E+03 0.  0.
         24    2    3    3    0    0 -0.42679712007E+02 -0.10871211252E+03 -0.51145177672E+03  0.53077818875E+03  0.80639224384E+02 0.  0.
         -6    2    1    2    0  502 -0.12049636175E+02  0.13271577460E+03 -0.41581085930E+03  0.47153054823E+03  0.17799920407E+03 0.  0.
        -24    2    5    5    0    0  0.58526828835E+02  0.11089981606E+03 -0.26622973652E+03  0.30463664256E+03  0.78746761755E+02 0.  0.
          5    1    3    3  501    0  0.54729348183E+02 -0.24003662079E+02 -0.39321579337E+03  0.39775900682E+03  0.47000000000E+01 0. -1.
        -11    1    4    4    0    0  0.68947614009E+01 -0.26252086762E+01 -0.16319635909E+03  0.16336303460E+03  0.00000000000E+00 0.  1.
         12    1    4    4    0    0 -0.49574473408E+02 -0.10608690384E+03 -0.34825541764E+03  0.36741515415E+03  0.00000000000E+00 0. -1.
         -5    1    5    5    0  502 -0.70576465011E+02  0.21815958539E+02 -0.14958112278E+03  0.16689390568E+03  0.47000000000E+01 0.  1.
         13    1    6    6    0    0  0.68554076462E+01 -0.48196130683E+01 -0.73480455239E+02  0.73956761599E+02  0.00000000000E+00 0. -1.
        -14    1    6    6    0    0  0.51671421189E+02  0.11571942913E+03 -0.19274928128E+03  0.23067988096E+03  0.00000000000E+00 0.  1.
<mgrwt>
<rscale>  2 0.21898752E+03</rscale>
<asrwt>0</asrwt>
<pdfrwt beam="1">  1       21 0.61222548E-02 0.22235644E+03</pdfrwt>
<pdfrwt beam="2">  1       21 0.20927279E+00 0.22235644E+03</pdfrwt>
<totfact> 0.21852695E+04</totfact>
</mgrwt>
</event>
<event>
12    1  0.1029207E-001  0.1758628E+03  0.7546771E-02  0.1171869E+00
         21   -1    0    0  503  502  0.00000000000E+00  0.00000000000E+00  0.14293729589E+04  0.14293729589E+04  0.00000000000E+00 0.  1.
         21   -1    0    0  501  503 -0.00000000000E+00 -0.00000000000E+00 -0.28605341121E+02  0.28605341121E+02  0.00000000000E+00 0.  1.
          6    2    1    2  501    0  0.19066755630E+02 -0.27754308523E+02  0.34058508411E+03  0.38330915662E+03  0.17260900098E+03 0.  0.
         24    2    3    3    0    0 -0.36934413175E+02  0.26652902311E+02  0.20973699830E+03  0.23086379901E+03  0.85052672845E+02 0.  0.
         -6    2    1    2    0  502 -0.19066755630E+02  0.27754308523E+02  0.10601825337E+04  0.10746691434E+04  0.17260625789E+03 0.  0.
        -24    2    5    5    0    0  0.60478504965E+01 -0.95911580328E+01  0.97247231750E+03  0.97597466871E+03  0.81826516835E+02 0.  0.
          5    1    3    3  501    0  0.56001168805E+02 -0.54407210835E+02  0.13084808581E+03  0.15244535762E+03  0.47000000000E+01 0. -1.
        -11    1    4    4    0    0  0.40054912804E+01  0.20744140304E+02  0.46316812079E+01  0.21629049636E+02  0.00000000000E+00 0.  1.
         12    1    4    4    0    0 -0.40939904456E+02  0.59087620078E+01  0.20510531709E+03  0.20923474937E+03  0.00000000000E+00 0. -1.
         -5    1    5    5    0  502 -0.25114606127E+02  0.37345466556E+02  0.87710216184E+02  0.98694474700E+02  0.47000000000E+01 0.  1.
         13    1    6    6    0    0  0.22615098754E+01  0.31502926896E+02  0.66443771525E+03  0.66518796312E+03  0.00000000000E+00 0. -1.
        -14    1    6    6    0    0  0.37863406211E+01 -0.41094084929E+02  0.30803460225E+03  0.31078670560E+03  0.00000000000E+00 0.  1.
<mgrwt>
<rscale>  2 0.17586209E+03</rscale>
<asrwt>0</asrwt>
<pdfrwt beam="1">  1       21 0.21990348E+00 0.17586276E+03</pdfrwt>
<pdfrwt beam="2">  1       21 0.44008228E-02 0.17586276E+03</pdfrwt>
<totfact> 0.34052085E+04</totfact>
</mgrwt>
</event>
<event>
12    1  0.1029207E-001  0.2004438E+03  0.7546771E-02  0.1150128E+00
         21   -1    0    0  503  502  0.00000000000E+00  0.00000000000E+00  0.13045722200E+04  0.13045722200E+04  0.00000000000E+00 0. -1.
         21   -1    0    0  501  503 -0.00000000000E+00 -0.00000000000E+00 -0.10607004542E+03  0.10607004542E+03  0.00000000000E+00 0.  1.
          6    2    1    2  501    0 -0.93477285887E+02 -0.18929941252E+02  0.44714972278E+01  0.20049368561E+03  0.17629911523E+03 0.  0.
         24    2    3    3    0    0 -0.89515454075E+02 -0.72428263675E+02  0.23738674442E+02  0.14330032296E+03  0.81930385081E+02 0.  0.
         -6    2    1    2    0  502  0.93477285887E+02  0.18929941252E+02  0.11940306774E+04  0.12101485798E+04  0.17220331323E+03 0.  0.
        -24    2    5    5    0    0  0.39917286887E+01 -0.34285215637E+02  0.42179990176E+03  0.43091692064E+03  0.81134613203E+02 0.  0.
          5    1    3    3  501    0 -0.39618318113E+01  0.53498322424E+02 -0.19267177214E+02  0.57193362650E+02  0.47000000000E+01 0. -1.
        -11    1    4    4    0    0  0.99753854217E+01 -0.29784528297E+02  0.14696183900E+02  0.34678585055E+02  0.00000000000E+00 0.  1.
         12    1    4    4    0    0 -0.99490839497E+02 -0.42643735379E+02  0.90424905415E+01  0.10862173791E+03  0.00000000000E+00 0. -1.
         -5    1    5    5    0  502  0.89485557198E+02  0.53215156889E+02  0.77223077564E+03  0.77923165921E+03  0.47000000000E+01 0.  1.
         13    1    6    6    0    0 -0.61308736664E+01  0.16187381027E+02  0.27139681369E+03  0.27194824765E+03  0.00000000000E+00 0. -1.
        -14    1    6    6    0    0  0.10122602355E+02 -0.50472596664E+02  0.15040308807E+03  0.15896867299E+03  0.00000000000E+00 0.  1.
<mgrwt>
<rscale>  2 0.19953952E+03</rscale>
<asrwt>0</asrwt>
<pdfrwt beam="1">  1       21 0.20070341E+00 0.20044382E+03</pdfrwt>
<pdfrwt beam="2">  1       21 0.16318470E-01 0.20044382E+03</pdfrwt>
<totfact> 0.44365269E+03</totfact>
</mgrwt>
</event>
<event>
12    1  0.1029207E-001  0.2207270E+03  0.7546771E-02  0.1133385E+00
         21   -1    0    0  501  502  0.00000000000E+00  0.00000000000E+00  0.52264684423E+03  0.52264684423E+03  0.00000000000E+00 0.  1.
         21   -1    0    0  502  503 -0.00000000000E+00 -0.00000000000E+00 -0.10009384916E+03  0.10009384916E+03  0.00000000000E+00 0. -1.
         -6    2    1    2    0  503  0.25133185508E+01  0.13716565208E+03  0.29356058339E+03  0.36728495246E+03  0.17291526046E+03 0.  0.
        -24    2    3    3    0    0 -0.56163410808E+02  0.12642190164E+03  0.22158325655E+03  0.27368360460E+03  0.81650167883E+02 0.  0.
          6    2    1    2  501    0 -0.25133185508E+01 -0.13716565208E+03  0.12899241168E+03  0.25545574094E+03  0.17262056779E+03 0.  0.
         24    2    5    5    0    0 -0.62686839748E+02 -0.11002308723E+03  0.63746614030E+02  0.16252202482E+03  0.79467340156E+02 0.  0.
          5    1    5    5  501    0  0.60173521197E+02 -0.27142564855E+02  0.65245797645E+02  0.92933716112E+02  0.47000000000E+01 0. -1.
        -13    1    6    6    0    0 -0.25916748920E+02 -0.29700502256E+01  0.38571157097E+02  0.46564291391E+02  0.00000000000E+00 0.  1.
         14    1    6    6    0    0 -0.36770090827E+02 -0.10705303700E+03  0.25175456933E+02  0.11595773343E+03  0.00000000000E+00 0. -1.
         -5    1    3    3    0  503  0.58676729359E+02  0.10743750448E+02  0.71977326840E+02  0.93601347859E+02  0.47000000000E+01 0.  1.
         11    1    4    4    0    0 -0.46992918926E+01  0.44767300060E+02  0.18188145505E+02  0.48548976671E+02  0.00000000000E+00 0. -1.
        -12    1    4    4    0    0 -0.51464118916E+02  0.81654601577E+02  0.20339511105E+03  0.22513462793E+03  0.00000000000E+00 0.  1.
<mgrwt>
<rscale>  2 0.22066931E+03</rscale>
<asrwt>0</asrwt>
<pdfrwt beam="1">  1       21 0.80407205E-01 0.22072703E+03</pdfrwt>
<pdfrwt beam="2">  1       21 0.15399054E-01 0.22072703E+03</pdfrwt>
<totfact> 0.50157561E+04</totfact>
</mgrwt>
</event>
<event>
12    1  0.1029207E-001  0.1750316E+03  0.7546771E-02  0.1172889E+00
         21   -1    0    0  503  502  0.00000000000E+00  0.00000000000E+00  0.92918019952E+02  0.92918019952E+02  0.00000000000E+00 0.  1.
         21   -1    0    0  501  503 -0.00000000000E+00 -0.00000000000E+00 -0.39270461085E+03  0.39270461085E+03  0.00000000000E+00 0.  1.
          6    2    1    2  501    0  0.26541189113E+02  0.14075418456E+01 -0.24795722540E+03  0.30307856784E+03  0.17224231990E+03 0.  0.
         24    2    3    3    0    0  0.32323908395E+02  0.55296596271E+02 -0.21803581829E+03  0.24099112440E+03  0.80215680332E+02 0.  0.
         -6    2    1    2    0  502 -0.26541189113E+02 -0.14075418456E+01 -0.51829365505E+02  0.18254406297E+03  0.17300183786E+03 0.  0.
        -24    2    5    5    0    0  0.48666998295E+01  0.10125222730E+02  0.36756188899E+02  0.87733986521E+02  0.78867167224E+02 0.  0.
          5    1    3    3  501    0 -0.57827192820E+01 -0.53889054425E+02 -0.29921407108E+02  0.62087443436E+02  0.47000000000E+01 0. -1.
        -11    1    4    4    0    0 -0.10832796159E+02  0.22038799715E+02 -0.15808387846E+03  0.15997990747E+03  0.00000000000E+00 0.  1.
         12    1    4    4    0    0  0.43156704554E+02  0.33257796556E+02 -0.59951939832E+02  0.81011216935E+02  0.00000000000E+00 0. -1.
         -5    1    5    5    0  502 -0.31407888942E+02 -0.11532764575E+02 -0.88585554404E+02  0.94810076446E+02  0.47000000000E+01 0.  1.
         11    1    6    6    0    0 -0.10315858769E+02 -0.24868590957E+02 -0.87920953309E+01  0.28322512223E+02  0.00000000000E+00 0. -1.
        -12    1    6    6    0    0  0.15182558599E+02  0.34993813687E+02  0.45548284230E+02  0.59411474298E+02  0.00000000000E+00 0.  1.
<mgrwt>
<rscale>  2 0.17484360E+03</rscale>
<asrwt>0</asrwt>
<pdfrwt beam="1">  1       21 0.14295080E-01 0.17503157E+03</pdfrwt>
<pdfrwt beam="2">  1       21 0.60416093E-01 0.17503157E+03</pdfrwt>
<totfact> 0.11002902E+05</totfact>
</mgrwt>
</event>
<event>
12    1  0.1029207E-001  0.2435129E+03  0.7546771E-02  0.1117519E+00
         21   -1    0    0  503  502  0.00000000000E+00  0.00000000000E+00  0.10905407013E+04  0.10905407013E+04  0.00000000000E+00 0.  1.
         21   -1    0    0  501  503 -0.00000000000E+00 -0.00000000000E+00 -0.16914930594E+03  0.16914930594E+03  0.00000000000E+00 0. -1.
          6    2    1    2  501    0  0.13993456082E+03  0.97227359888E+02 -0.58348186799E+02  0.25014151502E+03  0.17358405978E+03 0.  0.
         24    2    3    3    0    0  0.16550359553E+03  0.53481228587E+02 -0.42579344091E+02  0.19686632436E+03  0.81802611070E+02 0.  0.
         -6    2    1    2    0  502 -0.13993456082E+03 -0.97227359888E+02  0.97973958212E+03  0.10095484922E+04  0.17396456091E+03 0.  0.
        -24    2    5    5    0    0 -0.52782419126E+02  0.42304304965E+01  0.57794544352E+03  0.58605138610E+03  0.81433476922E+02 0.  0.
          5    1    3    3  501    0 -0.25569034709E+02  0.43746131300E+02 -0.15768842708E+02  0.53275190662E+02  0.47000000000E+01 0. -1.
        -11    1    4    4    0    0  0.16116000745E+03  0.67880492451E+02 -0.47203989315E+02  0.18113123934E+03  0.00000000000E+00 0.  1.
         12    1    4    4    0    0  0.43435880858E+01 -0.14399263864E+02  0.46246452236E+01  0.15735085024E+02  0.00000000000E+00 0. -1.
         -5    1    5    5    0  502 -0.87152141699E+02 -0.10145779038E+03  0.40179413861E+03  0.42349710607E+03  0.47000000000E+01 0.  1.
         11    1    6    6    0    0  0.17703204954E+01  0.30620203043E+02  0.10992087115E+03  0.11411980013E+03  0.00000000000E+00 0. -1.
        -12    1    6    6    0    0 -0.54552739621E+02 -0.26389772546E+02  0.46802457237E+03  0.47193158597E+03  0.00000000000E+00 0.  1.
<mgrwt>
<rscale>  2 0.24344490E+03</rscale>
<asrwt>0</asrwt>
<pdfrwt beam="1">  1       21 0.16777549E+00 0.24351285E+03</pdfrwt>
<pdfrwt beam="2">  1       21 0.26022971E-01 0.24351285E+03</pdfrwt>
<totfact> 0.29725207E+03</totfact>
</mgrwt>
</event>
<event>
12    1  0.1029207E-001  0.2110238E+03  0.7546771E-02  0.1143368E+00
         21   -1    0    0  503  502  0.00000000000E+00  0.00000000000E+00  0.44048448551E+03  0.44048448551E+03  0.00000000000E+00 0.  1.
         21   -1    0    0  501  503 -0.00000000000E+00 -0.00000000000E+00 -0.11418543576E+03  0.11418543576E+03  0.00000000000E+00 0.  1.
          6    2    1    2  501    0  0.91938019406E+02 -0.30391241803E+02  0.28091679450E+03  0.35134783932E+03  0.18749621802E+03 0.  0.
         24    2    3    3    0    0 -0.32739265593E+00 -0.99284586031E+01  0.22923080093E+03  0.24352778696E+03  0.81610915023E+02 0.  0.
         -6    2    1    2    0  502 -0.91938019406E+02  0.30391241803E+02  0.45382255248E+02  0.20332208195E+03  0.17292799925E+03 0.  0.
        -24    2    5    5    0    0 -0.58361541720E+02  0.17687651836E+02 -0.41451125211E+02  0.10924292903E+03  0.80603344736E+02 0.  0.
          5    1    3    3  501    0  0.92265412061E+02 -0.20462783200E+02  0.51685993571E+02  0.10782005236E+03  0.47000000000E+01 0. -1.
        -11    1    4    4    0    0 -0.57542213212E+01 -0.35659769383E+02  0.46333770376E+02  0.58749880789E+02  0.00000000000E+00 0.  1.
         12    1    4    4    0    0  0.54268286653E+01  0.25731310780E+02  0.18289703055E+03  0.18477790617E+03  0.00000000000E+00 0. -1.
         -5    1    5    5    0  502 -0.33576477686E+02  0.12703589967E+02  0.86833380459E+02  0.94079152918E+02  0.47000000000E+01 0.  1.
         13    1    6    6    0    0  0.19988622177E+02  0.18979469414E+01 -0.14969820267E+02  0.25044814593E+02  0.00000000000E+00 0. -1.
        -14    1    6    6    0    0 -0.78350163897E+02  0.15789704895E+02 -0.26481304944E+02  0.84198114438E+02  0.00000000000E+00 0.  1.
<mgrwt>
<rscale>  2 0.20774018E+03</rscale>
<asrwt>0</asrwt>
<pdfrwt beam="1">  1       21 0.67766843E-01 0.21102383E+03</pdfrwt>
<pdfrwt beam="2">  1       21 0.17566990E-01 0.21102383E+03</pdfrwt>
<totfact> 0.57931484E+04</totfact>
</mgrwt>
</event>
<event>
12    1  0.1029207E-001  0.2244878E+03  0.7546771E-02  0.1130584E+00
         21   -1    0    0  501  502  0.00000000000E+00  0.00000000000E+00  0.27939485712E+03  0.27939485712E+03  0.00000000000E+00 0. -1.
         21   -1    0    0  502  503 -0.00000000000E+00 -0.00000000000E+00 -0.36104038230E+03  0.36104038230E+03  0.00000000000E+00 0. -1.
         -6    2    1    2    0  503 -0.27354468168E+02  0.14095038816E+03 -0.26735245707E+03  0.34909039684E+03  0.17254416829E+03 0.  0.
        -24    2    3    3    0    0  0.24455520028E+02  0.13623522259E+03 -0.14011825376E+03  0.21155080197E+03  0.77217280741E+02 0.  0.
          6    2    1    2  501    0  0.27354468168E+02 -0.14095038816E+03  0.18570693189E+03  0.29134484259E+03  0.17256730251E+03 0.  0.
         24    2    5    5    0    0  0.71218267384E+02 -0.11220946757E+03  0.18111912959E+03  0.23849400222E+03  0.80076486982E+02 0.  0.
          5    1    5    5  501    0 -0.43863799216E+02 -0.28740920588E+02  0.45878023060E+01  0.52850840371E+02  0.47000000000E+01 0. -1.
        -11    1    6    6    0    0  0.65684360032E+02 -0.46666466741E+02  0.13813878073E+03  0.15992034584E+03  0.00000000000E+00 0.  1.
         12    1    6    6    0    0  0.55339073518E+01 -0.65543000833E+02  0.42980348859E+02  0.78573656380E+02  0.00000000000E+00 0. -1.
         -5    1    3    3    0  503 -0.51809988196E+02  0.47151655733E+01 -0.12723420331E+03  0.13753959486E+03  0.47000000000E+01 0.  1.
         11    1    4    4    0    0  0.68505246748E+01  0.79401960142E+01  0.91649159700E+01  0.13927386180E+02  0.00000000000E+00 0. -1.
        -12    1    4    4    0    0  0.17604995353E+02  0.12829502657E+03 -0.14928316973E+03  0.19762341579E+03  0.00000000000E+00 0.  1.
<mgrwt>
<rscale>  2 0.22448331E+03</rscale>
<asrwt>0</asrwt>
<pdfrwt beam="1">  1       21 0.42983825E-01 0.22448776E+03</pdfrwt>
<pdfrwt beam="2">  1       21 0.55544674E-01 0.22448776E+03</pdfrwt>
<totfact> 0.15595426E+04</totfact>
</mgrwt>
</event>
<event>
12    1  0.1029207E-001  0.1978554E+03  0.7546771E-02  0.1152202E+00
         21   -1    0    0  501  502  0.00000000000E+00  0.00000000000E+00  0.13641968959E+03  0.13641968959E+03  0.00000000000E+00 0.  1.
         21   -1    0    0  502  503 -0.00000000000E+00 -0.00000000000E+00 -0.49747031137E+03  0.49747031137E+03  0.00000000000E+00 0.  1.
         -6    2    1    2    0  503 -0.72357236241E+02 -0.54943638877E+02  0.26964194428E+02  0.19968434743E+03  0.17576233310E+03 0.  0.
        -24    2    3    3    0    0 -0.46886186262E+02  0.41264808797E+02 -0.24277382318E+01  0.95805497336E+02  0.72606476981E+02 0.  0.
          6    2    1    2  501    0  0.72357236241E+02  0.54943638877E+02 -0.38801481620E+03  0.43420565353E+03  0.17240846522E+03 0.  0.
         24    2    5    5    0    0  0.59780247107E+02  0.94187226342E+02 -0.20735693227E+03  0.24884761934E+03  0.80519120345E+02 0.  0.
          5    1    5    5  501    0  0.12576989134E+02 -0.39243587465E+02 -0.18065788394E+03  0.18535803420E+03  0.47000000000E+01 0. -1.
        -11    1    6    6    0    0  0.12304722780E+02  0.82746257317E+02 -0.16138539138E+03  0.18177896978E+03  0.00000000000E+00 0.  1.
         12    1    6    6    0    0  0.47475524327E+02  0.11440969026E+02 -0.45971540887E+02  0.67068649561E+02  0.00000000000E+00 0. -1.
         -5    1    3    3    0  503 -0.25471049979E+02 -0.96208447674E+02  0.29391932660E+02  0.10387885009E+03  0.47000000000E+01 0.  1.
         11    1    4    4    0    0  0.75849694720E+01 -0.52494929737E+01  0.18932077358E+02  0.21059736263E+02  0.00000000000E+00 0. -1.
        -12    1    4    4    0    0 -0.54471155734E+02  0.46514301771E+02 -0.21359815590E+02  0.74745761072E+02  0.00000000000E+00 0.  1.
<mgrwt>
<rscale>  2 0.19710788E+03</rscale>
<asrwt>0</asrwt>
<pdfrwt beam="1">  1       21 0.20987645E-01 0.19785543E+03</pdfrwt>
<pdfrwt beam="2">  1       21 0.76533894E-01 0.19785543E+03</pdfrwt>
<totfact> 0.31957106E+04</totfact>
</mgrwt>
</event>
<event>
12    1  0.1029207E-001  0.1739171E+03  0.7546771E-02  0.1173829E+00
         21   -1    0    0  501  502  0.00000000000E+00  0.00000000000E+00  0.41623715289E+03  0.41623715289E+03  0.00000000000E+00 0.  1.
         21   -1    0    0  502  503 -0.00000000000E+00 -0.00000000000E+00 -0.76177210173E+02  0.76177210173E+02  0.00000000000E+00 0.  1.
         -6    2    1    2    0  503 -0.16210480095E+02 -0.73976052698E+01  0.11713039329E+03  0.20968230798E+03  0.17300184108E+03 0.  0.
        -24    2    3    3    0    0  0.69508579892E+01  0.36952362125E+02  0.76140016306E+01  0.89186261435E+02  0.80513506410E+02 0.  0.
          6    2    1    2  501    0  0.16210480095E+02  0.73976052698E+01  0.22292954942E+03  0.28273205508E+03  0.17298071204E+03 0.  0.
         24    2    5    5    0    0  0.65932877718E+02 -0.19279907523E+02  0.90979394811E+02  0.13914605362E+03  0.79784176121E+02 0.  0.
          5    1    5    5  501    0 -0.49722397623E+02  0.26677512793E+02  0.13195015461E+03  0.14358600146E+03  0.47000000000E+01 0. -1.
        -11    1    6    6    0    0 -0.18461446260E+01 -0.86729466043E+01 -0.12296681174E+02  0.15160363474E+02  0.00000000000E+00 0.  1.
         12    1    6    6    0    0  0.67779022344E+02 -0.10606960919E+02  0.10327607599E+03  0.12398569015E+03  0.00000000000E+00 0. -1.
         -5    1    3    3    0  503 -0.23161338084E+02 -0.44349967395E+02  0.10951639166E+03  0.12049604654E+03  0.47000000000E+01 0.  1.
         13    1    4    4    0    0 -0.19644751116E+02  0.46018755465E+02 -0.15947696587E+02  0.52516389131E+02  0.00000000000E+00 0. -1.
        -14    1    4    4    0    0  0.26595609105E+02 -0.90663933396E+01  0.23561698217E+02  0.36669872304E+02  0.00000000000E+00 0.  1.
<mgrwt>
<rscale>  2 0.17391180E+03</rscale>
<asrwt>0</asrwt>
<pdfrwt beam="1">  1       21 0.64036484E-01 0.17391705E+03</pdfrwt>
<pdfrwt beam="2">  1       21 0.11719571E-01 0.17391705E+03</pdfrwt>
<totfact> 0.13871828E+05</totfact>
</mgrwt>
</event>
<event>
12    1  0.1029207E-001  0.1960712E+03  0.7546771E-02  0.1153111E+00
         21   -1    0    0  501  502  0.00000000000E+00  0.00000000000E+00  0.12407668239E+04  0.12407668239E+04  0.00000000000E+00 0. -1.
         21   -1    0    0  502  503 -0.00000000000E+00 -0.00000000000E+00 -0.37941965209E+02  0.37941965209E+02  0.00000000000E+00 0. -1.
         -6    2    1    2    0  503  0.83852779789E+02 -0.41733006307E+02  0.32749953143E+03  0.38170650799E+03  0.17225267098E+03 0.  0.
        -24    2    3    3    0    0  0.12472082831E+03 -0.36052517551E+02  0.23527744992E+03  0.28056567716E+03  0.80663199317E+02 0.  0.
          6    2    1    2  501    0 -0.83852779789E+02  0.41733006307E+02  0.87532532722E+03  0.89700228108E+03  0.17217935792E+03 0.  0.
         24    2    5    5    0    0 -0.29420166351E+01  0.55284655679E+02  0.29214219182E+03  0.30805843129E+03  0.80547428447E+02 0.  0.
          5    1    5    5  501    0 -0.80910763154E+02 -0.13551649372E+02  0.58318313540E+03  0.58894384979E+03  0.47000000000E+01 0. -1.
        -13    1    6    6    0    0  0.32563813312E+02  0.10247037799E+02  0.60950027607E+02  0.69859212609E+02  0.00000000000E+00 0.  1.
         14    1    6    6    0    0 -0.35505829947E+02  0.45037617880E+02  0.23119216421E+03  0.23819921868E+03  0.00000000000E+00 0. -1.
         -5    1    3    3    0  503 -0.40868048521E+02 -0.56804887560E+01  0.92222081512E+02  0.10114083083E+03  0.47000000000E+01 0.  1.
         11    1    4    4    0    0  0.10925094044E+03 -0.58874623042E+01  0.12972422138E+03  0.16970210314E+03  0.00000000000E+00 0. -1.
        -12    1    4    4    0    0  0.15469887874E+02 -0.30165055247E+02  0.10555322854E+03  0.11086357402E+03  0.00000000000E+00 0.  1.
<mgrwt>
<rscale>  2 0.19605510E+03</rscale>
<asrwt>0</asrwt>
<pdfrwt beam="1">  1       21 0.19088717E+00 0.19607120E+03</pdfrwt>
<pdfrwt beam="2">  1       21 0.58372264E-02 0.19607120E+03</pdfrwt>
<totfact> 0.31730073E+04</totfact>
</mgrwt>
</event>
<event>
12    1  0.1029207E-001  0.1887390E+03  0.7546771E-02  0.1159918E+00
         21   -1    0    0  501  502  0.00000000000E+00  0.00000000000E+00  0.56668855548E+02  0.56668855548E+02  0.00000000000E+00 0. -1.
         21   -1    0    0  502  503 -0.00000000000E+00 -0.00000000000E+00 -0.17878277867E+04  0.17878277867E+04  0.00000000000E+00 0. -1.
         -6    2    1    2    0  503 -0.39624564649E+02  0.62702740370E+02 -0.16085591568E+04  0.16194341772E+04  0.17205450685E+03 0.  0.
        -24    2    3    3    0    0 -0.55330854147E+02  0.42579581905E+02 -0.15662608671E+04  0.15698069231E+04  0.79032573041E+02 0.  0.
          6    2    1    2  501    0  0.39624564649E+02 -0.62702740370E+02 -0.12259977427E+03  0.22506246505E+03  0.17355307185E+03 0.  0.
         24    2    5    5    0    0  0.31230700528E+01  0.33967618350E+02 -0.75431175541E+02  0.11137656412E+03  0.74507208577E+02 0.  0.
          5    1    5    5  501    0  0.36501494596E+02 -0.96670358720E+02 -0.47168598734E+02  0.11368590093E+03  0.47000000000E+01 0. -1.
        -11    1    6    6    0    0 -0.16316445659E+02  0.23572699856E+02  0.39970180498E+01  0.28946065893E+02  0.00000000000E+00 0.  1.
         12    1    6    6    0    0  0.19439515711E+02  0.10394918494E+02 -0.79428193591E+02  0.82430498231E+02  0.00000000000E+00 0. -1.
         -5    1    3    3    0  503  0.15706289499E+02  0.20123158465E+02 -0.42298289732E+02  0.49627254112E+02  0.47000000000E+01 0.  1.
         11    1    4    4    0    0 -0.55722397933E+02  0.60397927030E+02 -0.10388915582E+04  0.10421365385E+04  0.00000000000E+00 0. -1.
        -12    1    4    4    0    0  0.39154378566E+00 -0.17818345126E+02 -0.52736930891E+03  0.52767038453E+03  0.00000000000E+00 0.  1.
<mgrwt>
<rscale>  2 0.18839378E+03</rscale>
<asrwt>0</asrwt>
<pdfrwt beam="1">  1       21 0.87182856E-02 0.18873900E+03</pdfrwt>
<pdfrwt beam="2">  1       21 0.27505042E+00 0.18873900E+03</pdfrwt>
<totfact> 0.49299785E+03</totfact>
</mgrwt>
</event>
<event>
12    1  0.1029207E-001  0.2518428E+03  0.7546771E-02  0.1112199E+00
         21   -1    0    0  503  502  0.00000000000E+00  0.00000000000E+00  0.10690319448E+04  0.10690319448E+04  0.00000000000E+00 0.  1.
         21   -1    0    0  501  503 -0.00000000000E+00 -0.00000000000E+00 -0.72377578114E+02  0.72377578114E+02  0.00000000000E+00 0.  1.
          6    2    1    2  501    0 -0.12539981828E+03  0.13308678062E+03  0.25554150944E+03  0.35878442258E+03  0.17316926181E+03 0.  0.
         24    2    3    3    0    0 -0.47857156785E+02  0.77683738850E+02  0.22694824136E+03  0.25917505369E+03  0.85680414705E+02 0.  0.
         -6    2    1    2    0  502  0.12539981828E+03 -0.13308678062E+03  0.74111285725E+03  0.78262510034E+03  0.17267476625E+03 0.  0.
        -24    2    5    5    0    0  0.54312687563E+02 -0.35900477121E+02  0.17092101788E+03  0.19983922077E+03  0.80517125616E+02 0.  0.
          5    1    3    3  501    0 -0.77542661498E+02  0.55403041769E+02  0.28593268079E+02  0.99609368881E+02  0.47000000000E+01 0. -1.
        -11    1    4    4    0    0 -0.62366784784E+02  0.51499381809E+02  0.99339725762E+02  0.12810223763E+03  0.00000000000E+00 0.  1.
         12    1    4    4    0    0  0.14509627999E+02  0.26184357041E+02  0.12760851560E+03  0.13107281607E+03  0.00000000000E+00 0. -1.
         -5    1    5    5    0  502  0.71087130720E+02 -0.97186303498E+02  0.57019183937E+03  0.58278587957E+03  0.47000000000E+01 0.  1.
         13    1    6    6    0    0  0.19408223733E+02  0.20621542278E+02  0.94149936115E+02  0.98316517559E+02  0.00000000000E+00 0. -1.
        -14    1    6    6    0    0  0.34904463830E+02 -0.56522019399E+02  0.76771081766E+02  0.10152270321E+03  0.00000000000E+00 0.  1.
<mgrwt>
<rscale>  2 0.25175782E+03</rscale>
<asrwt>0</asrwt>
<pdfrwt beam="1">  1       21 0.16446644E+00 0.25184281E+03</pdfrwt>
<pdfrwt beam="2">  1       21 0.11135013E-01 0.25184281E+03</pdfrwt>
<totfact> 0.15068535E+04</totfact>
</mgrwt>
</event>
<event>
12    1  0.1029207E-001  0.2095420E+03  0.7546771E-02  0.1142027E+00
         21   -1    0    0  501  502  0.00000000000E+00  0.00000000000E+00  0.47788527735E+02  0.47788527735E+02  0.00000000000E+00 0.  1.
         21   -1    0    0  502  503 -0.00000000000E+00 -0.00000000000E+00 -0.12230182361E+04  0.12230182361E+04  0.00000000000E+00 0.  1.
         -6    2    1    2    0  503  0.59119523406E+02  0.10135789830E+03 -0.90616318281E+03  0.93007502018E+03  0.17360670403E+03 0.  0.
        -24    2    3    3    0    0  0.91733783730E+02  0.78485185955E+02 -0.46674563509E+03  0.48883050498E+03  0.80800762580E+02 0.  0.
          6    2    1    2  501    0 -0.59119523406E+02 -0.10135789830E+03 -0.26906652557E+03  0.34073174367E+03  0.17301093713E+03 0.  0.
         24    2    5    5    0    0 -0.20777616561E+02  0.62510350615E+01 -0.16953710868E+03  0.18914685264E+03  0.81011825416E+02 0.  0.
          5    1    5    5  501    0 -0.38341906846E+02 -0.10760893337E+03 -0.99529416890E+02  0.15158489103E+03  0.47000000000E+01 0. -1.
        -11    1    6    6    0    0 -0.12202407766E+02  0.43413505102E+01  0.53688732548E+01  0.14020373731E+02  0.00000000000E+00 0.  1.
         12    1    6    6    0    0 -0.85752087951E+01  0.19096845513E+01 -0.17490598193E+03  0.17512647891E+03  0.00000000000E+00 0. -1.
         -5    1    3    3    0  503 -0.32614260324E+02  0.22872712350E+02 -0.43941754772E+03  0.44124451520E+03  0.47000000000E+01 0.  1.
         13    1    4    4    0    0  0.88310800895E+02  0.27019944502E+02 -0.26647276647E+03  0.28202235767E+03  0.00000000000E+00 0. -1.
        -14    1    4    4    0    0  0.34229828354E+01  0.51465241453E+02 -0.20027286862E+03  0.20680814731E+03  0.00000000000E+00 0.  1.
<mgrwt>
<rscale>  2 0.20941851E+03</rscale>
<asrwt>0</asrwt>
<pdfrwt beam="1">  1       21 0.73520814E-02 0.20954195E+03</pdfrwt>
<pdfrwt beam="2">  1       21 0.18815665E+00 0.20954195E+03</pdfrwt>
<totfact> 0.22021654E+04</totfact>
</mgrwt>
</event>
<event>
12    1  0.1029207E-001  0.2821358E+03  0.7546771E-02  0.1094534E+00
         21   -1    0    0  501  502  0.00000000000E+00  0.00000000000E+00  0.26605099679E+03  0.26605099679E+03  0.00000000000E+00 0.  1.
         21   -1    0    0  502  503 -0.00000000000E+00 -0.00000000000E+00 -0.32622485563E+03  0.32622485563E+03  0.00000000000E+00 0.  1.
         -6    2    1    2    0  503 -0.14307627988E+03  0.17050049712E+03 -0.11540551514E+03  0.30478471405E+03  0.17330333988E+03 0.  0.
        -24    2    3    3    0    0 -0.35119348318E+02  0.96777282005E+02 -0.11478990707E+03  0.17397079854E+03  0.80559946878E+02 0.  0.
          6    2    1    2  501    0  0.14307627988E+03 -0.17050049712E+03  0.55231656290E+02  0.28749113836E+03  0.17337640381E+03 0.  0.
         24    2    5    5    0    0  0.10824253726E+03 -0.77110810341E+02 -0.27748257905E+02  0.15771140427E+03  0.80252085798E+02 0.  0.
          5    1    5    5  501    0  0.34833742620E+02 -0.93389686783E+02  0.82979914196E+02  0.12977973410E+03  0.47000000000E+01 0. -1.
        -11    1    6    6    0    0  0.61021737437E+02 -0.45317470519E+02  0.25089519819E+02  0.80042548553E+02  0.00000000000E+00 0.  1.
         12    1    6    6    0    0  0.47220799822E+02 -0.31793339822E+02 -0.52837777724E+02  0.77668855713E+02  0.00000000000E+00 0. -1.
         -5    1    3    3    0  503 -0.10795693156E+03  0.73723215119E+02 -0.61560806954E+00  0.13081391552E+03  0.47000000000E+01 0.  1.
         11    1    4    4    0    0  0.14889225476E+02 -0.58566941769E+01 -0.19771792692E+02  0.25434497994E+02  0.00000000000E+00 0. -1.
        -12    1    4    4    0    0 -0.50008573795E+02  0.10263397618E+03 -0.95018114374E+02  0.14853630054E+03  0.00000000000E+00 0.  1.
<mgrwt>
<rscale>  2 0.28212459E+03</rscale>
<asrwt>0</asrwt>
<pdfrwt beam="1">  1       21 0.40930923E-01 0.28213582E+03</pdfrwt>
<pdfrwt beam="2">  1       21 0.50188439E-01 0.28213582E+03</pdfrwt>
<totfact> 0.20773884E+04</totfact>
</mgrwt>
</event>
<event>
12    1  0.1029207E-001  0.1951066E+03  0.7546771E-02  0.1154074E+00
         21   -1    0    0  503  502  0.00000000000E+00  0.00000000000E+00  0.10618198182E+04  0.10618198182E+04  0.00000000000E+00 0.  1.
         21   -1    0    0  501  503 -0.00000000000E+00 -0.00000000000E+00 -0.43059112514E+02  0.43059112514E+02  0.00000000000E+00 0. -1.
          6    2    1    2  501    0 -0.65833060447E+00  0.90457432922E+02  0.28082075933E+03  0.34158217239E+03  0.17214848548E+03 0.  0.
         24    2    3    3    0    0  0.48589454686E+02  0.45469637694E+02  0.86668349797E+02  0.13623735458E+03  0.81368242371E+02 0.  0.
         -6    2    1    2    0  502  0.65833060447E+00 -0.90457432922E+02  0.73793994634E+03  0.76329675831E+03  0.17286872554E+03 0.  0.
        -24    2    5    5    0    0  0.48808850293E+02 -0.92135035677E+01  0.46907347982E+03  0.47828743316E+03  0.79131199488E+02 0.  0.
          5    1    3    3  501    0 -0.49247785291E+02  0.44987795228E+02  0.19415240953E+03  0.20534481781E+03  0.47000000000E+01 0. -1.
        -13    1    4    4    0    0  0.46076821229E+02  0.58290078058E+01  0.84543187487E+02  0.96460361481E+02  0.00000000000E+00 0.  1.
         14    1    4    4    0    0  0.25126334576E+01  0.39640629889E+02  0.21251623100E+01  0.39776993095E+02  0.00000000000E+00 0. -1.
         -5    1    5    5    0  502 -0.48150519689E+02 -0.81243929354E+02  0.26886646651E+03  0.28500932514E+03  0.47000000000E+01 0.  1.
         11    1    6    6    0    0  0.35786305163E+02 -0.42735289693E+02  0.23854722913E+03  0.24497294779E+03  0.00000000000E+00 0. -1.
        -12    1    6    6    0    0  0.13022545130E+02  0.33521786125E+02  0.23052625069E+03  0.23331448537E+03  0.00000000000E+00 0.  1.
<mgrwt>
<rscale>  2 0.19494692E+03</rscale>
<asrwt>0</asrwt>
<pdfrwt beam="1">  1       21 0.16335688E+00 0.19510658E+03</pdfrwt>
<pdfrwt beam="2">  1       21 0.66244796E-02 0.19510658E+03</pdfrwt>
<totfact> 0.39523704E+04</totfact>
</mgrwt>
</event>
<event>
12    1  0.1029207E-001  0.1871382E+03  0.7546771E-02  0.1161170E+00
         21   -1    0    0  501  502  0.00000000000E+00  0.00000000000E+00  0.15691301269E+02  0.15691301269E+02  0.00000000000E+00 0. -1.
         21   -1    0    0  502  503 -0.00000000000E+00 -0.00000000000E+00 -0.22495037352E+04  0.22495037352E+04  0.00000000000E+00 0. -1.
         -6    2    1    2    0  503  0.58529765905E+02  0.38540444805E+02 -0.12324975595E+04  0.12466238099E+04  0.17352115150E+03 0.  0.
        -24    2    3    3    0    0 -0.16727445475E+02  0.17554335833E+02 -0.26437827218E+03  0.27534572975E+03  0.73016696379E+02 0.  0.
          6    2    1    2  501    0 -0.58529765905E+02 -0.38540444805E+02 -0.10013148745E+04  0.10185712266E+04  0.17304556141E+03 0.  0.
         24    2    5    5    0    0  0.12682288561E+02  0.20005994011E+01 -0.72872628421E+03  0.73389357989E+03  0.85982245017E+02 0.  0.
          5    1    5    5  501    0 -0.71212054466E+02 -0.40541044206E+02 -0.27258859029E+03  0.28467764668E+03  0.47000000000E+01 0. -1.
        -11    1    6    6    0    0 -0.27585399081E+02  0.10168919331E+02 -0.53747501353E+03  0.53827850722E+03  0.00000000000E+00 0.  1.
         12    1    6    6    0    0  0.40267687642E+02 -0.81683199299E+01 -0.19125127068E+03  0.19561507267E+03  0.00000000000E+00 0. -1.
         -5    1    3    3    0  503  0.75257211380E+02  0.20986108971E+02 -0.96811928730E+03  0.97127808020E+03  0.47000000000E+01 0.  1.
         13    1    4    4    0    0  0.15605410168E+01  0.79333428852E+01 -0.25009462823E+03  0.25022529106E+03  0.00000000000E+00 0. -1.
        -14    1    4    4    0    0 -0.18287986492E+02  0.96209929482E+01 -0.14283643952E+02  0.25120438686E+02  0.00000000000E+00 0.  1.
<mgrwt>
<rscale>  2 0.18702783E+03</rscale>
<asrwt>0</asrwt>
<pdfrwt beam="1">  1       21 0.24140466E-02 0.18713816E+03</pdfrwt>
<pdfrwt beam="2">  1       21 0.34607746E+00 0.18713816E+03</pdfrwt>
<totfact> 0.16798259E+04</totfact>
</mgrwt>
</event>
<event>
12    1  0.1029207E-001  0.2399283E+03  0.7546771E-02  0.1119857E+00
         21   -1    0    0  501  502  0.00000000000E+00  0.00000000000E+00  0.42030073028E+03  0.42030073028E+03  0.00000000000E+00 0.  1.
         21   -1    0    0  502  503 -0.00000000000E+00 -0.00000000000E+00 -0.16230794492E+03  0.16230794492E+03  0.00000000000E+00 0. -1.
         -6    2    1    2    0  503 -0.22385470314E+02  0.16466481017E+03  0.13781487000E+02  0.24032375534E+03  0.17306059345E+03 0.  0.
        -24    2    3    3    0    0 -0.18712570092E+02  0.29347346544E+02  0.51722320394E+02  0.99661382984E+02  0.77754522715E+02 0.  0.
          6    2    1    2  501    0  0.22385470314E+02 -0.16466481017E+03  0.24421129836E+03  0.34228491986E+03  0.17292830633E+03 0.  0.
         24    2    5    5    0    0  0.30860719120E+02 -0.33589600549E+02  0.16426229773E+03  0.18844580546E+03  0.80306126109E+02 0.  0.
          5    1    5    5  501    0 -0.84752488056E+01 -0.13107520962E+03  0.79949000634E+02  0.15383911441E+03  0.47000000000E+01 0. -1.
        -13    1    6    6    0    0  0.34045676794E+02 -0.21595646269E+02  0.22557586998E+02  0.46198752984E+02  0.00000000000E+00 0.  1.
         14    1    6    6    0    0 -0.31849576742E+01 -0.11993954280E+02  0.14170471073E+03  0.14224705247E+03  0.00000000000E+00 0. -1.
         -5    1    3    3    0  503 -0.36729002219E+01  0.13531746362E+03 -0.37940833395E+02  0.14066237235E+03  0.47000000000E+01 0.  1.
         11    1    4    4    0    0  0.28761614963E+02  0.15459101235E+02  0.79409321066E+01  0.33604653085E+02  0.00000000000E+00 0. -1.
        -12    1    4    4    0    0 -0.47474185055E+02  0.13888245310E+02  0.43781388288E+02  0.66056729898E+02  0.00000000000E+00 0.  1.
<mgrwt>
<rscale>  2 0.23990442E+03</rscale>
<asrwt>0</asrwt>
<pdfrwt beam="1">  1       21 0.64661651E-01 0.23992828E+03</pdfrwt>
<pdfrwt beam="2">  1       21 0.24970453E-01 0.23992828E+03</pdfrwt>
<totfact> 0.32674586E+04</totfact>
</mgrwt>
</event>
<event>
12    1  0.1029207E-001  0.1868952E+03  0.7546771E-02  0.1161346E+00
         21   -1    0    0  503  502  0.00000000000E+00  0.00000000000E+00  0.28487856277E+02  0.28487856277E+02  0.00000000000E+00 0. -1.
         21   -1    0    0  501  503 -0.00000000000E+00 -0.00000000000E+00 -0.12870292744E+04  0.12870292744E+04  0.00000000000E+00 0. -1.
          6    2    1    2  501    0  0.57019288032E+02 -0.37752811193E+02 -0.48401149581E+03  0.51875718595E+03  0.17368193900E+03 0.  0.
         24    2    3    3    0    0 -0.13969842850E+01 -0.11169381589E+01 -0.40832536402E+03  0.41626265629E+03  0.80881376124E+02 0.  0.
         -6    2    1    2    0  502 -0.57019288032E+02  0.37752811193E+02 -0.77452992229E+03  0.79675994471E+03  0.17393485851E+03 0.  0.
        -24    2    5    5    0    0 -0.49067459936E+02  0.39385746525E+02 -0.77949649716E+03  0.78614604280E+03  0.80324086483E+02 0.  0.
          5    1    3    3  501    0  0.58416272316E+02 -0.36635873034E+02 -0.75686131789E+02  0.10249452966E+03  0.47000000000E+01 0. -1.
        -11    1    4    4    0    0  0.85821716008E+01 -0.37299254926E+02 -0.13322941582E+03  0.13861805556E+03  0.00000000000E+00 0.  1.
         12    1    4    4    0    0 -0.99791558858E+01  0.36182316767E+02 -0.27509594820E+03  0.27764460073E+03  0.00000000000E+00 0. -1.
         -5    1    5    5    0  502 -0.79518280950E+01 -0.16329353323E+01  0.49665748677E+01  0.10613901911E+02  0.47000000000E+01 0.  1.
         11    1    6    6    0    0 -0.95342545410E+01 -0.22386342678E+02 -0.11082521363E+03  0.11346487705E+03  0.00000000000E+00 0. -1.
        -12    1    6    6    0    0 -0.39533205396E+02  0.61772089203E+02 -0.66867128353E+03  0.67268116575E+03  0.00000000000E+00 0.  1.
<mgrwt>
<rscale>  2 0.18683631E+03</rscale>
<asrwt>0</asrwt>
<pdfrwt beam="1">  1       21 0.43827476E-02 0.18689518E+03</pdfrwt>
<pdfrwt beam="2">  1       21 0.19800448E+00 0.18689518E+03</pdfrwt>
<totfact> 0.46654992E+04</totfact>
</mgrwt>
</event>
<event>
12    1  0.1029207E-001  0.2481491E+03  0.7546771E-02  0.1114527E+00
         21   -1    0    0  501  502  0.00000000000E+00  0.00000000000E+00  0.56979075399E+03  0.56979075399E+03  0.00000000000E+00 0.  1.
         21   -1    0    0  502  503 -0.00000000000E+00 -0.00000000000E+00 -0.16189500329E+03  0.16189500329E+03  0.00000000000E+00 0.  1.
         -6    2    1    2    0  503 -0.14057607694E+03 -0.11070646242E+03 -0.73240376311E+01  0.24796532789E+03  0.17150979003E+03 0.  0.
        -24    2    3    3    0    0 -0.11549987192E+01 -0.21861454331E+02  0.55214845369E+01  0.82077504481E+02  0.78911169950E+02 0.  0.
          6    2    1    2  501    0  0.14057607694E+03  0.11070646242E+03  0.41521978832E+03  0.48372042939E+03  0.17193146008E+03 0.  0.
         24    2    5    5    0    0  0.90041077909E+02  0.77050835681E+02  0.13458480717E+03  0.19655397943E+03  0.80474651401E+02 0.  0.
          5    1    5    5  501    0  0.50534999029E+02  0.33655626743E+02  0.28063498115E+03  0.28716644996E+03  0.47000000000E+01 0. -1.
        -11    1    6    6    0    0  0.10433682374E+03  0.58299504623E+02  0.11565593189E+03  0.16631686507E+03  0.00000000000E+00 0.  1.
         12    1    6    6    0    0 -0.14295745826E+02  0.18751331058E+02  0.18928875283E+02  0.30237114358E+02  0.00000000000E+00 0. -1.
         -5    1    3    3    0  503 -0.13942107822E+03 -0.88845008093E+02 -0.12845522168E+02  0.16588782341E+03  0.47000000000E+01 0.  1.
         13    1    4    4    0    0  0.11589286592E+02  0.29773053626E+01  0.37655077709E+02  0.39510514907E+02  0.00000000000E+00 0. -1.
        -14    1    4    4    0    0 -0.12744285312E+02 -0.24838759694E+02 -0.32133593172E+02  0.42566989574E+02  0.00000000000E+00 0.  1.
<mgrwt>
<rscale>  2 0.24807609E+03</rscale>
<asrwt>0</asrwt>
<pdfrwt beam="1">  1       21 0.87660115E-01 0.24814911E+03</pdfrwt>
<pdfrwt beam="2">  1       21 0.24906924E-01 0.24814911E+03</pdfrwt>
<totfact> 0.16492501E+04</totfact>
</mgrwt>
</event>
<event>
12    1  0.1029207E-001  0.2071933E+03  0.7546771E-02  0.1143825E+00
         21   -1    0    0  503  502  0.00000000000E+00  0.00000000000E+00  0.69048265219E+03  0.69048265219E+03  0.00000000000E+00 0. -1.
         21   -1    0    0  501  503 -0.00000000000E+00 -0.00000000000E+00 -0.69906574519E+02  0.69906574519E+02  0.00000000000E+00 0.  1.
          6    2    1    2  501    0  0.11209104081E+03 -0.17820822975E+02  0.18357036428E+03  0.27675399123E+03  0.17324176707E+03 0.  0.
         24    2    3    3    0    0  0.82048721396E+00  0.27010711000E+02  0.94260423957E+02  0.12712325249E+03  0.80901434414E+02 0.  0.
         -6    2    1    2    0  502 -0.11209104081E+03  0.17820822975E+02  0.43700571339E+03  0.48363523548E+03  0.17334089045E+03 0.  0.
        -24    2    5    5    0    0 -0.30426500304E+02  0.66688431682E+02  0.19251607231E+03  0.22123398748E+03  0.80677879729E+02 0.  0.
          5    1    3    3  501    0  0.11127055360E+03 -0.44831533975E+02  0.89309940327E+02  0.14963073875E+03  0.47000000000E+01 0. -1.
        -13    1    4    4    0    0 -0.33205075160E+01  0.31469930359E+02 -0.10079928475E+01  0.31660674923E+02  0.00000000000E+00 0.  1.
         14    1    4    4    0    0  0.41409947300E+01 -0.44592193591E+01  0.95268416805E+02  0.95462577564E+02  0.00000000000E+00 0. -1.
         -5    1    5    5    0  502 -0.81664540507E+02 -0.48867608708E+02  0.24448964107E+03  0.26240124800E+03  0.47000000000E+01 0.  1.
         13    1    6    6    0    0  0.50120326807E+01  0.58568155345E+02  0.16637715313E+03  0.17645596158E+03  0.00000000000E+00 0. -1.
        -14    1    6    6    0    0 -0.35438532985E+02  0.81202763370E+01  0.26138919180E+02  0.44778025903E+02  0.00000000000E+00 0.  1.
<mgrwt>
<rscale>  2 0.20717253E+03</rscale>
<asrwt>0</asrwt>
<pdfrwt beam="1">  1       21 0.10622810E+00 0.20719326E+03</pdfrwt>
<pdfrwt beam="2">  1       21 0.10754858E-01 0.20719326E+03</pdfrwt>
<totfact> 0.50302263E+04</totfact>
</mgrwt>
</event>
<event>
12    1  0.1029207E-001  0.1981449E+03  0.7546771E-02  0.1151581E+00
         21   -1    0    0  501  502  0.00000000000E+00  0.00000000000E+00  0.47478189959E+02  0.47478189959E+02  0.00000000000E+00 0.  1.
         21   -1    0    0  502  503 -0.00000000000E+00 -0.00000000000E+00 -0.13484310202E+04  0.13484310202E+04  0.00000000000E+00 0.  1.
         -6    2    1    2    0  503  0.63526603814E+02  0.68936982435E+02 -0.21302349297E+03  0.29008298004E+03  0.17315077190E+03 0.  0.
        -24    2    3    3    0    0 -0.97292820704E+01  0.64908998796E+02 -0.18151143595E+03  0.21009704873E+03  0.82985127891E+02 0.  0.
          6    2    1    2  501    0 -0.63526603814E+02 -0.68936982435E+02 -0.10879293373E+04  0.11058262301E+04  0.17456652425E+03 0.  0.
         24    2    5    5    0    0  0.14007311104E+02 -0.62500707395E+02 -0.37330153281E+03  0.38696051074E+03  0.79258181159E+02 0.  0.
          5    1    5    5  501    0 -0.77533914918E+02 -0.64362750397E+01 -0.71462780445E+03  0.71886571937E+03  0.47000000000E+01 0. -1.
        -13    1    6    6    0    0 -0.15317139368E+02  0.94072611378E+01 -0.13822754327E+03  0.13939140949E+03  0.00000000000E+00 0.  1.
         14    1    6    6    0    0  0.29324450472E+02 -0.71907968533E+02 -0.23507398954E+03  0.24756910125E+03  0.00000000000E+00 0. -1.
         -5    1    3    3    0  503  0.73255885884E+02  0.40279836386E+01 -0.31512057016E+02  0.79985931302E+02  0.47000000000E+01 0.  1.
         13    1    4    4    0    0 -0.20538922603E+02  0.32559688810E+02 -0.16968538045E+03  0.17399743968E+03  0.00000000000E+00 0. -1.
        -14    1    4    4    0    0  0.10809640532E+02  0.32349309986E+02 -0.11826055501E+02  0.36099609052E+02  0.00000000000E+00 0.  1.
<mgrwt>
<rscale>  2 0.19783264E+03</rscale>
<asrwt>0</asrwt>
<pdfrwt beam="1">  1       21 0.73043369E-02 0.19814492E+03</pdfrwt>
<pdfrwt beam="2">  1       21 0.20745093E+00 0.19814492E+03</pdfrwt>
<totfact> 0.16845910E+04</totfact>
</mgrwt>
</event>
<event>
12    1  0.1029207E-001  0.3047200E+03  0.7546771E-02  0.1083011E+00
         21   -1    0    0  501  502  0.00000000000E+00  0.00000000000E+00  0.63844386175E+03  0.63844386175E+03  0.00000000000E+00 0. -1.
         21   -1    0    0  502  503 -0.00000000000E+00 -0.00000000000E+00 -0.16672963191E+03  0.16672963191E+03  0.00000000000E+00 0. -1.
         -6    2    1    2    0  503 -0.21905972064E+03  0.12158030571E+03  0.90317801836E+02  0.31699571527E+03  0.17193035284E+03 0.  0.
        -24    2    3    3    0    0 -0.12030356269E+03  0.96552767980E+02  0.11950231011E+03  0.21091564221E+03  0.80057615535E+02 0.  0.
          6    2    1    2  501    0  0.21905972064E+03 -0.12158030571E+03  0.38139642801E+03  0.48817777840E+03  0.17345136518E+03 0.  0.
         24    2    5    5    0    0  0.13146839331E+03 -0.32649633444E+02  0.12180571124E+03  0.20009734635E+03  0.82779101983E+02 0.  0.
          5    1    5    5  501    0  0.87591327330E+02 -0.88930672265E+02  0.25959071677E+03  0.28808043204E+03  0.47000000000E+01 0. -1.
        -13    1    6    6    0    0  0.68072210236E+01 -0.23814253398E+02 -0.11287138244E+01  0.24793767723E+02  0.00000000000E+00 0.  1.
         14    1    6    6    0    0  0.12466117228E+03 -0.88353800461E+01  0.12293442506E+03  0.17530357863E+03  0.00000000000E+00 0. -1.
         -5    1    3    3    0  503 -0.98756157950E+02  0.25027537729E+02 -0.29184508276E+02  0.10608007306E+03  0.47000000000E+01 0.  1.
         11    1    4    4    0    0 -0.17898387068E+02  0.28780394135E+01 -0.10332409437E+02  0.20866098228E+02  0.00000000000E+00 0. -1.
        -12    1    4    4    0    0 -0.10240517562E+03  0.93674728567E+02  0.12983471955E+03  0.19004954398E+03  0.00000000000E+00 0.  1.
<mgrwt>
<rscale>  2 0.30450402E+03</rscale>
<asrwt>0</asrwt>
<pdfrwt beam="1">  1       21 0.98222132E-01 0.30472005E+03</pdfrwt>
<pdfrwt beam="2">  1       21 0.25650713E-01 0.30472005E+03</pdfrwt>
<totfact> 0.11605910E+04</totfact>
</mgrwt>
</event>
<event>
12    1  0.1029207E-001  0.1838072E+03  0.7546771E-02  0.1164336E+00
         21   -1    0    0  503  502  0.00000000000E+00  0.00000000000E+00  0.10941653736E+04  0.10941653736E+04  0.00000000000E+00 0.  1.
         21   -1    0    0  501  503 -0.00000000000E+00 -0.00000000000E+00 -0.36626370460E+02  0.36626370460E+02  0.00000000000E+00 0.  1.
          6    2    1    2  501    0  0.50986036349E+02  0.38052247267E+02  0.30332144646E+03  0.35466741589E+03  0.17244572069E+03 0.  0.
         24    2    3    3    0    0  0.26563863537E+02  0.64721451947E+02  0.29969709877E+03  0.31802161259E+03  0.80155410759E+02 0.  0.
         -6    2    1    2    0  502 -0.50986036349E+02 -0.38052247267E+02  0.75421755665E+03  0.77612432815E+03  0.17168954703E+03 0.  0.
        -24    2    5    5    0    0 -0.21305697830E+02 -0.30883577633E+02  0.73337554342E+03  0.73885783067E+03  0.81630129992E+02 0.  0.
          5    1    3    3  501    0  0.24422172812E+02 -0.26669204679E+02  0.36243476917E+01  0.36645803297E+02  0.47000000000E+01 0. -1.
        -11    1    4    4    0    0 -0.67198732920E+01  0.71322694153E+02  0.22099375541E+03  0.23231513797E+03  0.00000000000E+00 0.  1.
         12    1    4    4    0    0  0.33283736829E+02 -0.66012422063E+01  0.78703343359E+02  0.85706474620E+02  0.00000000000E+00 0. -1.
         -5    1    5    5    0  502 -0.29680338519E+02 -0.71686696341E+01  0.20842013227E+02  0.37266497478E+02  0.47000000000E+01 0.  1.
         11    1    6    6    0    0 -0.47304666063E+02  0.24379241735E+00  0.31675455543E+03  0.32026744956E+03  0.00000000000E+00 0. -1.
        -12    1    6    6    0    0  0.25998968233E+02 -0.31127370050E+02  0.41662098800E+03  0.41859038111E+03  0.00000000000E+00 0.  1.
<mgrwt>
<rscale>  2 0.18362960E+03</rscale>
<asrwt>0</asrwt>
<pdfrwt beam="1">  1       21 0.16833311E+00 0.18380717E+03</pdfrwt>
<pdfrwt beam="2">  1       21 0.56348270E-02 0.18380717E+03</pdfrwt>
<totfact> 0.48378358E+04</totfact>
</mgrwt>
</event>
<event>
12    1  0.1029207E-001  0.2241195E+03  0.7546771E-02  0.1130983E+00
         21   -1    0    0  501  502  0.00000000000E+00  0.00000000000E+00  0.55547622506E+03  0.55547622506E+03  0.00000000000E+00 0.  1.
         21   -1    0    0  502  503 -0.00000000000E+00 -0.00000000000E+00 -0.10500716773E+03  0.10500716773E+03  0.00000000000E+00 0. -1.
         -6    2    1    2    0  503  0.13713866489E+03 -0.38277228760E+02  0.10061287434E+03  0.24499703400E+03  0.17212912751E+03 0.  0.
        -24    2    3    3    0    0  0.83496453027E+02 -0.65264945359E+02  0.59563314922E+01  0.13280178079E+03  0.79810176883E+02 0.  0.
          6    2    1    2  501    0 -0.13713866489E+03  0.38277228760E+02  0.34985618300E+03  0.41548635879E+03  0.17308207855E+03 0.  0.
         24    2    5    5    0    0 -0.11973343512E+03  0.55027214276E+02  0.15266251071E+03  0.21676308781E+03  0.79475180186E+02 0.  0.
          5    1    5    5  501    0 -0.17405229763E+02 -0.16749985516E+02  0.19719367229E+03  0.19872327098E+03  0.47000000000E+01 0. -1.
        -13    1    6    6    0    0 -0.69825046626E+02  0.89642139379E+01  0.12493670948E+03  0.14340528457E+03  0.00000000000E+00 0.  1.
         14    1    6    6    0    0 -0.49908388496E+02  0.46063000338E+02  0.27725801226E+02  0.73357803239E+02  0.00000000000E+00 0. -1.
         -5    1    3    3    0  503  0.53642211859E+02  0.26987716599E+02  0.94656542846E+02  0.11219525321E+03  0.47000000000E+01 0.  1.
         11    1    4    4    0    0  0.38639556657E+02  0.13698603275E+02 -0.51170664710E+01  0.41314058619E+02  0.00000000000E+00 0. -1.
        -12    1    4    4    0    0  0.44856896370E+02 -0.78963548633E+02  0.11073397963E+02  0.91487722166E+02  0.00000000000E+00 0.  1.
<mgrwt>
<rscale>  2 0.22393553E+03</rscale>
<asrwt>0</asrwt>
<pdfrwt beam="1">  1       21 0.85457879E-01 0.22411953E+03</pdfrwt>
<pdfrwt beam="2">  1       21 0.16154949E-01 0.22411953E+03</pdfrwt>
<totfact> 0.39903190E+04</totfact>
</mgrwt>
</event>
<event>
12    1  0.1029207E-001  0.2768871E+03  0.7546771E-02  0.1097458E+00
         21   -1    0    0  501  502  0.00000000000E+00  0.00000000000E+00  0.24515535636E+02  0.24515535636E+02  0.00000000000E+00 0. -1.
         21   -1    0    0  502  503 -0.00000000000E+00 -0.00000000000E+00 -0.31772278481E+04  0.31772278481E+04  0.00000000000E+00 0. -1.
         -6    2    1    2    0  503 -0.40771280805E+02  0.21245971620E+03 -0.17873102836E+04  0.18086305656E+04  0.17281505862E+03 0.  0.
        -24    2    3    3    0    0  0.20711980999E+02  0.19395430872E+03 -0.14348265547E+04  0.14503157448E+04  0.81493912202E+02 0.  0.
          6    2    1    2  501    0  0.40771280805E+02 -0.21245971620E+03 -0.13654020289E+04  0.13931128182E+04  0.17216037692E+03 0.  0.
         24    2    5    5    0    0  0.57642664005E+02 -0.23092788437E+03 -0.12371506727E+04  0.12623603147E+04  0.79758464576E+02 0.  0.
          5    1    5    5  501    0 -0.16871383199E+02  0.18468168168E+02 -0.12825135619E+03  0.13075250350E+03  0.47000000000E+01 0. -1.
        -13    1    6    6    0    0  0.43724580135E+02 -0.43601212798E+02 -0.25145241283E+03  0.25892319438E+03  0.00000000000E+00 0.  1.
         14    1    6    6    0    0  0.13918083870E+02 -0.18732667157E+03 -0.98569825984E+03  0.10034371203E+04  0.00000000000E+00 0. -1.
         -5    1    3    3    0  503 -0.61483261805E+02  0.18505407479E+02 -0.35248372896E+03  0.35831482075E+03  0.47000000000E+01 0.  1.
         13    1    4    4    0    0 -0.83930642742E+01  0.13205407270E+03 -0.11402535145E+04  0.11479053963E+04  0.00000000000E+00 0. -1.
        -14    1    4    4    0    0  0.29105045274E+02  0.61900236021E+02 -0.29457304018E+03  0.30241034850E+03  0.00000000000E+00 0.  1.
<mgrwt>
<rscale>  2 0.27678502E+03</rscale>
<asrwt>0</asrwt>
<pdfrwt beam="1">  1       21 0.37716208E-02 0.27688711E+03</pdfrwt>
<pdfrwt beam="2">  1       21 0.48880429E+00 0.27688711E+03</pdfrwt>
<totfact> 0.87682731E+02</totfact>
</mgrwt>
</event>
<event>
12    1  0.1029207E-001  0.2024975E+03  0.7546771E-02  0.1151092E+00
         21   -1    0    0  501  502  0.00000000000E+00  0.00000000000E+00  0.42717026508E+03  0.42717026508E+03  0.00000000000E+00 0.  1.
         21   -1    0    0  502  503 -0.00000000000E+00 -0.00000000000E+00 -0.15405682701E+03  0.15405682701E+03  0.00000000000E+00 0. -1.
         -6    2    1    2    0  503  0.27333291106E+01  0.10545729898E+03 -0.49561075568E+02  0.20847432084E+03  0.17284828389E+03 0.  0.
        -24    2    3    3    0    0 -0.24133560909E+02  0.57506828420E+01 -0.58849502478E+02  0.10468798284E+03  0.82950652163E+02 0.  0.
          6    2    1    2  501    0 -0.27333291106E+01 -0.10545729898E+03  0.32267451364E+03  0.37275277125E+03  0.15393853879E+03 0.  0.
         24    2    5    5    0    0 -0.36726797214E+02 -0.99703075148E+02  0.30648213526E+03  0.33437373943E+03  0.81147628176E+02 0.  0.
          5    1    5    5  501    0  0.33993468103E+02 -0.57542238312E+01  0.16192378375E+02  0.38379031814E+02  0.47000000000E+01 0. -1.
        -11    1    6    6    0    0 -0.31694383486E+02 -0.89443138293E+02  0.15013468447E+03  0.17760921264E+03  0.00000000000E+00 0.  1.
         12    1    6    6    0    0 -0.50324137283E+01 -0.10259936854E+02  0.15634745079E+03  0.15676452679E+03  0.00000000000E+00 0. -1.
         -5    1    3    3    0  503  0.26866890019E+02  0.99706616137E+02  0.92884269100E+01  0.10378633800E+03  0.47000000000E+01 0.  1.
         11    1    4    4    0    0  0.20677178942E+02 -0.97465474958E+01 -0.51971919119E+02  0.56776943331E+02  0.00000000000E+00 0. -1.
        -12    1    4    4    0    0 -0.44810739851E+02  0.15497230338E+02 -0.68775833584E+01  0.47911039510E+02  0.00000000000E+00 0.  1.
<mgrwt>
<rscale>  2 0.19840490E+03</rscale>
<asrwt>0</asrwt>
<pdfrwt beam="1">  1       21 0.65718502E-01 0.20249751E+03</pdfrwt>
<pdfrwt beam="2">  1       21 0.23701050E-01 0.20249751E+03</pdfrwt>
<totfact> 0.35490036E+04</totfact>
</mgrwt>
</event>
<event>
12    1  0.1029207E-001  0.2322677E+03  0.7546771E-02  0.1125265E+00
         21   -1    0    0  503  502  0.00000000000E+00  0.00000000000E+00  0.48449916620E+03  0.48449916620E+03  0.00000000000E+00 0. -1.
         21   -1    0    0  501  503 -0.00000000000E+00 -0.00000000000E+00 -0.11196530184E+03  0.11196530184E+03  0.00000000000E+00 0. -1.
          6    2    1    2  501    0 -0.44264946249E+02  0.14797554970E+03  0.21662121470E+03  0.31671991078E+03  0.17184470445E+03 0.  0.
         24    2    3    3    0    0 -0.36281386966E+02  0.12829172696E+03  0.23882012702E+03  0.28563821513E+03  0.82334868806E+02 0.  0.
         -6    2    1    2    0  502  0.44264946249E+02 -0.14797554970E+03  0.15591264966E+03  0.27974455726E+03  0.17347078780E+03 0.  0.
        -24    2    5    5    0    0 -0.31864197337E+02 -0.10389077754E+03  0.51949684033E+02  0.14347459776E+03  0.77958769896E+02 0.  0.
          5    1    3    3  501    0 -0.79835592831E+01  0.19683822740E+02 -0.22198912320E+02  0.31081695653E+02  0.47000000000E+01 0. -1.
        -13    1    4    4    0    0 -0.43444213693E+02  0.28014591908E+02  0.51067346154E+02  0.72664234025E+02  0.00000000000E+00 0.  1.
         14    1    4    4    0    0  0.71628267273E+01  0.10027713506E+03  0.18775278087E+03  0.21297398110E+03  0.00000000000E+00 0. -1.
         -5    1    5    5    0  502  0.76129143587E+02 -0.44084772170E+02  0.10396296562E+03  0.13626995950E+03  0.47000000000E+01 0.  1.
         13    1    6    6    0    0  0.12175802557E+02 -0.83712605223E+02  0.40032835002E+02  0.93587810742E+02  0.00000000000E+00 0. -1.
        -14    1    6    6    0    0 -0.44039999895E+02 -0.20178172312E+02  0.11916849031E+02  0.49886787022E+02  0.00000000000E+00 0.  1.
<mgrwt>
<rscale>  2 0.23196408E+03</rscale>
<asrwt>0</asrwt>
<pdfrwt beam="1">  1       21 0.74538332E-01 0.23226765E+03</pdfrwt>
<pdfrwt beam="2">  1       21 0.17225431E-01 0.23226765E+03</pdfrwt>
<totfact> 0.48169600E+04</totfact>
</mgrwt>
</event>
<event>
12    1  0.1029207E-001  0.2599251E+03  0.7546771E-02  0.1107215E+00
         21   -1    0    0  503  502  0.00000000000E+00  0.00000000000E+00  0.12100131671E+03  0.12100131671E+03  0.00000000000E+00 0.  1.
         21   -1    0    0  501  503 -0.00000000000E+00 -0.00000000000E+00 -0.56449685876E+03  0.56449685876E+03  0.00000000000E+00 0.  1.
          6    2    1    2  501    0  0.56310154701E+02 -0.18571712338E+03 -0.18497426908E+03  0.31902435940E+03  0.17291436675E+03 0.  0.
         24    2    3    3    0    0  0.35124542803E+02 -0.14344398122E+03 -0.20694805364E+03  0.26667184363E+03  0.80476493612E+02 0.  0.
         -6    2    1    2    0  502 -0.56310154701E+02  0.18571712338E+03 -0.25852127296E+03  0.36647381607E+03  0.17265029931E+03 0.  0.
        -24    2    5    5    0    0 -0.25612700248E+02  0.36135344568E+02 -0.15993985922E+03  0.18465679982E+03  0.80966669752E+02 0.  0.
          5    1    3    3  501    0  0.21185611898E+02 -0.42273142156E+02  0.21973784558E+02  0.52352515766E+02  0.47000000000E+01 0. -1.
        -13    1    4    4    0    0  0.55543811947E+02 -0.80378740181E+02 -0.93248937931E+02  0.13506006569E+03  0.00000000000E+00 0.  1.
         14    1    4    4    0    0 -0.20419269144E+02 -0.63065241043E+02 -0.11369911571E+03  0.13161177794E+03  0.00000000000E+00 0. -1.
         -5    1    5    5    0  502 -0.30697454453E+02  0.14958177881E+03 -0.98581413742E+02  0.18181701625E+03  0.47000000000E+01 0.  1.
         13    1    6    6    0    0  0.11695771179E+02 -0.17925111971E+02 -0.70574476512E+02  0.73748609733E+02  0.00000000000E+00 0. -1.
        -14    1    6    6    0    0 -0.37308471427E+02  0.54060456539E+02 -0.89365382709E+02  0.11090819009E+03  0.00000000000E+00 0.  1.
<mgrwt>
<rscale>  2 0.25988120E+03</rscale>
<asrwt>0</asrwt>
<pdfrwt beam="1">  1       21 0.18615587E-01 0.25992511E+03</pdfrwt>
<pdfrwt beam="2">  1       21 0.86845671E-01 0.25992511E+03</pdfrwt>
<totfact> 0.29086127E+04</totfact>
</mgrwt>
</event>
<event>
12    1  0.1029207E-001  0.1831567E+03  0.7546771E-02  0.1164966E+00
         21   -1    0    0  501  502  0.00000000000E+00  0.00000000000E+00  0.56817289106E+02  0.56817289106E+02  0.00000000000E+00 0. -1.
         21   -1    0    0  502  503 -0.00000000000E+00 -0.00000000000E+00 -0.58816809748E+03  0.58816809748E+03  0.00000000000E+00 0. -1.
         -6    2    1    2    0  503 -0.12670851243E+02  0.58578762667E+02 -0.27164150508E+03  0.32718783576E+03  0.17225199761E+03 0.  0.
        -24    2    3    3    0    0 -0.39592011753E+02  0.78423079621E+02 -0.11268384492E+03  0.16468191733E+03  0.81882709896E+02 0.  0.
          6    2    1    2  501    0  0.12670851243E+02 -0.58578762667E+02 -0.25970930330E+03  0.31779755083E+03  0.17307321915E+03 0.  0.
         24    2    5    5    0    0  0.62151601728E+02 -0.80401224917E+02 -0.18706560432E+03  0.22711259327E+03  0.79116440356E+02 0.  0.
          5    1    5    5  501    0 -0.49480750485E+02  0.21822462250E+02 -0.72643698979E+02  0.90684957565E+02  0.47000000000E+01 0. -1.
        -11    1    6    6    0    0 -0.11392912400E+02 -0.16269471052E+02 -0.48985116307E+01  0.20457017316E+02  0.00000000000E+00 0.  1.
         12    1    6    6    0    0  0.73544514128E+02 -0.64131753865E+02 -0.18216709269E+03  0.20665557595E+03  0.00000000000E+00 0. -1.
         -5    1    3    3    0  503  0.26921160510E+02 -0.19844316954E+02 -0.15895766016E+03  0.16250591842E+03  0.47000000000E+01 0.  1.
         13    1    4    4    0    0 -0.16862511683E+02 -0.99711765635E+01  0.10535405397E+00  0.19590297645E+02  0.00000000000E+00 0. -1.
        -14    1    4    4    0    0 -0.22729500070E+02  0.88394256185E+02 -0.11278919897E+03  0.14509161969E+03  0.00000000000E+00 0.  1.
<mgrwt>
<rscale>  2 0.18296240E+03</rscale>
<asrwt>0</asrwt>
<pdfrwt beam="1">  1       21 0.87411208E-02 0.18315666E+03</pdfrwt>
<pdfrwt beam="2">  1       21 0.90487406E-01 0.18315666E+03</pdfrwt>
<totfact> 0.10706408E+05</totfact>
</mgrwt>
</event>
<event>
12    1  0.1029207E-001  0.2001744E+03  0.7546771E-02  0.1149686E+00
         21   -1    0    0  501  502  0.00000000000E+00  0.00000000000E+00  0.90516670222E+03  0.90516670222E+03  0.00000000000E+00 0. -1.
         21   -1    0    0  502  503 -0.00000000000E+00 -0.00000000000E+00 -0.44201067144E+02  0.44201067144E+02  0.00000000000E+00 0. -1.
         -6    2    1    2    0  503  0.91086453973E+02  0.39766107630E+02  0.44277469799E+03  0.48573706129E+03  0.17324252976E+03 0.  0.
        -24    2    3    3    0    0 -0.11328509885E+02  0.59632657830E+02  0.17865141546E+03  0.20171821858E+03  0.71340889016E+02 0.  0.
          6    2    1    2  501    0 -0.91086453973E+02 -0.39766107630E+02  0.41819093709E+03  0.46363070808E+03  0.17375755580E+03 0.  0.
         24    2    5    5    0    0 -0.39513466798E+01 -0.54105338222E+02  0.30382176569E+03  0.31906052504E+03  0.80925598962E+02 0.  0.
          5    1    5    5  501    0 -0.87135107293E+02  0.14339230592E+02  0.11436917140E+03  0.14457018303E+03  0.47000000000E+01 0. -1.
        -13    1    6    6    0    0  0.30379013265E+02 -0.49522781619E+02  0.13925342015E+03  0.15088706164E+03  0.00000000000E+00 0.  1.
         14    1    6    6    0    0 -0.34330359945E+02 -0.45825566031E+01  0.16456834554E+03  0.16817346341E+03  0.00000000000E+00 0. -1.
         -5    1    3    3    0  503  0.10241496386E+03 -0.19866550200E+02  0.26412328253E+03  0.28401884270E+03  0.47000000000E+01 0.  1.
         13    1    4    4    0    0  0.26128511691E+02  0.37930041621E+02  0.61578698695E+02  0.76898135956E+02  0.00000000000E+00 0. -1.
        -14    1    4    4    0    0 -0.37457021576E+02  0.21702616209E+02  0.11707271677E+03  0.12482008263E+03  0.00000000000E+00 0.  1.
<mgrwt>
<rscale>  2 0.20006254E+03</rscale>
<asrwt>0</asrwt>
<pdfrwt beam="1">  1       21 0.13925640E+00 0.20017436E+03</pdfrwt>
<pdfrwt beam="2">  1       21 0.68001649E-02 0.20017436E+03</pdfrwt>
<totfact> 0.57456335E+04</totfact>
</mgrwt>
</event>
<event>
12    1  0.1029207E-001  0.1969140E+03  0.7546771E-02  0.1152751E+00
         21   -1    0    0  503  502  0.00000000000E+00  0.00000000000E+00  0.21039373889E+02  0.21039373889E+02  0.00000000000E+00 0. -1.
         21   -1    0    0  501  503 -0.00000000000E+00 -0.00000000000E+00 -0.18936294331E+04  0.18936294331E+04  0.00000000000E+00 0. -1.
          6    2    1    2  501    0 -0.94966454715E+01  0.90233934073E+02 -0.11125114608E+04  0.11294971180E+04  0.17277048380E+03 0.  0.
         24    2    3    3    0    0  0.52552652240E+02  0.30184380647E+02 -0.75354401751E+03  0.76026036531E+03  0.80587583638E+02 0.  0.
         -6    2    1    2    0  502  0.94966454715E+01 -0.90233934073E+02 -0.76007859837E+03  0.78517168893E+03  0.17476485991E+03 0.  0.
        -24    2    5    5    0    0  0.45712647025E+02  0.29475868133E+01 -0.28523038999E+03  0.29989104270E+03  0.80497998429E+02 0.  0.
          5    1    3    3  501    0 -0.62049297712E+02  0.60049553427E+02 -0.35896744330E+03  0.36923675272E+03  0.47000000000E+01 0. -1.
        -11    1    4    4    0    0  0.13469651138E+02 -0.24763351860E+02 -0.34886900704E+03  0.35000605590E+03  0.00000000000E+00 0.  1.
         12    1    4    4    0    0  0.39083001102E+02  0.54947732506E+02 -0.40467501048E+03  0.41025430941E+03  0.00000000000E+00 0. -1.
         -5    1    5    5    0  502 -0.36216001553E+02 -0.93181520887E+02 -0.47484820838E+03  0.48528064623E+03  0.47000000000E+01 0.  1.
         13    1    6    6    0    0 -0.41662874470E+01 -0.31641913174E+02 -0.99793085188E+02  0.10477226957E+03  0.00000000000E+00 0. -1.
        -14    1    6    6    0    0  0.49878934472E+02  0.34589499987E+02 -0.18543730480E+03  0.19511877312E+03  0.00000000000E+00 0.  1.
<mgrwt>
<rscale>  2 0.19647049E+03</rscale>
<asrwt>0</asrwt>
<pdfrwt beam="1">  1       21 0.32368265E-02 0.19691395E+03</pdfrwt>
<pdfrwt beam="2">  1       21 0.29132763E+00 0.19691395E+03</pdfrwt>
<totfact> 0.21273932E+04</totfact>
</mgrwt>
</event>
<event>
12    1  0.1029207E-001  0.2160384E+03  0.7546771E-02  0.1137468E+00
         21   -1    0    0  503  502  0.00000000000E+00  0.00000000000E+00  0.14441393226E+03  0.14441393226E+03  0.00000000000E+00 0. -1.
         21   -1    0    0  501  503 -0.00000000000E+00 -0.00000000000E+00 -0.35373455185E+03  0.35373455185E+03  0.00000000000E+00 0. -1.
          6    2    1    2  501    0 -0.22392998176E+02 -0.12724341446E+03 -0.18251670662E+03  0.28045366077E+03  0.16926185263E+03 0.  0.
         24    2    3    3    0    0 -0.35486419472E+02 -0.72994173884E+01 -0.49255910700E+02  0.10062449227E+03  0.79916057490E+02 0.  0.
         -6    2    1    2    0  502  0.22392998176E+02  0.12724341446E+03 -0.26803912969E+02  0.21769482334E+03  0.17314806804E+03 0.  0.
        -24    2    5    5    0    0  0.87604369253E+01  0.15960218100E+03 -0.31895440178E+02  0.18190445945E+03  0.80760831025E+02 0.  0.
          5    1    3    3  501    0  0.13093421296E+02 -0.11994399707E+03 -0.13326079592E+03  0.17982916850E+03  0.47000000000E+01 0. -1.
        -13    1    4    4    0    0  0.68073513572E+01 -0.28526853422E+02  0.37518561448E+01  0.29566836544E+02  0.00000000000E+00 0.  1.
         14    1    4    4    0    0 -0.42293770829E+02  0.21227436034E+02 -0.53007766845E+02  0.71057655727E+02  0.00000000000E+00 0. -1.
         -5    1    5    5    0  502  0.13632561251E+02 -0.32358766537E+02  0.50915272088E+01  0.35790363889E+02  0.47000000000E+01 0.  1.
         13    1    6    6    0    0  0.33260825245E+02  0.34089654754E+02 -0.25114108598E+02  0.53843342280E+02  0.00000000000E+00 0. -1.
        -14    1    6    6    0    0 -0.24500388319E+02  0.12551252624E+03 -0.67813315801E+01  0.12806111717E+03  0.00000000000E+00 0.  1.
<mgrwt>
<rscale>  2 0.21525868E+03</rscale>
<asrwt>0</asrwt>
<pdfrwt beam="1">  1       21 0.22217528E-01 0.21603839E+03</pdfrwt>
<pdfrwt beam="2">  1       21 0.54420700E-01 0.21603839E+03</pdfrwt>
<totfact> 0.59796347E+04</totfact>
</mgrwt>
</event>
<event>
12    1  0.1029207E-001  0.1753316E+03  0.7546771E-02  0.1172465E+00
         21   -1    0    0  501  502  0.00000000000E+00  0.00000000000E+00  0.27028568501E+03  0.27028568501E+03  0.00000000000E+00 0. -1.
         21   -1    0    0  502  503 -0.00000000000E+00 -0.00000000000E+00 -0.12061625348E+03  0.12061625348E+03  0.00000000000E+00 0. -1.
         -6    2    1    2    0  503 -0.10028656012E+02 -0.23857145229E+02  0.27633648609E+02  0.17749589678E+03  0.17341118049E+03 0.  0.
        -24    2    3    3    0    0  0.96243168261E+01  0.12007386845E+02  0.78375138845E+02  0.11215607100E+03  0.78737012007E+02 0.  0.
          6    2    1    2  501    0  0.10028656012E+02  0.23857145229E+02  0.12203578292E+03  0.21340604171E+03  0.17314638028E+03 0.  0.
         24    2    5    5    0    0 -0.38263477904E+02  0.80923664556E+00  0.13127170346E+03  0.15890165182E+03  0.80948911157E+02 0.  0.
          5    1    5    5  501    0  0.48292133916E+02  0.23047908583E+02 -0.92359205421E+01  0.54504389883E+02  0.47000000000E+01 0. -1.
        -13    1    6    6    0    0 -0.20506084768E+01 -0.14616053095E+02 -0.61237753358E+01  0.15979193583E+02  0.00000000000E+00 0.  1.
         14    1    6    6    0    0 -0.36212869427E+02  0.15425289741E+02  0.13739547880E+03  0.14292245824E+03  0.00000000000E+00 0. -1.
         -5    1    3    3    0  503 -0.19652972838E+02 -0.35864532073E+02 -0.50741490236E+02  0.65339825785E+02  0.47000000000E+01 0.  1.
         13    1    4    4    0    0 -0.16647745905E+02 -0.27844763378E+02  0.33705587996E+02  0.46781887023E+02  0.00000000000E+00 0. -1.
        -14    1    4    4    0    0  0.26272062731E+02  0.39852150223E+02  0.44669550849E+02  0.65374183976E+02  0.00000000000E+00 0.  1.
<mgrwt>
<rscale>  2 0.17526610E+03</rscale>
<asrwt>0</asrwt>
<pdfrwt beam="1">  1       21 0.41582413E-01 0.17533161E+03</pdfrwt>
<pdfrwt beam="2">  1       21 0.18556347E-01 0.17533161E+03</pdfrwt>
<totfact> 0.14860269E+05</totfact>
</mgrwt>
</event>
<event>
12    1  0.1029207E-001  0.1804610E+03  0.7546771E-02  0.1167478E+00
         21   -1    0    0  501  502  0.00000000000E+00  0.00000000000E+00  0.38621988090E+03  0.38621988090E+03  0.00000000000E+00 0.  1.
         21   -1    0    0  502  503 -0.00000000000E+00 -0.00000000000E+00 -0.14548470259E+03  0.14548470259E+03  0.00000000000E+00 0.  1.
         -6    2    1    2    0  503  0.25758816788E+02  0.41389824657E+02 -0.52241116443E+02  0.18787040843E+03  0.17375132198E+03 0.  0.
        -24    2    3    3    0    0  0.48261352329E+02 -0.22016419374E+01 -0.86773545707E+02  0.12769434395E+03  0.80263266113E+02 0.  0.
          6    2    1    2  501    0 -0.25758816788E+02 -0.41389824657E+02  0.29297629476E+03  0.34383417506E+03  0.17323451279E+03 0.  0.
         24    2    5    5    0    0 -0.15206787123E+02 -0.93330518818E+02  0.17780952855E+03  0.21696946334E+03  0.80732195946E+02 0.  0.
          5    1    5    5  501    0 -0.10552029664E+02  0.51940694161E+02  0.11516676621E+03  0.12686471171E+03  0.47000000000E+01 0. -1.
        -11    1    6    6    0    0  0.68436793758E+01 -0.54620500095E+02  0.15962686623E+03  0.16885192152E+03  0.00000000000E+00 0.  1.
         12    1    6    6    0    0 -0.22050466499E+02 -0.38710018723E+02  0.18182662325E+02  0.48117541828E+02  0.00000000000E+00 0. -1.
         -5    1    3    3    0  503 -0.22502535542E+02  0.43591466594E+02  0.34532429265E+02  0.60176064482E+02  0.47000000000E+01 0.  1.
         11    1    4    4    0    0 -0.19326602187E+02  0.92710004935E+01 -0.70861429282E+01  0.22576147232E+02  0.00000000000E+00 0. -1.
        -12    1    4    4    0    0  0.67587954517E+02 -0.11472642431E+02 -0.79687402779E+02  0.10511819672E+03  0.00000000000E+00 0.  1.
<mgrwt>
<rscale>  2 0.18033644E+03</rscale>
<asrwt>0</asrwt>
<pdfrwt beam="1">  1       21 0.59418443E-01 0.18046095E+03</pdfrwt>
<pdfrwt beam="2">  1       21 0.22382262E-01 0.18046095E+03</pdfrwt>
<totfact> 0.49728233E+04</totfact>
</mgrwt>
</event>
<event>
12    1  0.1029207E-001  0.1826365E+03  0.7546771E-02  0.1166380E+00
         21   -1    0    0  503  502  0.00000000000E+00  0.00000000000E+00  0.12060336714E+03  0.12060336714E+03  0.00000000000E+00 0.  1.
         21   -1    0    0  501  503 -0.00000000000E+00 -0.00000000000E+00 -0.38684307366E+03  0.38684307366E+03  0.00000000000E+00 0.  1.
          6    2    1    2  501    0  0.37952476470E+02 -0.42310224900E+02 -0.27156981434E+03  0.32473221953E+03  0.16873145745E+03 0.  0.
         24    2    3    3    0    0  0.81809512675E+02 -0.32418055400E+00 -0.18983485341E+03  0.22280596489E+03  0.83140393108E+02 0.  0.
         -6    2    1    2    0  502 -0.37952476470E+02  0.42310224900E+02  0.53301078192E+01  0.18271422127E+03  0.17356707927E+03 0.  0.
        -24    2    5    5    0    0 -0.73516827930E+01  0.42310096652E+02 -0.60857668636E+02  0.10964356830E+03  0.80460330097E+02 0.  0.
          5    1    3    3  501    0 -0.43857036205E+02 -0.41986044346E+02 -0.81734960937E+02  0.10192625463E+03  0.47000000000E+01 0. -1.
        -11    1    4    4    0    0 -0.14201058462E+02  0.45927338324E+01 -0.56429636197E+02  0.58370087432E+02  0.00000000000E+00 0.  1.
         12    1    4    4    0    0  0.96010571137E+02 -0.49169143864E+01 -0.13340521721E+03  0.16443587746E+03  0.00000000000E+00 0. -1.
         -5    1    5    5    0  502 -0.30600793677E+02  0.12824817521E-03  0.66187776456E+02  0.73070652972E+02  0.47000000000E+01 0.  1.
         13    1    6    6    0    0  0.22063063106E+02 -0.10978347053E+02 -0.16015419992E+01  0.24695501502E+02  0.00000000000E+00 0. -1.
        -14    1    6    6    0    0 -0.29414745899E+02  0.53288443705E+02 -0.59256126637E+02  0.84948066799E+02  0.00000000000E+00 0.  1.
<mgrwt>
<rscale>  2 0.18147820E+03</rscale>
<asrwt>0</asrwt>
<pdfrwt beam="1">  1       21 0.18554364E-01 0.18263646E+03</pdfrwt>
<pdfrwt beam="2">  1       21 0.59514319E-01 0.18263646E+03</pdfrwt>
<totfact> 0.70287004E+04</totfact>
</mgrwt>
</event>
<event>
12    1  0.1029207E-001  0.2147620E+03  0.7546771E-02  0.1137896E+00
         21   -1    0    0  501  502  0.00000000000E+00  0.00000000000E+00  0.84209546521E+02  0.84209546521E+02  0.00000000000E+00 0.  1.
         21   -1    0    0  502  503 -0.00000000000E+00 -0.00000000000E+00 -0.65757335118E+03  0.65757335118E+03  0.00000000000E+00 0. -1.
         -6    2    1    2    0  503  0.75396489624E+02  0.10287793164E+03 -0.43857121919E+03  0.48822467320E+03  0.17248222447E+03 0.  0.
        -24    2    3    3    0    0  0.31098795884E+02  0.11506080574E+03 -0.40917665509E+03  0.43348128556E+03  0.79210894070E+02 0.  0.
          6    2    1    2  501    0 -0.75396489624E+02 -0.10287793164E+03 -0.13479258547E+03  0.25355822450E+03  0.17278377426E+03 0.  0.
         24    2    5    5    0    0 -0.53137496584E+02  0.11960561625E+02 -0.70440261903E+02  0.11996685556E+03  0.80396314336E+02 0.  0.
          5    1    5    5  501    0 -0.22258993040E+02 -0.11483849326E+03 -0.64352323569E+02  0.13359136894E+03  0.47000000000E+01 0. -1.
        -13    1    6    6    0    0  0.17831612213E+02  0.19657109863E+01  0.20166186526E+01  0.18052622097E+02  0.00000000000E+00 0.  1.
         14    1    6    6    0    0 -0.70969108798E+02  0.99948506388E+01 -0.72456880556E+02  0.10191423346E+03  0.00000000000E+00 0. -1.
         -5    1    3    3    0  503  0.44297693740E+02 -0.12182874101E+02 -0.29394564100E+02  0.54743387644E+02  0.47000000000E+01 0.  1.
         11    1    4    4    0    0  0.22866145441E+02  0.99017887374E+01 -0.17345247357E+03  0.17523317784E+03  0.00000000000E+00 0. -1.
        -12    1    4    4    0    0  0.82326504429E+01  0.10515901700E+03 -0.23572418151E+03  0.25824810772E+03  0.00000000000E+00 0.  1.
<mgrwt>
<rscale>  2 0.21470138E+03</rscale>
<asrwt>0</asrwt>
<pdfrwt beam="1">  1       21 0.12955315E-01 0.21476204E+03</pdfrwt>
<pdfrwt beam="2">  1       21 0.10116513E+00 0.21476204E+03</pdfrwt>
<totfact> 0.40373046E+04</totfact>
</mgrwt>
</event>
<event>
12    1  0.1029207E-001  0.2289193E+03  0.7546771E-02  0.1128586E+00
         21   -1    0    0  503  502  0.00000000000E+00  0.00000000000E+00  0.40909325143E+02  0.40909325143E+02  0.00000000000E+00 0. -1.
         21   -1    0    0  501  503 -0.00000000000E+00 -0.00000000000E+00 -0.14354483913E+04  0.14354483913E+04  0.00000000000E+00 0. -1.
          6    2    1    2  501    0  0.82682349132E+02  0.12260722560E+03 -0.97535874279E+03  0.10018626315E+04  0.17474310496E+03 0.  0.
         24    2    3    3    0    0  0.11221524871E+03  0.59840866219E+02 -0.76809508485E+03  0.78324853793E+03  0.85644739954E+02 0.  0.
         -6    2    1    2    0  502 -0.82682349132E+02 -0.12260722560E+03 -0.41918032339E+03  0.47449508492E+03  0.16602571930E+03 0.  0.
        -24    2    5    5    0    0 -0.48916490671E+02 -0.97038768951E+02 -0.40907316418E+03  0.43069869420E+03  0.79694201746E+02 0.  0.
          5    1    3    3  501    0 -0.29532899577E+02  0.62766359379E+02 -0.20726365794E+03  0.21861409362E+03  0.47000000000E+01 0. -1.
        -11    1    4    4    0    0  0.66702238714E+01  0.72702579637E+01 -0.31206982789E+03  0.31222576129E+03  0.00000000000E+00 0.  1.
         12    1    4    4    0    0  0.10554502484E+03  0.52570608256E+02 -0.45602525696E+03  0.47102277664E+03  0.00000000000E+00 0. -1.
         -5    1    5    5    0  502 -0.33765858461E+02 -0.25568456647E+02 -0.10107159211E+02  0.43796390722E+02  0.47000000000E+01 0.  1.
         11    1    6    6    0    0 -0.67970462747E+02 -0.82335775152E+02 -0.28565141324E+03  0.30495228080E+03  0.00000000000E+00 0. -1.
        -12    1    6    6    0    0  0.19053972076E+02 -0.14702993799E+02 -0.12342175094E+03  0.12574641340E+03  0.00000000000E+00 0.  1.
<mgrwt>
<rscale>  2 0.22725552E+03</rscale>
<asrwt>0</asrwt>
<pdfrwt beam="1">  1       21 0.62937417E-02 0.22891932E+03</pdfrwt>
<pdfrwt beam="2">  1       21 0.22083824E+00 0.22891932E+03</pdfrwt>
<totfact> 0.17559583E+04</totfact>
</mgrwt>
</event>
<event>
12    1  0.1029207E-001  0.2006675E+03  0.7546771E-02  0.1149627E+00
         21   -1    0    0  503  502  0.00000000000E+00  0.00000000000E+00  0.50968079267E+02  0.50968079267E+02  0.00000000000E+00 0. -1.
         21   -1    0    0  501  503 -0.00000000000E+00 -0.00000000000E+00 -0.10526455712E+04  0.10526455712E+04  0.00000000000E+00 0. -1.
          6    2    1    2  501    0 -0.65050689756E+02  0.77222386763E+02 -0.78278060656E+03  0.80809214135E+03  0.17341436403E+03 0.  0.
         24    2    3    3    0    0 -0.88286451670E+01  0.82784124673E+02 -0.68543090331E+03  0.69543822020E+03  0.82991798616E+02 0.  0.
         -6    2    1    2    0  502  0.65050689756E+02 -0.77222386763E+02 -0.21889688540E+03  0.29552150914E+03  0.17094509842E+03 0.  0.
        -24    2    5    5    0    0  0.82508742247E+02 -0.61819454126E+02 -0.78553188282E+02  0.15318220589E+03  0.81638516375E+02 0.  0.
          5    1    3    3  501    0 -0.56222044589E+02 -0.55617379105E+01 -0.97349703248E+02  0.11265392114E+03  0.47000000000E+01 0. -1.
        -13    1    4    4    0    0  0.23805441104E+02  0.21887494383E+02 -0.83305563047E+02  0.89362062817E+02  0.00000000000E+00 0.  1.
         14    1    4    4    0    0 -0.32634086271E+02  0.60896630291E+02 -0.60212534026E+03  0.60607615739E+03  0.00000000000E+00 0. -1.
         -5    1    5    5    0  502 -0.17458052492E+02 -0.15402932637E+02 -0.14034369711E+03  0.14233930325E+03  0.47000000000E+01 0.  1.
         11    1    6    6    0    0  0.53255183480E+02 -0.20406217943E+02 -0.84696670352E+02  0.10210805192E+03  0.00000000000E+00 0. -1.
        -12    1    6    6    0    0  0.29253558767E+02 -0.41413236183E+02  0.61434820697E+01  0.51074153968E+02  0.00000000000E+00 0.  1.
<mgrwt>
<rscale>  2 0.20013283E+03</rscale>
<asrwt>0</asrwt>
<pdfrwt beam="1">  1       21 0.78412434E-02 0.20066746E+03</pdfrwt>
<pdfrwt beam="2">  1       21 0.16194546E+00 0.20066746E+03</pdfrwt>
<totfact> 0.30114477E+04</totfact>
</mgrwt>
</event>
<event>
12    1  0.1029207E-001  0.2196893E+03  0.7546771E-02  0.1134432E+00
         21   -1    0    0  501  502  0.00000000000E+00  0.00000000000E+00  0.40546395211E+03  0.40546395211E+03  0.00000000000E+00 0.  1.
         21   -1    0    0  502  503 -0.00000000000E+00 -0.00000000000E+00 -0.11992408921E+03  0.11992408921E+03  0.00000000000E+00 0. -1.
         -6    2    1    2    0  503 -0.45330093468E+02  0.12428720340E+03  0.11108353885E+03  0.24617662972E+03  0.17538886542E+03 0.  0.
        -24    2    3    3    0    0  0.40521781813E+02  0.53199731841E+02  0.72178572038E+02  0.12802562657E+03  0.81905973703E+02 0.  0.
          6    2    1    2  501    0  0.45330093468E+02 -0.12428720340E+03  0.17445632405E+03  0.27921141161E+03  0.17326822290E+03 0.  0.
         24    2    5    5    0    0  0.57505266826E+02 -0.32429925608E+02  0.30748232307E+02  0.10815557288E+03  0.79960104852E+02 0.  0.
          5    1    5    5  501    0 -0.12175173358E+02 -0.91857277791E+02  0.14370809174E+03  0.17105583872E+03  0.47000000000E+01 0. -1.
        -13    1    6    6    0    0  0.67264739032E+02 -0.36626260141E+02  0.46169312296E+02  0.89429488688E+02  0.00000000000E+00 0.  1.
         14    1    6    6    0    0 -0.97594722063E+01  0.41963345333E+01 -0.15421079989E+02  0.18726084195E+02  0.00000000000E+00 0. -1.
         -5    1    3    3    0  503 -0.85851875281E+02  0.71087471557E+02  0.38904966815E+02  0.11815100315E+03  0.47000000000E+01 0.  1.
         11    1    4    4    0    0  0.16466430095E+02  0.72802327826E+02  0.53041398172E+02  0.91568074005E+02  0.00000000000E+00 0. -1.
        -12    1    4    4    0    0  0.24055351718E+02 -0.19602595984E+02  0.19137173866E+02  0.36457552567E+02  0.00000000000E+00 0.  1.
<mgrwt>
<rscale>  2 0.21926574E+03</rscale>
<asrwt>0</asrwt>
<pdfrwt beam="1">  1       21 0.62379069E-01 0.21968928E+03</pdfrwt>
<pdfrwt beam="2">  1       21 0.18449860E-01 0.21968928E+03</pdfrwt>
<totfact> 0.63140945E+04</totfact>
</mgrwt>
</event>
<event>
12    1  0.1029207E-001  0.1958832E+03  0.7546771E-02  0.1153694E+00
         21   -1    0    0  501  502  0.00000000000E+00  0.00000000000E+00  0.71530744655E+02  0.71530744655E+02  0.00000000000E+00 0.  1.
         21   -1    0    0  502  503 -0.00000000000E+00 -0.00000000000E+00 -0.16924455531E+04  0.16924455531E+04  0.00000000000E+00 0.  1.
         -6    2    1    2    0  503  0.10426939392E+02 -0.89558253949E+02 -0.15398059932E+04  0.15519648608E+04  0.17164798407E+03 0.  0.
        -24    2    3    3    0    0 -0.27618644157E+02 -0.11374039281E+03 -0.13089916844E+04  0.13167424609E+04  0.81558641214E+02 0.  0.
          6    2    1    2  501    0 -0.10426939392E+02  0.89558253949E+02 -0.81108815239E+02  0.21201143699E+03  0.17389884297E+03 0.  0.
         24    2    5    5    0    0 -0.75609463988E+01  0.97565962454E+02  0.52361782266E+01  0.12512136156E+03  0.77792368620E+02 0.  0.
          5    1    5    5  501    0 -0.28659929934E+01 -0.80077085043E+01 -0.86344993466E+02  0.86890075429E+02  0.47000000000E+01 0. -1.
        -11    1    6    6    0    0 -0.26894517992E+02  0.19501574602E+02  0.25856197574E+02  0.42097143168E+02  0.00000000000E+00 0.  1.
         12    1    6    6    0    0  0.19333571593E+02  0.78064387851E+02 -0.20620019347E+02  0.83024218388E+02  0.00000000000E+00 0. -1.
         -5    1    3    3    0  503  0.38045583549E+02  0.24182138856E+02 -0.23081430880E+03  0.23522239990E+03  0.47000000000E+01 0.  1.
         13    1    4    4    0    0 -0.98187559904E+01 -0.58300178729E+02 -0.28349790787E+03  0.28959693123E+03  0.00000000000E+00 0. -1.
        -14    1    4    4    0    0 -0.17799888167E+02 -0.55440214077E+02 -0.10254937766E+04  0.10271455297E+04  0.00000000000E+00 0.  1.
<mgrwt>
<rscale>  2 0.19538237E+03</rscale>
<asrwt>0</asrwt>
<pdfrwt beam="1">  1       21 0.11004731E-01 0.19588315E+03</pdfrwt>
<pdfrwt beam="2">  1       21 0.26037621E+00 0.19588315E+03</pdfrwt>
<totfact> 0.39454223E+03</totfact>
</mgrwt>
</event>
<event>
12    1  0.1029207E-001  0.1752574E+03  0.7546771E-02  0.1173354E+00
         21   -1    0    0  503  502  0.00000000000E+00  0.00000000000E+00  0.60251553052E+02  0.60251553052E+02  0.00000000000E+00 0.  1.
         21   -1    0    0  501  503 -0.00000000000E+00 -0.00000000000E+00 -0.62293075000E+03  0.62293075000E+03  0.00000000000E+00 0.  1.
          6    2    1    2  501    0  0.14917947539E+02  0.24027839544E+02 -0.43099006336E+03  0.46396280518E+03  0.16943779875E+03 0.  0.
         24    2    3    3    0    0  0.42512826357E+02  0.14949147963E+02 -0.42427504643E+03  0.43377867972E+03  0.78254779533E+02 0.  0.
         -6    2    1    2    0  502 -0.14917947539E+02 -0.24027839544E+02 -0.13168913359E+03  0.21921949787E+03  0.17296033681E+03 0.  0.
        -24    2    5    5    0    0  0.36188752388E+02 -0.24967404304E+02 -0.14068858692E+03  0.16710560606E+03  0.78727428559E+02 0.  0.
          5    1    3    3  501    0 -0.27594878818E+02  0.90786915807E+01 -0.67150169236E+01  0.30184125465E+02  0.47000000000E+01 0. -1.
        -11    1    4    4    0    0  0.31460078398E+02  0.46868744652E+02 -0.25675891412E+03  0.26289076769E+03  0.00000000000E+00 0.  1.
         12    1    4    4    0    0  0.11052747959E+02 -0.31919596688E+02 -0.16751613231E+03  0.17088791202E+03  0.00000000000E+00 0. -1.
         -5    1    5    5    0  502 -0.51106699928E+02  0.93956475987E+00  0.89994533372E+01  0.52113891812E+02  0.47000000000E+01 0.  1.
         13    1    6    6    0    0  0.11313817226E+02  0.80171865753E+01 -0.12018931620E+03  0.12098656731E+03  0.00000000000E+00 0. -1.
        -14    1    6    6    0    0  0.24874935162E+02 -0.32984590879E+02 -0.20499270726E+02  0.46119038749E+02  0.00000000000E+00 0.  1.
<mgrwt>
<rscale>  2 0.17438202E+03</rscale>
<asrwt>0</asrwt>
<pdfrwt beam="1">  1       21 0.92694702E-02 0.17525741E+03</pdfrwt>
<pdfrwt beam="2">  1       21 0.95835494E-01 0.17525741E+03</pdfrwt>
<totfact> 0.84809355E+04</totfact>
</mgrwt>
</event>
<event>
12    1  0.1029207E-001  0.1876336E+03  0.7546771E-02  0.1161442E+00
         21   -1    0    0  503  502  0.00000000000E+00  0.00000000000E+00  0.15513425985E+04  0.15513425985E+04  0.00000000000E+00 0.  1.
         21   -1    0    0  501  503 -0.00000000000E+00 -0.00000000000E+00 -0.22993957720E+02  0.22993957720E+02  0.00000000000E+00 0.  1.
          6    2    1    2  501    0  0.54821870669E+02  0.29690823745E+02  0.91160684297E+03  0.93071660601E+03  0.17697282851E+03 0.  0.
         24    2    3    3    0    0  0.65511220447E+01 -0.49629748828E+02  0.47229516917E+03  0.48167467574E+03  0.80260433930E+02 0.  0.
         -6    2    1    2    0  502 -0.54821870669E+02 -0.29690823745E+02  0.61674179780E+03  0.64361995020E+03  0.17317393749E+03 0.  0.
        -24    2    5    5    0    0  0.12537161501E+02  0.10918665299E+02  0.15407337543E+03  0.17429007807E+03  0.79762325866E+02 0.  0.
          5    1    3    3  501    0  0.48270748624E+02  0.79320572573E+02  0.43931167380E+03  0.44904193027E+03  0.47000000000E+01 0. -1.
        -13    1    4    4    0    0 -0.13181376995E+01 -0.23308488063E+02  0.43355012773E+03  0.43417823110E+03  0.00000000000E+00 0.  1.
         14    1    4    4    0    0  0.78692597442E+01 -0.26321260765E+02  0.38745041439E+02  0.47496444639E+02  0.00000000000E+00 0. -1.
         -5    1    5    5    0  502 -0.67359032170E+02 -0.40609489045E+02  0.46266842237E+03  0.46932987213E+03  0.47000000000E+01 0.  1.
         13    1    6    6    0    0 -0.11223947401E+02 -0.29507980276E+01  0.14478846675E+03  0.14525282892E+03  0.00000000000E+00 0. -1.
        -14    1    6    6    0    0  0.23761108902E+02  0.13869463327E+02  0.92849086775E+01  0.29037249153E+02  0.00000000000E+00 0.  1.
<mgrwt>
<rscale>  2 0.18673244E+03</rscale>
<asrwt>0</asrwt>
<pdfrwt beam="1">  1       21 0.23866801E+00 0.18763359E+03</pdfrwt>
<pdfrwt beam="2">  1       21 0.35375332E-02 0.18763359E+03</pdfrwt>
<totfact> 0.37483066E+04</totfact>
</mgrwt>
</event>
<event>
11    1  0.1029207E-001  0.1849804E+03  0.7546771E-02  0.1163467E+00
         21   -1    0    0  501  502  0.00000000000E+00  0.00000000000E+00  0.10241710307E+04  0.10241710307E+04  0.00000000000E+00 0. -1.
         21   -1    0    0  502  503 -0.00000000000E+00 -0.00000000000E+00 -0.59155509233E+02  0.59155509233E+02  0.00000000000E+00 0.  1.
         -6    2    1    2    0  503 -0.60787690249E+02  0.20264885325E+02  0.12180924701E+03  0.22006842711E+03  0.17171724168E+03 0.  0.
          6    2    1    2  501    0  0.60787690249E+02 -0.20264885325E+02  0.84320627442E+03  0.86325811279E+03  0.17352792052E+03 0.  0.
         24    2    4    4    0    0 -0.29558411388E+02  0.11464650802E+02  0.32620843615E+03  0.33744632486E+03  0.80330196338E+02 0.  0.
          5    1    4    4  501    0  0.90346101637E+02 -0.31729536127E+02  0.51699783827E+03  0.52581178793E+03  0.47000000000E+01 0. -1.
        -11    1    5    5    0    0 -0.50464008390E+02 -0.88975850533E+01  0.26132985164E+03  0.26630635464E+03  0.00000000000E+00 0.  1.
         12    1    5    5    0    0  0.20905597001E+02  0.20362235856E+02  0.64878584511E+02  0.71139970222E+02  0.00000000000E+00 0. -1.
         -5    1    3    3    0  503 -0.48965256529E+02  0.61127939771E+02 -0.61366085250E+01  0.78701774641E+02  0.47000000000E+01 0.  1.
         13    1    3    3    0    0  0.15643182655E+02 -0.17590108660E+02  0.41259066472E+02  0.47501912092E+02  0.00000000000E+00 0. -1.
        -14    1    3    3    0    0 -0.27465616375E+02 -0.23272945786E+02  0.86686789060E+02  0.93864740377E+02  0.00000000000E+00 0.  1.
<mgrwt>
<rscale>  2 0.18455456E+03</rscale>
<asrwt>0</asrwt>
<pdfrwt beam="1">  1       21 0.15756476E+00 0.18498040E+03</pdfrwt>
<pdfrwt beam="2">  1       21 0.91008484E-02 0.18498040E+03</pdfrwt>
<totfact> 0.25252382E+04</totfact>
</mgrwt>
</event>
<event>
12    1  0.1029207E-001  0.2115254E+03  0.7546771E-02  0.1140490E+00
         21   -1    0    0  501  502  0.00000000000E+00  0.00000000000E+00  0.26055304749E+03  0.26055304749E+03  0.00000000000E+00 0. -1.
         21   -1    0    0  502  503 -0.00000000000E+00 -0.00000000000E+00 -0.17334337199E+03  0.17334337199E+03  0.00000000000E+00 0. -1.
         -6    2    1    2    0  503  0.86417084737E+02  0.82386957918E+02  0.67796786979E+02  0.22212472363E+03  0.17460660112E+03 0.  0.
        -24    2    3    3    0    0  0.12298140013E+03  0.82600321692E+02  0.18345291517E+02  0.16044381015E+03  0.58808405623E+02 0.  0.
          6    2    1    2  501    0 -0.86417084737E+02 -0.82386957918E+02  0.19412888516E+02  0.21177169585E+03  0.17382424329E+03 0.  0.
         24    2    5    5    0    0 -0.27174225561E+02  0.23499684857E+02  0.21625555712E+02  0.90327538407E+02  0.80004536194E+02 0.  0.
          5    1    5    5  501    0 -0.59242859175E+02 -0.10588664277E+03 -0.22126671957E+01  0.12144415744E+03  0.47000000000E+01 0. -1.
        -13    1    6    6    0    0  0.95899168847E+01 -0.12210402248E+01 -0.24520519605E+02  0.26357415025E+02  0.00000000000E+00 0.  1.
         14    1    6    6    0    0 -0.36764142446E+02  0.24720725082E+02  0.46146075317E+02  0.63970123382E+02  0.00000000000E+00 0. -1.
         -5    1    3    3    0  503 -0.36564315397E+02 -0.21336377393E+00  0.49451495462E+02  0.61680913482E+02  0.47000000000E+01 0.  1.
         13    1    4    4    0    0  0.71836372962E+02  0.74500288785E+02 -0.50623111481E+01  0.10361652621E+03  0.00000000000E+00 0. -1.
        -14    1    4    4    0    0  0.51145027172E+02  0.81000329063E+01  0.23407602665E+02  0.56827283940E+02  0.00000000000E+00 0.  1.
<mgrwt>
<rscale>  2 0.21136386E+03</rscale>
<asrwt>0</asrwt>
<pdfrwt beam="1">  1       21 0.40085084E-01 0.21152539E+03</pdfrwt>
<pdfrwt beam="2">  1       21 0.26668211E-01 0.21152539E+03</pdfrwt>
<totfact> 0.79630106E+04</totfact>
</mgrwt>
</event>
<event>
12    1  0.1029207E-001  0.1804242E+03  0.7546771E-02  0.1168971E+00
         21   -1    0    0  503  502  0.00000000000E+00  0.00000000000E+00  0.17227641392E+03  0.17227641392E+03  0.00000000000E+00 0.  1.
         21   -1    0    0  501  503 -0.00000000000E+00 -0.00000000000E+00 -0.23430696072E+03  0.23430696072E+03  0.00000000000E+00 0.  1.
          6    2    1    2  501    0 -0.11612950608E+02 -0.66586776100E+01 -0.12634376322E+03  0.21503945452E+03  0.17349357880E+03 0.  0.
         24    2    3    3    0    0  0.56052509153E+01 -0.49186532589E+02 -0.13833873882E+03  0.16738387402E+03  0.80181174823E+02 0.  0.
         -6    2    1    2    0  502  0.11612950608E+02  0.66586776100E+01  0.64313216421E+02  0.19154392012E+03  0.17992688770E+03 0.  0.
        -24    2    5    5    0    0  0.60978226194E+02 -0.33653197420E+02  0.69727513898E+02  0.12740826452E+03  0.80746875520E+02 0.  0.
          5    1    3    3  501    0 -0.17218201523E+02  0.42527854979E+02  0.11994975605E+02  0.47655580497E+02  0.47000000000E+01 0. -1.
        -13    1    4    4    0    0  0.16891188177E+01  0.11398658757E+02 -0.87333778161E+02  0.88090699575E+02  0.00000000000E+00 0.  1.
         14    1    4    4    0    0  0.39161320976E+01 -0.60585191346E+02 -0.51004960664E+02  0.79293174443E+02  0.00000000000E+00 0. -1.
         -5    1    5    5    0  502 -0.49365275587E+02  0.40311875030E+02 -0.54142974773E+01  0.64135655601E+02  0.47000000000E+01 0.  1.
         13    1    6    6    0    0  0.38605226578E+02  0.23456763185E+02  0.26527271421E+02  0.52385870111E+02  0.00000000000E+00 0. -1.
        -14    1    6    6    0    0  0.22372999616E+02 -0.57109960605E+02  0.43200242477E+02  0.75022394405E+02  0.00000000000E+00 0.  1.
<mgrwt>
<rscale>  2 0.17879861E+03</rscale>
<asrwt>0</asrwt>
<pdfrwt beam="1">  1       21 0.26504064E-01 0.18042418E+03</pdfrwt>
<pdfrwt beam="2">  1       21 0.36047225E-01 0.18042418E+03</pdfrwt>
<totfact> 0.10097159E+05</totfact>
</mgrwt>
</event>
<event>
12    1  0.1029207E-001  0.1885425E+03  0.7546771E-02  0.1160246E+00
         21   -1    0    0  503  502  0.00000000000E+00  0.00000000000E+00  0.37764688452E+03  0.37764688452E+03  0.00000000000E+00 0. -1.
         21   -1    0    0  501  503 -0.00000000000E+00 -0.00000000000E+00 -0.93170188694E+02  0.93170188694E+02  0.00000000000E+00 0. -1.
          6    2    1    2  501    0  0.28270229792E+02 -0.65255130439E+02  0.14823803139E+03  0.23983906596E+03  0.17461622396E+03 0.  0.
         24    2    3    3    0    0  0.24444997556E+02 -0.83324799116E+02  0.32411513878E+02  0.12245500620E+03  0.80025884922E+02 0.  0.
         -6    2    1    2    0  502 -0.28270229792E+02  0.65255130439E+02  0.13623866444E+03  0.23097800725E+03  0.17243093750E+03 0.  0.
        -24    2    5    5    0    0  0.13345948201E+02  0.82376900426E+02  0.35996683143E+02  0.12099798138E+03  0.79879172772E+02 0.  0.
          5    1    3    3  501    0  0.38252322361E+01  0.18069668677E+02  0.11582651751E+03  0.11738405976E+03  0.47000000000E+01 0. -1.
        -13    1    4    4    0    0 -0.12981377441E+02 -0.23562227010E+02 -0.20891482812E+02  0.34060956475E+02  0.00000000000E+00 0.  1.
         14    1    4    4    0    0  0.37426374997E+02 -0.59762572107E+02  0.53302996689E+02  0.88394049722E+02  0.00000000000E+00 0. -1.
         -5    1    5    5    0  502 -0.41616177993E+02 -0.17121769987E+02  0.10024198129E+03  0.10998002588E+03  0.47000000000E+01 0.  1.
         13    1    6    6    0    0 -0.16747641685E+02  0.24157601217E+02 -0.19370742084E+02  0.35203676619E+02  0.00000000000E+00 0. -1.
        -14    1    6    6    0    0  0.30093589886E+02  0.58219299209E+02  0.55367425227E+02  0.85794304758E+02  0.00000000000E+00 0.  1.
<mgrwt>
<rscale>  2 0.18803491E+03</rscale>
<asrwt>0</asrwt>
<pdfrwt beam="1">  1       21 0.58099520E-01 0.18854247E+03</pdfrwt>
<pdfrwt beam="2">  1       21 0.14333875E-01 0.18854247E+03</pdfrwt>
<totfact> 0.11845133E+05</totfact>
</mgrwt>
</event>
<event>
12    1  0.1029207E-001  0.1805777E+03  0.7546771E-02  0.1168242E+00
         21   -1    0    0  503  502  0.00000000000E+00  0.00000000000E+00  0.49597848171E+02  0.49597848171E+02  0.00000000000E+00 0. -1.
         21   -1    0    0  501  503 -0.00000000000E+00 -0.00000000000E+00 -0.65650160306E+03  0.65650160306E+03  0.00000000000E+00 0. -1.
          6    2    1    2  501    0  0.45814623574E+02 -0.18312106204E+02 -0.35132619552E+03  0.39316463545E+03  0.16945212286E+03 0.  0.
         24    2    3    3    0    0  0.38963189998E+02  0.35840007457E+02 -0.13470043455E+03  0.16971843639E+03  0.88642564688E+02 0.  0.
         -6    2    1    2    0  502 -0.45814623574E+02  0.18312106204E+02 -0.25557755937E+03  0.31293481578E+03  0.17370664095E+03 0.  0.
        -24    2    5    5    0    0 -0.91712645866E+02  0.38177127799E+02 -0.20989325096E+03  0.24503493679E+03  0.78219185289E+02 0.  0.
          5    1    3    3  501    0  0.68514335759E+01 -0.54152113662E+02 -0.21662576097E+03  0.22344619905E+03  0.47000000000E+01 0. -1.
        -13    1    4    4    0    0 -0.94798113001E+01  0.51421111011E+02 -0.65067898797E+02  0.83473522351E+02  0.00000000000E+00 0.  1.
         14    1    4    4    0    0  0.48443001298E+02 -0.15581103553E+02 -0.69632535754E+02  0.86244914043E+02  0.00000000000E+00 0. -1.
         -5    1    5    5    0  502  0.45898022292E+02 -0.19865021595E+02 -0.45684308408E+02  0.67899878999E+02  0.47000000000E+01 0.  1.
         13    1    6    6    0    0 -0.40729459979E+02  0.48938646327E+02 -0.64697525797E+02  0.90772517090E+02  0.00000000000E+00 0. -1.
        -14    1    6    6    0    0 -0.50983185887E+02 -0.10761518528E+02 -0.14519572516E+03  0.15426241970E+03  0.00000000000E+00 0.  1.
<mgrwt>
<rscale>  2 0.17954672E+03</rscale>
<asrwt>0</asrwt>
<pdfrwt beam="1">  1       21 0.76304391E-02 0.18057771E+03</pdfrwt>
<pdfrwt beam="2">  1       21 0.10100023E+00 0.18057771E+03</pdfrwt>
<totfact> 0.10496894E+05</totfact>
</mgrwt>
</event>
<event>
12    1  0.1029207E-001  0.1789795E+03  0.7546771E-02  0.1169474E+00
         21   -1    0    0  501  502  0.00000000000E+00  0.00000000000E+00  0.20147482734E+03  0.20147482734E+03  0.00000000000E+00 0. -1.
         21   -1    0    0  502  503 -0.00000000000E+00 -0.00000000000E+00 -0.17004432223E+03  0.17004432223E+03  0.00000000000E+00 0. -1.
         -6    2    1    2    0  503 -0.82274959893E+01  0.31239460412E+02  0.68156953047E+02  0.19151770550E+03  0.17603995482E+03 0.  0.
        -24    2    3    3    0    0 -0.49611368921E+02  0.62989544288E+02  0.79769552143E+02  0.13787411108E+03  0.78848706014E+02 0.  0.
          6    2    1    2  501    0  0.82274959893E+01 -0.31239460412E+02 -0.36726447942E+02  0.18000144407E+03  0.17322843968E+03 0.  0.
         24    2    5    5    0    0 -0.12412205014E+02  0.25738749676E+02 -0.71494348663E+02  0.10997708686E+03  0.78530068608E+02 0.  0.
          5    1    5    5  501    0  0.20639701004E+02 -0.56978210088E+02  0.34767900721E+02  0.70024357211E+02  0.47000000000E+01 0. -1.
        -13    1    6    6    0    0 -0.23037277824E+02  0.51109312867E+02 -0.47788215887E+02  0.73665403066E+02  0.00000000000E+00 0.  1.
         14    1    6    6    0    0  0.10625072810E+02 -0.25370563191E+02 -0.23706132777E+02  0.36311683795E+02  0.00000000000E+00 0. -1.
         -5    1    3    3    0  503  0.41383872931E+02 -0.31750083876E+02 -0.11612599095E+02  0.53643594424E+02  0.47000000000E+01 0.  1.
         13    1    4    4    0    0  0.27257561062E-01 -0.17867440345E+01  0.51465579737E+02  0.51496593042E+02  0.00000000000E+00 0. -1.
        -14    1    4    4    0    0 -0.49638626482E+02  0.64776288323E+02  0.28303972406E+02  0.86377518034E+02  0.00000000000E+00 0.  1.
<mgrwt>
<rscale>  2 0.17828431E+03</rscale>
<asrwt>0</asrwt>
<pdfrwt beam="1">  1       21 0.30996127E-01 0.17897950E+03</pdfrwt>
<pdfrwt beam="2">  1       21 0.26160665E-01 0.17897950E+03</pdfrwt>
<totfact> 0.13946679E+05</totfact>
</mgrwt>
</event>
<event>
12    1  0.1029207E-001  0.2796305E+03  0.7546771E-02  0.1095916E+00
         21   -1    0    0  501  502  0.00000000000E+00  0.00000000000E+00  0.31740141379E+03  0.31740141379E+03  0.00000000000E+00 0. -1.
         21   -1    0    0  502  503 -0.00000000000E+00 -0.00000000000E+00 -0.44715914562E+03  0.44715914562E+03  0.00000000000E+00 0. -1.
         -6    2    1    2    0  503  0.13846783352E+03 -0.17042086507E+03 -0.32114513816E+03  0.42570604242E+03  0.17284334704E+03 0.  0.
        -24    2    3    3    0    0  0.15393879379E+03 -0.15364246082E+03 -0.21120264924E+03  0.31332140676E+03  0.79123870536E+02 0.  0.
          6    2    1    2  501    0 -0.13846783352E+03  0.17042086507E+03  0.19138740634E+03  0.33885451699E+03  0.17313761061E+03 0.  0.
         24    2    5    5    0    0 -0.85620725332E+01  0.98688710579E+02  0.63841796580E+02  0.14312260520E+03  0.81212895812E+02 0.  0.
          5    1    5    5  501    0 -0.12990576099E+03  0.71732154493E+02  0.12754560976E+03  0.19573191179E+03  0.47000000000E+01 0. -1.
        -13    1    6    6    0    0 -0.28370396814E+02  0.10145261172E+01  0.12609728354E+02  0.31063063722E+02  0.00000000000E+00 0.  1.
         14    1    6    6    0    0  0.19808324280E+02  0.97674184462E+02  0.51232068226E+02  0.11205954148E+03  0.00000000000E+00 0. -1.
         -5    1    3    3    0  503 -0.15470960274E+02 -0.16778404252E+02 -0.10994248892E+03  0.11238463566E+03  0.47000000000E+01 0.  1.
         13    1    4    4    0    0  0.38927195370E+02 -0.77066666119E+02 -0.11973237903E+03  0.14761585333E+03  0.00000000000E+00 0. -1.
        -14    1    4    4    0    0  0.11501159842E+03 -0.76575794701E+02 -0.91470270205E+02  0.16570555343E+03  0.00000000000E+00 0.  1.
<mgrwt>
<rscale>  2 0.27958501E+03</rscale>
<asrwt>0</asrwt>
<pdfrwt beam="1">  1       21 0.48830987E-01 0.27963055E+03</pdfrwt>
<pdfrwt beam="2">  1       21 0.68793714E-01 0.27963055E+03</pdfrwt>
<totfact> 0.73015777E+03</totfact>
</mgrwt>
</event>
<event>
12    1  0.1029207E-001  0.3101534E+03  0.7546771E-02  0.1081553E+00
         21   -1    0    0  501  502  0.00000000000E+00  0.00000000000E+00  0.98682050085E+03  0.98682050085E+03  0.00000000000E+00 0.  1.
         21   -1    0    0  502  503 -0.00000000000E+00 -0.00000000000E+00 -0.12743756198E+03  0.12743756198E+03  0.00000000000E+00 0. -1.
         -6    2    1    2    0  503  0.12612976485E+03  0.22018794909E+03  0.13976683576E+03  0.33064943172E+03  0.15938264590E+03 0.  0.
        -24    2    3    3    0    0  0.86333828181E+02  0.12040085669E+03  0.18052450524E+02  0.16823741875E+03  0.77640465721E+02 0.  0.
          6    2    1    2  501    0 -0.12612976485E+03 -0.22018794909E+03  0.71961610312E+03  0.78360863111E+03  0.17833592003E+03 0.  0.
         24    2    5    5    0    0 -0.13682953772E+03 -0.12490262163E+03  0.58291021850E+03  0.61656262649E+03  0.77731346775E+02 0.  0.
          5    1    5    5  501    0  0.10699772866E+02 -0.95285327461E+02  0.13670588462E+03  0.16704600461E+03  0.47000000000E+01 0. -1.
        -13    1    6    6    0    0 -0.14940404879E+02 -0.24173667828E+02  0.20418345906E+03  0.20615156285E+03  0.00000000000E+00 0.  1.
         14    1    6    6    0    0 -0.12188913284E+03 -0.10072895380E+03  0.37872675944E+03  0.41041106364E+03  0.00000000000E+00 0. -1.
         -5    1    3    3    0  503  0.39795936674E+02  0.99787092400E+02  0.12171438523E+03  0.16241201297E+03  0.47000000000E+01 0.  1.
         13    1    4    4    0    0  0.22841734476E+02  0.92075972619E+02  0.25721435816E+02  0.98292023217E+02  0.00000000000E+00 0. -1.
        -14    1    4    4    0    0  0.63492093704E+02  0.28324884067E+02 -0.76689852920E+01  0.69945395530E+02  0.00000000000E+00 0.  1.
<mgrwt>
<rscale>  2 0.30749533E+03</rscale>
<asrwt>0</asrwt>
<pdfrwt beam="1">  1       21 0.15181853E+00 0.31015343E+03</pdfrwt>
<pdfrwt beam="2">  1       21 0.19605779E-01 0.31015343E+03</pdfrwt>
<totfact> 0.64281581E+03</totfact>
</mgrwt>
</event>
<event>
12    1  0.1029207E-001  0.2086832E+03  0.7546771E-02  0.1142664E+00
         21   -1    0    0  501  502  0.00000000000E+00  0.00000000000E+00  0.15439461548E+03  0.15439461548E+03  0.00000000000E+00 0.  1.
         21   -1    0    0  502  503 -0.00000000000E+00 -0.00000000000E+00 -0.28583828854E+03  0.28583828854E+03  0.00000000000E+00 0.  1.
         -6    2    1    2    0  503 -0.99161951999E+00 -0.11379688323E+03 -0.92198146540E+02  0.22814284395E+03  0.17492268315E+03 0.  0.
        -24    2    3    3    0    0  0.35351964578E+02 -0.52728746553E+01 -0.73809071257E+02  0.11213179003E+03  0.76473490370E+02 0.  0.
          6    2    1    2  501    0  0.99161951999E+00  0.11379688323E+03 -0.39245526525E+02  0.21209006007E+03  0.17461749135E+03 0.  0.
         24    2    5    5    0    0 -0.32240846854E+02  0.10823587192E+03 -0.77350616755E+02  0.16100767984E+03  0.84769563394E+02 0.  0.
          5    1    5    5  501    0  0.33232466374E+02  0.55610113044E+01  0.38105090231E+02  0.51082380225E+02  0.47000000000E+01 0. -1.
        -11    1    6    6    0    0  0.21872865757E+02  0.46542891258E+01 -0.31670640827E+01  0.22585724664E+02  0.00000000000E+00 0.  1.
         12    1    6    6    0    0 -0.54113712611E+02  0.10358158280E+03 -0.74183552673E+02  0.13842195518E+03  0.00000000000E+00 0. -1.
         -5    1    3    3    0  503 -0.36343584098E+02 -0.10852400857E+03 -0.18389075284E+02  0.11601105392E+03  0.47000000000E+01 0.  1.
         11    1    4    4    0    0 -0.15314509420E+02  0.18791422187E+02 -0.77033428104E+01  0.25436061744E+02  0.00000000000E+00 0. -1.
        -12    1    4    4    0    0  0.50666473998E+02 -0.24064296843E+02 -0.66105728446E+02  0.86695728288E+02  0.00000000000E+00 0.  1.
<mgrwt>
<rscale>  2 0.20861919E+03</rscale>
<asrwt>0</asrwt>
<pdfrwt beam="1">  1       21 0.23753018E-01 0.20868315E+03</pdfrwt>
<pdfrwt beam="2">  1       21 0.43975121E-01 0.20868315E+03</pdfrwt>
<totfact> 0.82384590E+04</totfact>
</mgrwt>
</event>
<event>
12    1  0.1029207E-001  0.2060501E+03  0.7546771E-02  0.1144773E+00
         21   -1    0    0  501  502  0.00000000000E+00  0.00000000000E+00  0.22068947569E+03  0.22068947569E+03  0.00000000000E+00 0.  1.
         21   -1    0    0  502  503 -0.00000000000E+00 -0.00000000000E+00 -0.48981543923E+03  0.48981543923E+03  0.00000000000E+00 0. -1.
         -6    2    1    2    0  503 -0.50492669981E+02 -0.98479834974E+02 -0.41145582300E+03  0.46007645674E+03  0.17357034351E+03 0.  0.
        -24    2    3    3    0    0 -0.71291649771E+02 -0.10744457633E+03 -0.41019993012E+03  0.43691115046E+03  0.77463116495E+02 0.  0.
          6    2    1    2  501    0  0.50492669981E+02  0.98479834974E+02  0.14232985946E+03  0.25042845817E+03  0.17380689328E+03 0.  0.
         24    2    5    5    0    0  0.47275448457E+02  0.13600771936E+03  0.12811493661E+03  0.20989641342E+03  0.83126407534E+02 0.  0.
          5    1    5    5  501    0  0.32172215236E+01 -0.37527884384E+02  0.14214922848E+02  0.40532044758E+02  0.47000000000E+01 0. -1.
        -11    1    6    6    0    0  0.26036875255E+02  0.10688405014E+03  0.13400113009E+03  0.17337364827E+03  0.00000000000E+00 0.  1.
         12    1    6    6    0    0  0.21238573202E+02  0.29123669220E+02 -0.58861934791E+01  0.36522765149E+02  0.00000000000E+00 0. -1.
         -5    1    3    3    0  503  0.20798979791E+02  0.89647413581E+01 -0.12558928787E+01  0.23165306276E+02  0.47000000000E+01 0.  1.
         11    1    4    4    0    0 -0.30452176193E+02 -0.10490115802E+03 -0.28634156813E+03  0.30646872863E+03  0.00000000000E+00 0. -1.
        -12    1    4    4    0    0 -0.40839473578E+02 -0.25434183162E+01 -0.12385836199E+03  0.13044242184E+03  0.00000000000E+00 0.  1.
<mgrwt>
<rscale>  2 0.20600016E+03</rscale>
<asrwt>0</asrwt>
<pdfrwt beam="1">  1       21 0.33952228E-01 0.20605005E+03</pdfrwt>
<pdfrwt beam="2">  1       21 0.75356220E-01 0.20605005E+03</pdfrwt>
<totfact> 0.13033213E+04</totfact>
</mgrwt>
</event>
<event>
12    1  0.1029207E-001  0.1818809E+03  0.7546771E-02  0.1166114E+00
         21   -1    0    0  503  502  0.00000000000E+00  0.00000000000E+00  0.14908186813E+04  0.14908186813E+04  0.00000000000E+00 0.  1.
         21   -1    0    0  501  503 -0.00000000000E+00 -0.00000000000E+00 -0.22395971979E+02  0.22395971979E+02  0.00000000000E+00 0. -1.
          6    2    1    2  501    0 -0.18590149772E+02 -0.54280837467E+02  0.65056053638E+03  0.67537266056E+03  0.17206747558E+03 0.  0.
         24    2    3    3    0    0  0.18344660770E+02  0.33121775859E+02  0.30136057999E+03  0.31348027795E+03  0.77576458283E+02 0.  0.
         -6    2    1    2    0  502  0.18590149772E+02  0.54280837467E+02  0.81786217293E+03  0.83784199270E+03  0.17259393920E+03 0.  0.
        -24    2    5    5    0    0 -0.11178005327E+02  0.88510997293E+02  0.70920966060E+03  0.72000606722E+03  0.86436391061E+02 0.  0.
          5    1    3    3  501    0 -0.36934810542E+02 -0.87402613326E+02  0.34919995639E+03  0.36189238261E+03  0.47000000000E+01 0. -1.
        -13    1    4    4    0    0  0.22343641308E+02  0.85631316878E+01  0.27900880418E+03  0.28003299509E+03  0.00000000000E+00 0.  1.
         14    1    4    4    0    0 -0.39989805382E+01  0.24558644171E+02  0.22351775808E+02  0.33447282859E+02  0.00000000000E+00 0. -1.
         -5    1    5    5    0  502  0.29768155099E+02 -0.34230159825E+02  0.10865251232E+03  0.11783592548E+03  0.47000000000E+01 0.  1.
         11    1    6    6    0    0 -0.47841339905E+01 -0.15135004168E+02  0.44767799320E+02  0.47498548875E+02  0.00000000000E+00 0. -1.
        -12    1    6    6    0    0 -0.63938713368E+01  0.10364600146E+03  0.66444186128E+03  0.67250751835E+03  0.00000000000E+00 0.  1.
<mgrwt>
<rscale>  2 0.18175592E+03</rscale>
<asrwt>0</asrwt>
<pdfrwt beam="1">  1       21 0.22935664E+00 0.18188092E+03</pdfrwt>
<pdfrwt beam="2">  1       21 0.34455353E-02 0.18188092E+03</pdfrwt>
<totfact> 0.44722962E+04</totfact>
</mgrwt>
</event>
<event>
12    1  0.1029207E-001  0.1982797E+03  0.7546771E-02  0.1151783E+00
         21   -1    0    0  503  502  0.00000000000E+00  0.00000000000E+00  0.14434603472E+03  0.14434603472E+03  0.00000000000E+00 0.  1.
         21   -1    0    0  501  503 -0.00000000000E+00 -0.00000000000E+00 -0.30733612376E+03  0.30733612376E+03  0.00000000000E+00 0.  1.
          6    2    1    2  501    0 -0.11550782106E+02  0.94573529290E+02 -0.16211556036E+03  0.25611773919E+03  0.17388866670E+03 0.  0.
         24    2    3    3    0    0  0.23214745282E+02  0.10685361422E+03 -0.64137666789E+02  0.15132651814E+03  0.82640519834E+02 0.  0.
         -6    2    1    2    0  502  0.11550782106E+02 -0.94573529290E+02 -0.87452867222E+00  0.19556441929E+03  0.17078379397E+03 0.  0.
        -24    2    5    5    0    0 -0.44009680190E+02 -0.97566545921E+02 -0.77787500813E+01  0.13930003098E+03  0.88813888804E+02 0.  0.
          5    1    3    3  501    0 -0.34765527387E+02 -0.12280084934E+02 -0.97977893574E+02  0.10479122105E+03  0.47000000000E+01 0. -1.
        -11    1    4    4    0    0  0.77468188652E+01  0.38854394109E+02 -0.70945736996E+02  0.81258690256E+02  0.00000000000E+00 0.  1.
         12    1    4    4    0    0  0.15467926416E+02  0.67999220115E+02  0.68080702066E+01  0.70067827880E+02  0.00000000000E+00 0. -1.
         -5    1    5    5    0  502  0.55560462296E+02  0.29930166305E+01  0.69042214091E+01  0.56264388314E+02  0.47000000000E+01 0.  1.
         13    1    6    6    0    0 -0.20839810828E+02 -0.37946476440E+02 -0.47292305024E+02  0.64115481001E+02  0.00000000000E+00 0. -1.
        -14    1    6    6    0    0 -0.23169869362E+02 -0.59620069480E+02  0.39513554942E+02  0.75184549977E+02  0.00000000000E+00 0.  1.
<mgrwt>
<rscale>  2 0.19759688E+03</rscale>
<asrwt>0</asrwt>
<pdfrwt beam="1">  1       21 0.22207082E-01 0.19827970E+03</pdfrwt>
<pdfrwt beam="2">  1       21 0.47282480E-01 0.19827970E+03</pdfrwt>
<totfact> 0.80961857E+04</totfact>
</mgrwt>
</event>
<event>
12    1  0.1029207E-001  0.2250693E+03  0.7546771E-02  0.1131259E+00
         21   -1    0    0  503  502  0.00000000000E+00  0.00000000000E+00  0.18958294646E+03  0.18958294646E+03  0.00000000000E+00 0. -1.
         21   -1    0    0  501  503 -0.00000000000E+00 -0.00000000000E+00 -0.42175138933E+03  0.42175138933E+03  0.00000000000E+00 0. -1.
          6    2    1    2  501    0  0.60526038443E+02 -0.12266234852E+03 -0.30432798441E+03  0.37498039113E+03  0.17112953738E+03 0.  0.
         24    2    3    3    0    0 -0.85646531132E+01 -0.26714843191E+01 -0.12881611641E+03  0.15137843013E+03  0.79002197134E+02 0.  0.
         -6    2    1    2    0  502 -0.60526038443E+02  0.12266234852E+03  0.72159541550E+02  0.23635394466E+03  0.17873649500E+03 0.  0.
        -24    2    5    5    0    0 -0.97558249444E+02  0.37019578735E+02  0.31576775425E+02  0.13449561375E+03  0.78764942254E+02 0.  0.
          5    1    3    3  501    0  0.69090691556E+02 -0.11999086421E+03 -0.17551186801E+03  0.22360196100E+03  0.47000000000E+01 0. -1.
        -11    1    4    4    0    0  0.15087200244E+02 -0.23644434768E+01  0.45469808447E+01  0.15933902189E+02  0.00000000000E+00 0.  1.
         12    1    4    4    0    0 -0.23651853358E+02 -0.30704084226E+00 -0.13336309725E+03  0.13544452794E+03  0.00000000000E+00 0. -1.
         -5    1    5    5    0  502  0.37032211001E+02  0.85642769789E+02  0.40582766125E+02  0.10185833091E+03  0.47000000000E+01 0.  1.
         11    1    6    6    0    0 -0.62857682412E+02  0.58520364654E+02  0.36620056224E+02  0.93363535898E+02  0.00000000000E+00 0. -1.
        -12    1    6    6    0    0 -0.34700567032E+02 -0.21500785919E+02 -0.50432807993E+01  0.41132077855E+02  0.00000000000E+00 0.  1.
<mgrwt>
<rscale>  2 0.22355605E+03</rscale>
<asrwt>0</asrwt>
<pdfrwt beam="1">  1       21 0.29166608E-01 0.22506930E+03</pdfrwt>
<pdfrwt beam="2">  1       21 0.64884828E-01 0.22506930E+03</pdfrwt>
<totfact> 0.24188226E+04</totfact>
</mgrwt>
</event>
<event>
12    1  0.1029207E-001  0.1796438E+03  0.7546771E-02  0.1169382E+00
         21   -1    0    0  503  502  0.00000000000E+00  0.00000000000E+00  0.19508403377E+03  0.19508403377E+03  0.00000000000E+00 0.  1.
         21   -1    0    0  501  503 -0.00000000000E+00 -0.00000000000E+00 -0.31082152549E+03  0.31082152549E+03  0.00000000000E+00 0.  1.
          6    2    1    2  501    0  0.14115216149E+02  0.48659022001E+02 -0.23399246833E+03  0.29499892660E+03  0.17235124518E+03 0.  0.
         24    2    3    3    0    0 -0.83376451840E+01  0.66540139862E+01 -0.23049851307E+03  0.24701091348E+03  0.88153471967E+02 0.  0.
         -6    2    1    2    0  502 -0.14115216149E+02 -0.48659022001E+02  0.11825497661E+03  0.21090663265E+03  0.16712399127E+03 0.  0.
        -24    2    5    5    0    0 -0.29839927149E+02 -0.17433235824E+02 -0.12157167669E+01  0.86336761364E+02  0.79108908677E+02 0.  0.
          5    1    3    3  501    0  0.22452861333E+02  0.42005008015E+02 -0.34939552555E+01  0.47988013125E+02  0.47000000000E+01 0. -1.
        -11    1    4    4    0    0 -0.17196395217E+02  0.41560358670E+02 -0.17623885260E+03  0.18188763726E+03  0.00000000000E+00 0.  1.
         12    1    4    4    0    0  0.88587500331E+01 -0.34906344684E+02 -0.54259660473E+02  0.65123276223E+02  0.00000000000E+00 0. -1.
         -5    1    5    5    0  502  0.15724710999E+02 -0.31225786177E+02  0.11947069337E+03  0.12456987129E+03  0.47000000000E+01 0.  1.
         13    1    6    6    0    0 -0.40511600659E+02 -0.42417321797E+02 -0.51708936745E+01  0.58882570577E+02  0.00000000000E+00 0. -1.
        -14    1    6    6    0    0  0.10671673510E+02  0.24984085973E+02  0.39551769076E+01  0.27454190787E+02  0.00000000000E+00 0.  1.
<mgrwt>
<rscale>  2 0.17837827E+03</rscale>
<asrwt>0</asrwt>
<pdfrwt beam="1">  1       21 0.30012928E-01 0.17964379E+03</pdfrwt>
<pdfrwt beam="2">  1       21 0.47818696E-01 0.17964379E+03</pdfrwt>
<totfact> 0.44793840E+04</totfact>
</mgrwt>
</event>
<event>
12    1  0.1029207E-001  0.2235006E+03  0.7546771E-02  0.1131374E+00
         21   -1    0    0  503  502  0.00000000000E+00  0.00000000000E+00  0.15957897051E+03  0.15957897051E+03  0.00000000000E+00 0. -1.
         21   -1    0    0  501  503 -0.00000000000E+00 -0.00000000000E+00 -0.39082476818E+03  0.39082476818E+03  0.00000000000E+00 0. -1.
          6    2    1    2  501    0  0.83206092496E+02  0.11379153252E+03 -0.23893654771E+03  0.32717458658E+03  0.17343808570E+03 0.  0.
         24    2    3    3    0    0 -0.18770185360E+02  0.48706433742E+02 -0.14285479238E+03  0.17261383790E+03  0.81629705253E+02 0.  0.
         -6    2    1    2    0  502 -0.83206092496E+02 -0.11379153252E+03  0.76907500355E+01  0.22322915211E+03  0.17291714784E+03 0.  0.
        -24    2    5    5    0    0 -0.11029093031E+03 -0.49338768128E+02 -0.21117259027E+02  0.14746808914E+03  0.81868769002E+02 0.  0.
          5    1    3    3  501    0  0.10197627786E+03  0.65085098774E+02 -0.96081755325E+02  0.15456074869E+03  0.47000000000E+01 0. -1.
        -13    1    4    4    0    0  0.10131810308E+02 -0.13498271068E+02 -0.72179684090E+02  0.74126673319E+02  0.00000000000E+00 0.  1.
         14    1    4    4    0    0 -0.28901995668E+02  0.62204704810E+02 -0.70675108294E+02  0.98487164577E+02  0.00000000000E+00 0. -1.
         -5    1    5    5    0  502  0.27084837812E+02 -0.64452764389E+02  0.28808009062E+02  0.75761062973E+02  0.47000000000E+01 0.  1.
         13    1    6    6    0    0 -0.16208792598E+02 -0.37919951842E+02 -0.31827061024E+02  0.52092317270E+02  0.00000000000E+00 0. -1.
        -14    1    6    6    0    0 -0.94082137709E+02 -0.11418816286E+02  0.10709801997E+02  0.95375771872E+02  0.00000000000E+00 0.  1.
<mgrwt>
<rscale>  2 0.22339957E+03</rscale>
<asrwt>0</asrwt>
<pdfrwt beam="1">  1       21 0.24550611E-01 0.22350064E+03</pdfrwt>
<pdfrwt beam="2">  1       21 0.60126887E-01 0.22350064E+03</pdfrwt>
<totfact> 0.39827406E+04</totfact>
</mgrwt>
</event>
<event>
12    1  0.1029207E-001  0.1964804E+03  0.7546771E-02  0.1152902E+00
         21   -1    0    0  503  502  0.00000000000E+00  0.00000000000E+00  0.16863836554E+03  0.16863836554E+03  0.00000000000E+00 0.  1.
         21   -1    0    0  501  503 -0.00000000000E+00 -0.00000000000E+00 -0.26533107393E+03  0.26533107393E+03  0.00000000000E+00 0.  1.
          6    2    1    2  501    0 -0.38661778638E+02 -0.85173583748E+02 -0.12958666956E+03  0.23475462660E+03  0.17195277632E+03 0.  0.
         24    2    3    3    0    0  0.32723684564E+02 -0.51363405204E+02 -0.11547172065E+03  0.15437842171E+03  0.82401091579E+02 0.  0.
         -6    2    1    2    0  502  0.38661778638E+02  0.85173583748E+02  0.32893961165E+02  0.19921481288E+03  0.17278673703E+03 0.  0.
        -24    2    5    5    0    0 -0.19962626547E+02  0.10643950085E+03  0.24807987330E+02  0.13615505482E+03  0.78707616635E+02 0.  0.
          5    1    3    3  501    0 -0.71385463202E+02 -0.33810178544E+02 -0.14114948913E+02  0.80376204890E+02  0.47000000000E+01 0. -1.
        -11    1    4    4    0    0  0.21333128278E+02 -0.11874298297E+02 -0.11028280088E+03  0.11295307650E+03  0.00000000000E+00 0.  1.
         12    1    4    4    0    0  0.11390556286E+02 -0.39489106907E+02 -0.51889197713E+01  0.41425345203E+02  0.00000000000E+00 0. -1.
         -5    1    5    5    0  502  0.58624405184E+02 -0.21265917105E+02  0.80859738347E+01  0.63059758058E+02  0.47000000000E+01 0.  1.
         13    1    6    6    0    0 -0.13937614997E+02  0.20388917663E+01  0.28203730419E+02  0.31525618170E+02  0.00000000000E+00 0. -1.
        -14    1    6    6    0    0 -0.60250115494E+01  0.10440060909E+03 -0.33957430894E+01  0.10462943665E+03  0.00000000000E+00 0.  1.
<mgrwt>
<rscale>  2 0.19629685E+03</rscale>
<asrwt>0</asrwt>
<pdfrwt beam="1">  1       21 0.25944364E-01 0.19648035E+03</pdfrwt>
<pdfrwt beam="2">  1       21 0.40820165E-01 0.19648035E+03</pdfrwt>
<totfact> 0.81439202E+04</totfact>
</mgrwt>
</event>
<event>
12    1  0.1029207E-001  0.2067571E+03  0.7546771E-02  0.1144372E+00
         21   -1    0    0  503  502  0.00000000000E+00  0.00000000000E+00  0.72579150844E+02  0.72579150844E+02  0.00000000000E+00 0.  1.
         21   -1    0    0  501  503 -0.00000000000E+00 -0.00000000000E+00 -0.11713091691E+04  0.11713091691E+04  0.00000000000E+00 0.  1.
          6    2    1    2  501    0 -0.10744104166E+03  0.27865907218E+02 -0.98970398439E+03  0.10110699733E+04  0.17443746128E+03 0.  0.
         24    2    3    3    0    0 -0.24937244355E+02 -0.35312850395E+02 -0.63116568985E+03  0.63774674785E+03  0.80510389307E+02 0.  0.
         -6    2    1    2    0  502  0.10744104166E+03 -0.27865907218E+02 -0.10902603384E+03  0.23281834666E+03  0.17319821092E+03 0.  0.
        -24    2    5    5    0    0  0.14010228887E+03 -0.33298054892E+02 -0.11114862115E+03  0.19930923335E+03  0.81441652180E+02 0.  0.
          5    1    3    3  501    0 -0.82503797305E+02  0.63178757613E+02 -0.35853829454E+03  0.37332322542E+03  0.47000000000E+01 0. -1.
        -11    1    4    4    0    0 -0.15498426212E+02  0.25448996682E+02 -0.21989216904E+03  0.22190182211E+03  0.00000000000E+00 0.  1.
         12    1    4    4    0    0 -0.94388181435E+01 -0.60761847077E+02 -0.41127352081E+03  0.41584492574E+03  0.00000000000E+00 0. -1.
         -5    1    5    5    0  502 -0.32661247211E+02  0.54321476739E+01  0.21225873054E+01  0.33509113306E+02  0.47000000000E+01 0.  1.
         13    1    6    6    0    0  0.13105466411E+03 -0.49169690168E+02 -0.11437000047E+03  0.18075807153E+03  0.00000000000E+00 0. -1.
        -14    1    6    6    0    0  0.90476247605E+01  0.15871635276E+02  0.32213793222E+01  0.18551161820E+02  0.00000000000E+00 0.  1.
<mgrwt>
<rscale>  2 0.20649553E+03</rscale>
<asrwt>0</asrwt>
<pdfrwt beam="1">  1       21 0.11166024E-01 0.20675714E+03</pdfrwt>
<pdfrwt beam="2">  1       21 0.18020140E+00 0.20675714E+03</pdfrwt>
<totfact> 0.11972568E+04</totfact>
</mgrwt>
</event>
<event>
12    1  0.1029207E-001  0.1814120E+03  0.7546771E-02  0.1167342E+00
         21   -1    0    0  503  502  0.00000000000E+00  0.00000000000E+00  0.43350916574E+03  0.43350916574E+03  0.00000000000E+00 0. -1.
         21   -1    0    0  501  503 -0.00000000000E+00 -0.00000000000E+00 -0.17260178108E+03  0.17260178108E+03  0.00000000000E+00 0. -1.
          6    2    1    2  501    0  0.38072324651E+02 -0.16732541571E+02 -0.97584612228E+02  0.20599290947E+03  0.17658097960E+03 0.  0.
         24    2    3    3    0    0  0.77705679664E+02  0.22360075178E+02 -0.98069273181E+02  0.15012377300E+03  0.79883785984E+02 0.  0.
         -6    2    1    2    0  502 -0.38072324651E+02  0.16732541571E+02  0.35849199689E+03  0.40011803736E+03  0.17276704585E+03 0.  0.
        -24    2    5    5    0    0 -0.83943925216E+02  0.30410235266E+02  0.30407655463E+03  0.32749288056E+03  0.82569187670E+02 0.  0.
          5    1    3    3  501    0 -0.39633355013E+02 -0.39092616749E+02  0.48466095221E+00  0.55869136472E+02  0.47000000000E+01 0. -1.
        -11    1    4    4    0    0  0.39586182341E+02  0.13761622802E+02  0.27461429413E+01  0.41999873757E+02  0.00000000000E+00 0.  1.
         12    1    4    4    0    0  0.38119497323E+02  0.85984523751E+01 -0.10081541612E+03  0.10812389924E+03  0.00000000000E+00 0. -1.
         -5    1    5    5    0  502  0.45871600565E+02 -0.13677693695E+02  0.54415442257E+02  0.72625156793E+02  0.47000000000E+01 0.  1.
         13    1    6    6    0    0 -0.33077501277E+02  0.52873476077E+02  0.12055490840E+03  0.13573213143E+03  0.00000000000E+00 0. -1.
        -14    1    6    6    0    0 -0.50866423939E+02 -0.22463240811E+02  0.18352164623E+03  0.19176074913E+03  0.00000000000E+00 0.  1.
<mgrwt>
<rscale>  2 0.18047727E+03</rscale>
<asrwt>0</asrwt>
<pdfrwt beam="1">  1       21 0.66693718E-01 0.18141202E+03</pdfrwt>
<pdfrwt beam="2">  1       21 0.26554120E-01 0.18141202E+03</pdfrwt>
<totfact> 0.27979838E+04</totfact>
</mgrwt>
</event>
<event>
12    1  0.1029207E-001  0.2085220E+03  0.7546771E-02  0.1145927E+00
         21   -1    0    0  501  502  0.00000000000E+00  0.00000000000E+00  0.10262678661E+03  0.10262678661E+03  0.00000000000E+00 0. -1.
         21   -1    0    0  502  503 -0.00000000000E+00 -0.00000000000E+00 -0.41133270799E+03  0.41133270799E+03  0.00000000000E+00 0. -1.
         -6    2    1    2    0  503 -0.20065223947E+02  0.76922039255E+02 -0.20271597250E+03  0.28004645946E+03  0.17610406188E+03 0.  0.
        -24    2    3    3    0    0  0.43563303562E+02  0.52171703819E+02 -0.60616539176E+02  0.12232674741E+03  0.81668967256E+02 0.  0.
          6    2    1    2  501    0  0.20065223947E+02 -0.76922039255E+02 -0.10598994888E+03  0.23391303515E+03  0.19277402681E+03 0.  0.
         24    2    5    5    0    0  0.77229384248E+02 -0.39984325364E+02 -0.13854831548E+02  0.11926964992E+03  0.80437360525E+02 0.  0.
          5    1    5    5  501    0 -0.57164160301E+02 -0.36937713890E+02 -0.92135117334E+02  0.11464338523E+03  0.47000000000E+01 0. -1.
        -13    1    6    6    0    0  0.90925974751E+01  0.22444061530E+02 -0.11549634749E+02  0.26829187272E+02  0.00000000000E+00 0.  1.
         14    1    6    6    0    0  0.68136786773E+02 -0.62428386895E+02 -0.23051967989E+01  0.92440462646E+02  0.00000000000E+00 0. -1.
         -5    1    3    3    0  503 -0.63628527509E+02  0.24750335436E+02 -0.14209943333E+03  0.15771971205E+03  0.47000000000E+01 0.  1.
         11    1    4    4    0    0 -0.61611163635E+01  0.54708691112E+02 -0.21877286809E+02  0.59242011412E+02  0.00000000000E+00 0. -1.
        -12    1    4    4    0    0  0.49724419925E+02 -0.25369872932E+01 -0.38739252367E+02  0.63084735993E+02  0.00000000000E+00 0.  1.
<mgrwt>
<rscale>  2 0.20458533E+03</rscale>
<asrwt>0</asrwt>
<pdfrwt beam="1">  1       21 0.15788736E-01 0.20852203E+03</pdfrwt>
<pdfrwt beam="2">  1       21 0.63281956E-01 0.20852203E+03</pdfrwt>
<totfact> 0.81966736E+04</totfact>
</mgrwt>
</event>
<event>
12    1  0.1029207E-001  0.1865491E+03  0.7546771E-02  0.1162429E+00
         21   -1    0    0  501  502  0.00000000000E+00  0.00000000000E+00  0.25800497131E+02  0.25800497131E+02  0.00000000000E+00 0.  1.
         21   -1    0    0  502  503 -0.00000000000E+00 -0.00000000000E+00 -0.13696983595E+04  0.13696983595E+04  0.00000000000E+00 0.  1.
         -6    2    1    2    0  503  0.20401462329E+02 -0.55813031198E+02 -0.79377829328E+03  0.81460979225E+03  0.17312949093E+03 0.  0.
        -24    2    3    3    0    0  0.47884436141E+02 -0.94124949578E+02 -0.51560968117E+03  0.53243434381E+03  0.80501936583E+02 0.  0.
          6    2    1    2  501    0 -0.20401462329E+02  0.55813031198E+02 -0.55011956904E+03  0.58088906433E+03  0.17683113613E+03 0.  0.
         24    2    5    5    0    0 -0.69047690574E+02  0.67206507543E+02 -0.29931527077E+03  0.32511347352E+03  0.82612596604E+02 0.  0.
          5    1    5    5  501    0  0.48646228245E+02 -0.11393476345E+02 -0.25080429827E+03  0.25577559081E+03  0.47000000000E+01 0. -1.
        -11    1    6    6    0    0 -0.44026706465E+02  0.84423967245E+02 -0.20509573895E+03  0.22611948006E+03  0.00000000000E+00 0.  1.
         12    1    6    6    0    0 -0.25020984109E+02 -0.17217459702E+02 -0.94219531823E+02  0.98993993461E+02  0.00000000000E+00 0. -1.
         -5    1    3    3    0  503 -0.27482973813E+02  0.38311918380E+02 -0.27816861211E+03  0.28217544844E+03  0.47000000000E+01 0.  1.
         13    1    4    4    0    0  0.19778800762E+02 -0.14535362177E+02 -0.26603452933E+02  0.36196980829E+02  0.00000000000E+00 0. -1.
        -14    1    4    4    0    0  0.28105635380E+02 -0.79589587401E+02 -0.48900622824E+03  0.49623736298E+03  0.00000000000E+00 0.  1.
<mgrwt>
<rscale>  2 0.18566660E+03</rscale>
<asrwt>0</asrwt>
<pdfrwt beam="1">  1       21 0.39693085E-02 0.18654909E+03</pdfrwt>
<pdfrwt beam="2">  1       21 0.21072276E+00 0.18654909E+03</pdfrwt>
<totfact> 0.45776028E+04</totfact>
</mgrwt>
</event>
<event>
12    1  0.1029207E-001  0.2954238E+03  0.7546771E-02  0.1088025E+00
         21   -1    0    0  501  502  0.00000000000E+00  0.00000000000E+00  0.16687754213E+03  0.16687754213E+03  0.00000000000E+00 0. -1.
         21   -1    0    0  502  503 -0.00000000000E+00 -0.00000000000E+00 -0.64202695857E+03  0.64202695857E+03  0.00000000000E+00 0.  1.
         -6    2    1    2    0  503 -0.48558531586E+02 -0.23045827824E+03 -0.41763223365E+03  0.51155832791E+03  0.17834318397E+03 0.  0.
        -24    2    3    3    0    0 -0.24012941739E+02 -0.14428145275E+03 -0.13314414434E+03  0.21325563903E+03  0.79729827715E+02 0.  0.
          6    2    1    2  501    0  0.48558531586E+02  0.23045827824E+03 -0.57517182795E+02  0.29734617279E+03  0.17215565966E+03 0.  0.
         24    2    5    5    0    0  0.41946050054E+02  0.23665368973E+03 -0.85876784694E+02  0.26720541873E+03  0.79116835569E+02 0.  0.
          5    1    5    5  501    0  0.66124815324E+01 -0.61954114857E+01  0.28359601899E+02  0.30140754061E+02  0.47000000000E+01 0. -1.
        -11    1    6    6    0    0  0.53968384500E+02  0.84206070635E+02 -0.37492301062E+02  0.10681255308E+03  0.00000000000E+00 0.  1.
         12    1    6    6    0    0 -0.12022334447E+02  0.15244761909E+03 -0.48384483632E+02  0.16039286564E+03  0.00000000000E+00 0. -1.
         -5    1    3    3    0  503 -0.24545589847E+02 -0.86176825488E+02 -0.28448808931E+03  0.29830268888E+03  0.47000000000E+01 0.  1.
         13    1    4    4    0    0  0.23893381366E+02 -0.15287490245E+02 -0.30002384265E+02  0.41288546749E+02  0.00000000000E+00 0. -1.
        -14    1    4    4    0    0 -0.47906323105E+02 -0.12899396251E+03 -0.10314176008E+03  0.17196709228E+03  0.00000000000E+00 0.  1.
<mgrwt>
<rscale>  2 0.29449607E+03</rscale>
<asrwt>0</asrwt>
<pdfrwt beam="1">  1       21 0.25673468E-01 0.29542383E+03</pdfrwt>
<pdfrwt beam="2">  1       21 0.98773376E-01 0.29542383E+03</pdfrwt>
<totfact> 0.11479976E+04</totfact>
</mgrwt>
</event>
<event>
12    1  0.1029207E-001  0.2025237E+03  0.7546771E-02  0.1148466E+00
         21   -1    0    0  503  502  0.00000000000E+00  0.00000000000E+00  0.49487834794E+03  0.49487834794E+03  0.00000000000E+00 0.  1.
         21   -1    0    0  501  503 -0.00000000000E+00 -0.00000000000E+00 -0.16183866755E+03  0.16183866755E+03  0.00000000000E+00 0. -1.
          6    2    1    2  501    0 -0.27796983413E+02 -0.96603035220E+02 -0.64346635236E+02  0.21250023259E+03  0.17581535964E+03 0.  0.
         24    2    3    3    0    0 -0.82818035548E+02 -0.58550952048E+02 -0.15656648631E+02  0.12962634040E+03  0.79188487047E+02 0.  0.
         -6    2    1    2    0  502  0.27796983413E+02  0.96603035220E+02  0.39738631563E+03  0.44421678290E+03  0.17119534940E+03 0.  0.
        -24    2    5    5    0    0  0.48876950912E+02  0.45168210726E+02  0.11242817434E+03  0.15384953529E+03  0.81243224523E+02 0.  0.
          5    1    3    3  501    0  0.55021052135E+02 -0.38052083172E+02 -0.48689986605E+02  0.82873892194E+02  0.47000000000E+01 0. -1.
        -11    1    4    4    0    0  0.15250864631E+02 -0.34642348684E+01  0.20030813948E+01  0.15767121814E+02  0.00000000000E+00 0.  1.
         12    1    4    4    0    0 -0.98068900179E+02 -0.55086717180E+02 -0.17659730026E+02  0.11385921858E+03  0.00000000000E+00 0. -1.
         -5    1    5    5    0  502 -0.21079967499E+02  0.51434824494E+02  0.28495814128E+03  0.29036724761E+03  0.47000000000E+01 0.  1.
         11    1    6    6    0    0  0.29360914349E+02  0.68301146049E+02  0.73539280244E+02  0.10457119863E+03  0.00000000000E+00 0. -1.
        -12    1    6    6    0    0  0.19516036563E+02 -0.23132935323E+02  0.38888894099E+02  0.49278336661E+02  0.00000000000E+00 0.  1.
<mgrwt>
<rscale>  2 0.20151687E+03</rscale>
<asrwt>0</asrwt>
<pdfrwt beam="1">  1       21 0.76135130E-01 0.20252373E+03</pdfrwt>
<pdfrwt beam="2">  1       21 0.24898257E-01 0.20252373E+03</pdfrwt>
<totfact> 0.23332612E+04</totfact>
</mgrwt>
</event>
<event>
12    1  0.1029207E-001  0.1891507E+03  0.7546771E-02  0.1159484E+00
         21   -1    0    0  501  502  0.00000000000E+00  0.00000000000E+00  0.98983156184E+03  0.98983156184E+03  0.00000000000E+00 0.  1.
         21   -1    0    0  502  503 -0.00000000000E+00 -0.00000000000E+00 -0.72999121233E+02  0.72999121233E+02  0.00000000000E+00 0.  1.
         -6    2    1    2    0  503  0.28801565749E+02 -0.66537561081E+02  0.80409345265E+02  0.20553258914E+03  0.17470319163E+03 0.  0.
        -24    2    3    3    0    0  0.50034263625E+01 -0.96655627198E+02  0.15315905752E+02  0.12981802507E+03  0.85151618414E+02 0.  0.
          6    2    1    2  501    0 -0.28801565749E+02  0.66537561081E+02  0.83642309534E+03  0.85729809394E+03  0.17349250768E+03 0.  0.
         24    2    5    5    0    0 -0.79457023118E+02  0.69353307384E+02  0.69248113280E+03  0.70460466785E+03  0.76251681349E+02 0.  0.
          5    1    5    5  501    0  0.50655457369E+02 -0.28157463024E+01  0.14394196254E+03  0.15269342609E+03  0.47000000000E+01 0. -1.
        -13    1    6    6    0    0 -0.63640632344E+01 -0.14114885217E+02  0.15629632560E+03  0.15706136598E+03  0.00000000000E+00 0.  1.
         14    1    6    6    0    0 -0.73092959884E+02  0.83468192601E+02  0.53618480720E+03  0.54754330187E+03  0.00000000000E+00 0. -1.
         -5    1    3    3    0  503  0.23798139386E+02  0.30118066117E+02  0.65093439513E+02  0.75714564071E+02  0.47000000000E+01 0.  1.
         13    1    4    4    0    0 -0.32938766597E+02 -0.46766967661E+02  0.31201486623E+02  0.65158609382E+02  0.00000000000E+00 0. -1.
        -14    1    4    4    0    0  0.37942192959E+02 -0.49888659537E+02 -0.15885580871E+02  0.64659415684E+02  0.00000000000E+00 0.  1.
<mgrwt>
<rscale>  2 0.18887066E+03</rscale>
<asrwt>0</asrwt>
<pdfrwt beam="1">  1       21 0.15228177E+00 0.18915069E+03</pdfrwt>
<pdfrwt beam="2">  1       21 0.11230635E-01 0.18915069E+03</pdfrwt>
<totfact> 0.19016871E+04</totfact>
</mgrwt>
</event>
<event>
12    1  0.1029207E-001  0.1827303E+03  0.7546771E-02  0.1165394E+00
         21   -1    0    0  501  502  0.00000000000E+00  0.00000000000E+00  0.36775311820E+04  0.36775311820E+04  0.00000000000E+00 0. -1.
         21   -1    0    0  502  503 -0.00000000000E+00 -0.00000000000E+00 -0.12280020490E+02  0.12280020490E+02  0.00000000000E+00 0. -1.
         -6    2    1    2    0  503  0.93750701433E+01  0.53756134485E+02  0.88765707538E+03  0.90627007083E+03  0.17439249947E+03 0.  0.
        -24    2    3    3    0    0  0.14217346649E+02  0.16079718156E+02  0.84464966394E+03  0.84869674864E+03  0.79952648967E+02 0.  0.
          6    2    1    2  501    0 -0.93750701433E+01 -0.53756134485E+02  0.27775940861E+04  0.27835411317E+04  0.17347827070E+03 0.  0.
         24    2    5    5    0    0  0.27305223140E+02  0.28806983815E+02  0.15578351669E+04  0.15604319692E+04  0.80759553812E+02 0.  0.
          5    1    5    5  501    0 -0.36680293283E+02 -0.82563118300E+02  0.12197589192E+04  0.12231091625E+04  0.47000000000E+01 0. -1.
        -11    1    6    6    0    0  0.29589343464E+02  0.26193451860E+02  0.15560074531E+04  0.15565091777E+04  0.00000000000E+00 0.  1.
         12    1    6    6    0    0 -0.22841203245E+01  0.26135319545E+01  0.18277138150E+01  0.39227914453E+01  0.00000000000E+00 0. -1.
         -5    1    3    3    0  503 -0.48422765055E+01  0.37676416329E+02  0.43007411443E+02  0.57573322192E+02  0.47000000000E+01 0.  1.
         11    1    4    4    0    0  0.31857388438E+02  0.24230765886E+01  0.13624596855E+03  0.13994187524E+03  0.00000000000E+00 0. -1.
        -12    1    4    4    0    0 -0.17640041789E+02  0.13656641567E+02  0.70840369538E+03  0.70875487340E+03  0.00000000000E+00 0.  1.
<mgrwt>
<rscale>  2 0.18251182E+03</rscale>
<asrwt>0</asrwt>
<pdfrwt beam="1">  1       21 0.56577315E+00 0.18273029E+03</pdfrwt>
<pdfrwt beam="2">  1       21 0.18892368E-02 0.18273029E+03</pdfrwt>
<totfact> 0.85819973E+02</totfact>
</mgrwt>
</event>
<event>
12    1  0.1029207E-001  0.3355553E+03  0.7546771E-02  0.1068913E+00
         21   -1    0    0  501  502  0.00000000000E+00  0.00000000000E+00  0.53710094945E+03  0.53710094945E+03  0.00000000000E+00 0.  1.
         21   -1    0    0  502  503 -0.00000000000E+00 -0.00000000000E+00 -0.40324628014E+03  0.40324628014E+03  0.00000000000E+00 0. -1.
         -6    2    1    2    0  503  0.27288805612E+03  0.78203043080E+02 -0.25996000475E+03  0.42296214460E+03  0.17531162134E+03 0.  0.
        -24    2    3    3    0    0  0.19584600918E+03  0.11895248634E+03 -0.16856434299E+03  0.29658472925E+03  0.83923837955E+02 0.  0.
          6    2    1    2  501    0 -0.27288805612E+03 -0.78203043080E+02  0.39381467406E+03  0.51738508498E+03  0.17892378695E+03 0.  0.
         24    2    5    5    0    0 -0.13902338248E+03 -0.10041113080E+03  0.16545517578E+03  0.25171028290E+03  0.81072530844E+02 0.  0.
          5    1    5    5  501    0 -0.13386467364E+03  0.22208087722E+02  0.22835949828E+03  0.26567480208E+03  0.47000000000E+01 0. -1.
        -13    1    6    6    0    0 -0.66249486235E+02 -0.23553313247E+01  0.72548207960E+02  0.98274027547E+02  0.00000000000E+00 0.  1.
         14    1    6    6    0    0 -0.72773896248E+02 -0.98055799477E+02  0.92906967822E+02  0.15343625535E+03  0.00000000000E+00 0. -1.
         -5    1    3    3    0  503  0.77042046939E+02 -0.40749443261E+02 -0.91395661762E+02  0.12637741535E+03  0.47000000000E+01 0.  1.
         11    1    4    4    0    0  0.89712331070E+02  0.10027000364E+03 -0.11091175067E+03  0.17436683289E+03  0.00000000000E+00 0. -1.
        -12    1    4    4    0    0  0.10613367811E+03  0.18682482705E+02 -0.57652592322E+02  0.12221789636E+03  0.00000000000E+00 0.  1.
<mgrwt>
<rscale>  2 0.33507621E+03</rscale>
<asrwt>0</asrwt>
<pdfrwt beam="1">  1       21 0.82630916E-01 0.33555525E+03</pdfrwt>
<pdfrwt beam="2">  1       21 0.62037889E-01 0.33555525E+03</pdfrwt>
<totfact> 0.28084299E+03</totfact>
</mgrwt>
</event>
<event>
12    1  0.1029207E-001  0.1888168E+03  0.7546771E-02  0.1159626E+00
         21   -1    0    0  501  502  0.00000000000E+00  0.00000000000E+00  0.27908975085E+03  0.27908975085E+03  0.00000000000E+00 0. -1.
         21   -1    0    0  502  503 -0.00000000000E+00 -0.00000000000E+00 -0.18416909666E+03  0.18416909666E+03  0.00000000000E+00 0. -1.
         -6    2    1    2    0  503 -0.54617750224E+02  0.50593982106E+02 -0.81100325139E+02  0.20512094708E+03  0.17307365636E+03 0.  0.
        -24    2    3    3    0    0 -0.61474804647E+02  0.92035292610E+02 -0.35579713653E+02  0.14300317602E+03  0.83272718430E+02 0.  0.
          6    2    1    2  501    0  0.54617750224E+02 -0.50593982106E+02  0.17602097932E+03  0.25813790043E+03  0.17351928081E+03 0.  0.
         24    2    5    5    0    0  0.16953191738E+02  0.21494627399E+02  0.28281942606E+02  0.89424238993E+02  0.80295681856E+02 0.  0.
          5    1    5    5  501    0  0.37664558486E+02 -0.72088609505E+02  0.14773903672E+03  0.16871366144E+03  0.47000000000E+01 0. -1.
        -13    1    6    6    0    0  0.34390112147E+02  0.40325617052E+01  0.47052137052E+02  0.58419559811E+02  0.00000000000E+00 0.  1.
         14    1    6    6    0    0 -0.17436920409E+02  0.17462065693E+02 -0.18770194446E+02  0.31004679182E+02  0.00000000000E+00 0. -1.
         -5    1    3    3    0  503  0.68570544227E+01 -0.41441310504E+02 -0.45520611486E+02  0.62117771062E+02  0.47000000000E+01 0.  1.
         11    1    4    4    0    0 -0.78278848122E+02  0.64266435166E+02 -0.42466278908E+02  0.10982321065E+03  0.00000000000E+00 0. -1.
        -12    1    4    4    0    0  0.16804043476E+02  0.27768857444E+02  0.68865652553E+01  0.33179965369E+02  0.00000000000E+00 0.  1.
<mgrwt>
<rscale>  2 0.18871437E+03</rscale>
<asrwt>0</asrwt>
<pdfrwt beam="1">  1       21 0.42936885E-01 0.18881682E+03</pdfrwt>
<pdfrwt beam="2">  1       21 0.28333707E-01 0.18881682E+03</pdfrwt>
<totfact> 0.62219487E+04</totfact>
</mgrwt>
</event>
<event>
12    1  0.1029207E-001  0.1901080E+03  0.7546771E-02  0.1158599E+00
         21   -1    0    0  501  502  0.00000000000E+00  0.00000000000E+00  0.66018609584E+02  0.66018609584E+02  0.00000000000E+00 0. -1.
         21   -1    0    0  502  503 -0.00000000000E+00 -0.00000000000E+00 -0.54965789801E+03  0.54965789801E+03  0.00000000000E+00 0. -1.
         -6    2    1    2    0  503  0.41179005846E+02 -0.66170359944E+02 -0.21117168974E+03  0.28344220587E+03  0.17225496935E+03 0.  0.
        -24    2    3    3    0    0  0.62877972022E+02 -0.10276542126E+03 -0.14535321973E+03  0.20492975693E+03  0.79713710342E+02 0.  0.
          6    2    1    2  501    0 -0.41179005846E+02  0.66170359944E+02 -0.27246759869E+03  0.33223430172E+03  0.17339784268E+03 0.  0.
         24    2    5    5    0    0 -0.43924985484E+02  0.90333149151E+02 -0.11810256875E+03  0.17589482093E+03  0.83073997730E+02 0.  0.
          5    1    5    5  501    0  0.27459796384E+01 -0.24162789207E+02 -0.15436502994E+03  0.15633948079E+03  0.47000000000E+01 0. -1.
        -13    1    6    6    0    0 -0.45962785295E+02  0.78769821940E+01 -0.31355383878E+02  0.56194168547E+02  0.00000000000E+00 0.  1.
         14    1    6    6    0    0  0.20377998112E+01  0.82456166958E+02 -0.86747184872E+02  0.11970065238E+03  0.00000000000E+00 0. -1.
         -5    1    3    3    0  503 -0.21698966176E+02  0.36595061312E+02 -0.65818470006E+02  0.78512448946E+02  0.47000000000E+01 0.  1.
         13    1    4    4    0    0  0.15961228822E+02 -0.33063456521E+02  0.37322530211E+00  0.36716376179E+02  0.00000000000E+00 0. -1.
        -14    1    4    4    0    0  0.46916743200E+02 -0.69701964736E+02 -0.14572644504E+03  0.16821338075E+03  0.00000000000E+00 0.  1.
<mgrwt>
<rscale>  2 0.18984697E+03</rscale>
<asrwt>0</asrwt>
<pdfrwt beam="1">  1       21 0.10156709E-01 0.19010797E+03</pdfrwt>
<pdfrwt beam="2">  1       21 0.84562755E-01 0.19010797E+03</pdfrwt>
<totfact> 0.95818732E+04</totfact>
</mgrwt>
</event>
<event>
12    1  0.1029207E-001  0.1765169E+03  0.7546771E-02  0.1173691E+00
         21   -1    0    0  501  502  0.00000000000E+00  0.00000000000E+00  0.13897492646E+03  0.13897492646E+03  0.00000000000E+00 0.  1.
         21   -1    0    0  502  503 -0.00000000000E+00 -0.00000000000E+00 -0.10536270620E+04  0.10536270620E+04  0.00000000000E+00 0.  1.
         -6    2    1    2    0  503  0.24866836734E+02 -0.23461769485E+02 -0.98760834022E+03  0.10016024719E+04  0.16330481873E+03 0.  0.
        -24    2    3    3    0    0  0.76424245147E+02 -0.23922543201E+02 -0.74026912935E+03  0.74890274116E+03  0.80274395241E+02 0.  0.
          6    2    1    2  501    0 -0.24866836734E+02  0.23461769485E+02  0.72956204715E+02  0.19099951654E+03  0.17317445919E+03 0.  0.
         24    2    5    5    0    0  0.22691440649E+01 -0.43216540921E+02  0.76628707604E+02  0.11876423561E+03  0.79750651458E+02 0.  0.
          5    1    5    5  501    0 -0.27135980799E+02  0.66678310406E+02 -0.36725028892E+01  0.72235280923E+02  0.47000000000E+01 0. -1.
        -13    1    6    6    0    0  0.20261448165E+02 -0.17315317934E+02  0.82488391982E+02  0.86687261629E+02  0.00000000000E+00 0.  1.
         14    1    6    6    0    0 -0.17992304100E+02 -0.25901222987E+02 -0.58596843777E+01  0.32076973986E+02  0.00000000000E+00 0. -1.
         -5    1    3    3    0  503 -0.51557408413E+02  0.46077371530E+00 -0.24733921087E+03  0.25269973072E+03  0.47000000000E+01 0.  1.
         13    1    4    4    0    0  0.67987422406E+02 -0.10463034198E+02 -0.27881070383E+03  0.28717098262E+03  0.00000000000E+00 0. -1.
        -14    1    4    4    0    0  0.84368227409E+01 -0.13459509002E+02 -0.46145842552E+03  0.46173175854E+03  0.00000000000E+00 0.  1.
<mgrwt>
<rscale>  2 0.17404759E+03</rscale>
<asrwt>0</asrwt>
<pdfrwt beam="1">  1       21 0.21380758E-01 0.17651688E+03</pdfrwt>
<pdfrwt beam="2">  1       21 0.16209647E+00 0.17651688E+03</pdfrwt>
<totfact> 0.50206945E+03</totfact>
</mgrwt>
</event>
<event>
12    1  0.1029207E-001  0.2892910E+03  0.7546771E-02  0.1090854E+00
         21   -1    0    0  501  502  0.00000000000E+00  0.00000000000E+00  0.54701522022E+02  0.54701522022E+02  0.00000000000E+00 0.  1.
         21   -1    0    0  502  503 -0.00000000000E+00 -0.00000000000E+00 -0.15254213419E+04  0.15254213419E+04  0.00000000000E+00 0. -1.
         -6    2    1    2    0  503  0.20594485862E+03 -0.10335826357E+03 -0.75567473555E+03  0.80915611187E+03  0.17490881048E+03 0.  0.
        -24    2    3    3    0    0  0.40648657653E+02  0.42609500388E+00 -0.29542919197E+03  0.30921403770E+03  0.81746062392E+02 0.  0.
          6    2    1    2  501    0 -0.20594485862E+03  0.10335826357E+03 -0.71504508433E+03  0.77096675205E+03  0.17321675644E+03 0.  0.
         24    2    5    5    0    0 -0.48166935412E+02  0.97610963179E+02 -0.22499642541E+03  0.25609134711E+03  0.55780218858E+02 0.  0.
          5    1    5    5  501    0 -0.15777792321E+03  0.57473003946E+01 -0.49004865891E+03  0.51487540494E+03  0.47000000000E+01 0. -1.
        -13    1    6    6    0    0 -0.36132479392E+02  0.31005979896E+02 -0.13725094963E+03  0.14527473983E+03  0.00000000000E+00 0.  1.
         14    1    6    6    0    0 -0.12034456020E+02  0.66604983283E+02 -0.87745475777E+02  0.11081660728E+03  0.00000000000E+00 0. -1.
         -5    1    3    3    0  503  0.16529620096E+03 -0.10378435858E+03 -0.46024554358E+03  0.49994207417E+03  0.47000000000E+01 0.  1.
         13    1    4    4    0    0  0.44840579007E+02 -0.14215568852E+02 -0.28879663279E+03  0.29260255473E+03  0.00000000000E+00 0. -1.
        -14    1    4    4    0    0 -0.41919213537E+01  0.14641663855E+02 -0.66325591748E+01  0.16611482965E+02  0.00000000000E+00 0.  1.
<mgrwt>
<rscale>  2 0.28903573E+03</rscale>
<asrwt>0</asrwt>
<pdfrwt beam="1">  1       21 0.84156189E-02 0.28929104E+03</pdfrwt>
<pdfrwt beam="2">  1       21 0.23468020E+00 0.28929104E+03</pdfrwt>
<totfact> 0.83565301E+03</totfact>
</mgrwt>
</event>
<event>
12    1  0.1029207E-001  0.2255590E+03  0.7546771E-02  0.1129837E+00
         21   -1    0    0  503  502  0.00000000000E+00  0.00000000000E+00  0.34016423996E+03  0.34016423996E+03  0.00000000000E+00 0. -1.
         21   -1    0    0  501  503 -0.00000000000E+00 -0.00000000000E+00 -0.15473111215E+03  0.15473111215E+03  0.00000000000E+00 0.  1.
          6    2    1    2  501    0  0.18316845601E+02  0.14412558679E+03  0.47028645199E+02  0.23040955588E+03  0.17253746947E+03 0.  0.
         24    2    3    3    0    0  0.37304261142E+02  0.19529842604E+02  0.51100750267E+02  0.10422202299E+03  0.80485531284E+02 0.  0.
         -6    2    1    2    0  502 -0.18316845601E+02 -0.14412558679E+03  0.13840448261E+03  0.26448579622E+03  0.17230567024E+03 0.  0.
        -24    2    5    5    0    0 -0.73664220485E+01 -0.10165638297E+03  0.16665436061E+03  0.21210554559E+03  0.82624464825E+02 0.  0.
          5    1    3    3  501    0 -0.18987415541E+02  0.12459574419E+03 -0.40721050676E+01  0.12618753290E+03  0.47000000000E+01 0. -1.
        -13    1    4    4    0    0  0.13500179750E+02  0.34480999860E+02 -0.87934782923E+01  0.38059420189E+02  0.00000000000E+00 0.  1.
         14    1    4    4    0    0  0.23804081392E+02 -0.14951157257E+02  0.59894228559E+02  0.66162602797E+02  0.00000000000E+00 0. -1.
         -5    1    5    5    0  502 -0.10950423552E+02 -0.42469203819E+02 -0.28249878003E+02  0.52380250632E+02  0.47000000000E+01 0.  1.
         11    1    6    6    0    0 -0.73880962818E+01 -0.26265088342E+02  0.12084738627E+03  0.12388918275E+03  0.00000000000E+00 0. -1.
        -12    1    6    6    0    0  0.21674233249E-01 -0.75391294631E+02  0.45806974336E+02  0.88216362846E+02  0.00000000000E+00 0.  1.
<mgrwt>
<rscale>  2 0.22551469E+03</rscale>
<asrwt>0</asrwt>
<pdfrwt beam="1">  1       21 0.52332960E-01 0.22555902E+03</pdfrwt>
<pdfrwt beam="2">  1       21 0.23804787E-01 0.22555902E+03</pdfrwt>
<totfact> 0.56737259E+04</totfact>
</mgrwt>
</event>
<event>
12    1  0.1029207E-001  0.1859759E+03  0.7546771E-02  0.1164127E+00
         21   -1    0    0  501  502  0.00000000000E+00  0.00000000000E+00  0.69910608403E+02  0.69910608403E+02  0.00000000000E+00 0.  1.
         21   -1    0    0  502  503 -0.00000000000E+00 -0.00000000000E+00 -0.68906546673E+03  0.68906546673E+03  0.00000000000E+00 0.  1.
         -6    2    1    2    0  503  0.27199180041E+02  0.36004243214E+02 -0.51727883315E+03  0.54692478335E+03  0.17179413985E+03 0.  0.
        -24    2    3    3    0    0  0.78589669058E+01  0.50102458082E+02 -0.14062007581E+03  0.16947715388E+03  0.79852866574E+02 0.  0.
          6    2    1    2  501    0 -0.27199180041E+02 -0.36004243214E+02 -0.10187602517E+03  0.21205129178E+03  0.18041874880E+03 0.  0.
         24    2    5    5    0    0 -0.33897121598E+02 -0.93762598861E+02 -0.75754736962E+02  0.14813492638E+03  0.79150088090E+02 0.  0.
          5    1    5    5  501    0  0.66979415564E+01  0.57758355648E+02 -0.26121288211E+02  0.63916365401E+02  0.47000000000E+01 0. -1.
        -13    1    6    6    0    0 -0.16939178317E+02 -0.39509628714E+02  0.11041030179E+02  0.44383002046E+02  0.00000000000E+00 0.  1.
         14    1    6    6    0    0 -0.16957943280E+02 -0.54252970147E+02 -0.86795767141E+02  0.10375192434E+03  0.00000000000E+00 0. -1.
         -5    1    3    3    0  503  0.19340213136E+02 -0.14098214868E+02 -0.37665875734E+03  0.37744762947E+03  0.47000000000E+01 0.  1.
         13    1    4    4    0    0 -0.32305909473E+01  0.70898598951E+02 -0.10805000744E+03  0.12927432908E+03  0.00000000000E+00 0. -1.
        -14    1    4    4    0    0  0.11089557853E+02 -0.20796140869E+02 -0.32570068373E+02  0.40202824804E+02  0.00000000000E+00 0.  1.
<mgrwt>
<rscale>  2 0.18385109E+03</rscale>
<asrwt>0</asrwt>
<pdfrwt beam="1">  1       21 0.10755478E-01 0.18597587E+03</pdfrwt>
<pdfrwt beam="2">  1       21 0.10601007E+00 0.18597587E+03</pdfrwt>
<totfact> 0.51096358E+04</totfact>
</mgrwt>
</event>
<event>
12    1  0.1029207E-001  0.2134964E+03  0.7546771E-02  0.1139741E+00
         21   -1    0    0  503  502  0.00000000000E+00  0.00000000000E+00  0.57261300130E+03  0.57261300130E+03  0.00000000000E+00 0. -1.
         21   -1    0    0  501  503 -0.00000000000E+00 -0.00000000000E+00 -0.11141003893E+03  0.11141003893E+03  0.00000000000E+00 0. -1.
          6    2    1    2  501    0 -0.80903379875E+02  0.96361694279E+02  0.41179697058E+02  0.21285399386E+03  0.16667369994E+03 0.  0.
         24    2    3    3    0    0 -0.45137970314E+02 -0.99114913327E+01  0.43894747408E+02  0.10059262027E+03  0.77823212340E+02 0.  0.
         -6    2    1    2    0  502  0.80903379875E+02 -0.96361694279E+02  0.42002326531E+03  0.47116904637E+03  0.17248128553E+03 0.  0.
        -24    2    5    5    0    0  0.10070531677E+03 -0.15525478743E+02  0.22762523875E+03  0.26148904954E+03  0.78617252553E+02 0.  0.
          5    1    3    3  501    0 -0.35765409561E+02  0.10627318561E+03 -0.27150503494E+01  0.11226137359E+03  0.47000000000E+01 0. -1.
        -13    1    4    4    0    0  0.18830861657E+02 -0.16199724780E+02  0.20443812657E+02  0.32171134728E+02  0.00000000000E+00 0.  1.
         14    1    4    4    0    0 -0.63968831971E+02  0.62882334478E+01  0.23450934750E+02  0.68421485546E+02  0.00000000000E+00 0. -1.
         -5    1    5    5    0  502 -0.19801936892E+02 -0.80836215536E+02  0.19239802656E+03  0.20967999683E+03  0.47000000000E+01 0.  1.
         11    1    6    6    0    0  0.47658661276E+02  0.93999502729E+01  0.17856721437E+03  0.18505663216E+03  0.00000000000E+00 0. -1.
        -12    1    6    6    0    0  0.53046655492E+02 -0.24925429016E+02  0.49058024383E+02  0.76432417382E+02  0.00000000000E+00 0.  1.
<mgrwt>
<rscale>  2 0.21232080E+03</rscale>
<asrwt>0</asrwt>
<pdfrwt beam="1">  1       21 0.88094306E-01 0.21349643E+03</pdfrwt>
<pdfrwt beam="2">  1       21 0.17140006E-01 0.21349643E+03</pdfrwt>
<totfact> 0.33538445E+04</totfact>
</mgrwt>
</event>
<event>
12    1  0.1029207E-001  0.1839038E+03  0.7546771E-02  0.1164733E+00
         21   -1    0    0  503  502  0.00000000000E+00  0.00000000000E+00  0.10492945989E+03  0.10492945989E+03  0.00000000000E+00 0.  1.
         21   -1    0    0  501  503 -0.00000000000E+00 -0.00000000000E+00 -0.32482790910E+03  0.32482790910E+03  0.00000000000E+00 0.  1.
          6    2    1    2  501    0 -0.21230949648E+02 -0.57610628628E+02 -0.14142553896E+03  0.22981085338E+03  0.17041745072E+03 0.  0.
         24    2    3    3    0    0 -0.39340115803E+02 -0.29722567773E+02 -0.20437188469E+02  0.10424829212E+03  0.89548601279E+02 0.  0.
         -6    2    1    2    0  502  0.21230949648E+02  0.57610628628E+02 -0.78472910263E+02  0.19994651561E+03  0.17335187829E+03 0.  0.
        -24    2    5    5    0    0  0.71049372961E+02  0.79680672418E+01 -0.23510017168E+02  0.11056380576E+03  0.80994634040E+02 0.  0.
          5    1    3    3  501    0  0.18109166155E+02 -0.27888060855E+02 -0.12098835049E+03  0.12556256126E+03  0.47000000000E+01 0. -1.
        -13    1    4    4    0    0 -0.45633018683E+02 -0.15390721353E+02 -0.50855199496E+02  0.70039260516E+02  0.00000000000E+00 0.  1.
         14    1    4    4    0    0  0.62929028806E+01 -0.14331846420E+02  0.30418011027E+02  0.34209031604E+02  0.00000000000E+00 0. -1.
         -5    1    5    5    0  502 -0.49818423314E+02  0.49642561386E+02 -0.54962893095E+02  0.89382709848E+02  0.47000000000E+01 0.  1.
         11    1    6    6    0    0  0.28916052003E+02 -0.29416577491E+02 -0.33769762751E+02  0.53309192181E+02  0.00000000000E+00 0. -1.
        -12    1    6    6    0    0  0.42133320958E+02  0.37384644733E+02  0.10259745582E+02  0.57254613580E+02  0.00000000000E+00 0.  1.
<mgrwt>
<rscale>  2 0.18320903E+03</rscale>
<asrwt>0</asrwt>
<pdfrwt beam="1">  1       21 0.16142994E-01 0.18390381E+03</pdfrwt>
<pdfrwt beam="2">  1       21 0.49973524E-01 0.18390381E+03</pdfrwt>
<totfact> 0.13125163E+05</totfact>
</mgrwt>
</event>
<event>
12    1  0.1029207E-001  0.1784303E+03  0.7546771E-02  0.1169404E+00
         21   -1    0    0  503  502  0.00000000000E+00  0.00000000000E+00  0.47160151838E+02  0.47160151838E+02  0.00000000000E+00 0.  1.
         21   -1    0    0  501  503 -0.00000000000E+00 -0.00000000000E+00 -0.78975182184E+03  0.78975182184E+03  0.00000000000E+00 0.  1.
          6    2    1    2  501    0 -0.33442738615E+02  0.19474606302E+02 -0.53178898257E+03  0.56092504548E+03  0.17418297163E+03 0.  0.
         24    2    3    3    0    0 -0.84356235301E+02  0.21802980350E+01 -0.33001884496E+03  0.35206012340E+03  0.88955968469E+02 0.  0.
         -6    2    1    2    0  502  0.33442738615E+02 -0.19474606302E+02 -0.21080268743E+03  0.27598692820E+03  0.17387735463E+03 0.  0.
        -24    2    5    5    0    0 -0.16005406076E+02 -0.56370170811E+02 -0.18505770709E+03  0.20896979825E+03  0.77383799632E+02 0.  0.
          5    1    3    3  501    0  0.50913496686E+02  0.17294308267E+02 -0.20177013761E+03  0.20886492208E+03  0.47000000000E+01 0. -1.
        -13    1    4    4    0    0 -0.49491361349E+02 -0.42472968109E+02 -0.15716637661E+03  0.17016056478E+03  0.00000000000E+00 0.  1.
         14    1    4    4    0    0 -0.34864873952E+02  0.44653266144E+02 -0.17285246835E+03  0.18189955862E+03  0.00000000000E+00 0. -1.
         -5    1    5    5    0  502  0.49448144691E+02  0.36895564509E+02 -0.25744980336E+02  0.67017129947E+02  0.47000000000E+01 0.  1.
         11    1    6    6    0    0 -0.24044003458E+02  0.10448539324E+02 -0.80166535863E+02  0.84344291737E+02  0.00000000000E+00 0. -1.
        -12    1    6    6    0    0  0.80385973822E+01 -0.66818710134E+02 -0.10489117123E+03  0.12462550651E+03  0.00000000000E+00 0.  1.
<mgrwt>
<rscale>  2 0.17835571E+03</rscale>
<asrwt>0</asrwt>
<pdfrwt beam="1">  1       21 0.72554087E-02 0.17843034E+03</pdfrwt>
<pdfrwt beam="2">  1       21 0.12150027E+00 0.17843034E+03</pdfrwt>
<totfact> 0.73295685E+04</totfact>
</mgrwt>
</event>
<event>
12    1  0.1029207E-001  0.1950631E+03  0.7546771E-02  0.1154762E+00
         21   -1    0    0  501  502  0.00000000000E+00  0.00000000000E+00  0.54722223059E+03  0.54722223059E+03  0.00000000000E+00 0. -1.
         21   -1    0    0  502  503 -0.00000000000E+00 -0.00000000000E+00 -0.76342230168E+02  0.76342230168E+02  0.00000000000E+00 0. -1.
         -6    2    1    2    0  503 -0.36736264358E+02  0.74377322621E+02  0.13203473218E+03  0.23258398325E+03  0.17257056389E+03 0.  0.
        -24    2    3    3    0    0 -0.40118965873E+02 -0.82525288541E+00  0.13099051803E+03  0.15715156041E+03  0.76992757189E+02 0.  0.
          6    2    1    2  501    0  0.36736264358E+02 -0.74377322621E+02  0.33884526824E+03  0.39098047751E+03  0.17654483495E+03 0.  0.
         24    2    5    5    0    0 -0.45703409169E+02 -0.47655921887E+02  0.22366565081E+03  0.24676270017E+03  0.80657413451E+02 0.  0.
          5    1    5    5  501    0  0.82439673527E+02 -0.26721400735E+02  0.11517961744E+03  0.14421777734E+03  0.47000000000E+01 0. -1.
        -13    1    6    6    0    0 -0.86799015543E+01 -0.47968870390E+02  0.52515465439E+02  0.71653522787E+02  0.00000000000E+00 0.  1.
         14    1    6    6    0    0 -0.37023507614E+02  0.31294850368E+00  0.17115018537E+03  0.17510917738E+03  0.00000000000E+00 0. -1.
         -5    1    3    3    0  503  0.33827015149E+01  0.75202575507E+02  0.10442141508E+01  0.75432422841E+02  0.47000000000E+01 0.  1.
         13    1    4    4    0    0 -0.13840922854E+02  0.30884895454E+02  0.21311269188E+02  0.39995226054E+02  0.00000000000E+00 0. -1.
        -14    1    4    4    0    0 -0.26278043020E+02 -0.31710148340E+02  0.10967924884E+03  0.11715633435E+03  0.00000000000E+00 0.  1.
<mgrwt>
<rscale>  2 0.19415947E+03</rscale>
<asrwt>0</asrwt>
<pdfrwt beam="1">  1       21 0.84188033E-01 0.19506311E+03</pdfrwt>
<pdfrwt beam="2">  1       21 0.11744959E-01 0.19506311E+03</pdfrwt>
<totfact> 0.74610686E+04</totfact>
</mgrwt>
</event>
<event>
12    1  0.1029207E-001  0.2436502E+03  0.7546771E-02  0.1117516E+00
         21   -1    0    0  503  502  0.00000000000E+00  0.00000000000E+00  0.16977622933E+03  0.16977622933E+03  0.00000000000E+00 0.  1.
         21   -1    0    0  501  503 -0.00000000000E+00 -0.00000000000E+00 -0.47100302760E+03  0.47100302760E+03  0.00000000000E+00 0.  1.
          6    2    1    2  501    0  0.28786221147E+02  0.16879557617E+03 -0.31417974450E+03  0.39758565462E+03  0.17333449698E+03 0.  0.
         24    2    3    3    0    0  0.10421032862E+02  0.10102140961E+03 -0.77986315319E+02  0.15113070177E+03  0.80278892096E+02 0.  0.
         -6    2    1    2    0  502 -0.28786221147E+02 -0.16879557617E+03  0.12952946228E+02  0.24319360231E+03  0.17220556416E+03 0.  0.
        -24    2    5    5    0    0  0.40848314341E+02 -0.94463326797E+02  0.41503600093E+02  0.13730931799E+03  0.80866526408E+02 0.  0.
          5    1    3    3  501    0  0.18365188285E+02  0.67774166559E+02 -0.23619342918E+03  0.24645495284E+03  0.47000000000E+01 0. -1.
        -11    1    4    4    0    0  0.51802240458E+01  0.10508248397E+03 -0.89312375968E+02  0.13800675222E+03  0.00000000000E+00 0.  1.
         12    1    4    4    0    0  0.52408088161E+01 -0.40610743585E+01  0.11326060649E+02  0.13123949551E+02  0.00000000000E+00 0. -1.
         -5    1    5    5    0  502 -0.69634535487E+02 -0.74332249372E+02 -0.28550653865E+02  0.10588428432E+03  0.47000000000E+01 0.  1.
         13    1    6    6    0    0 -0.96883257103E+01  0.11397342337E+01  0.26370806092E+02  0.28117291177E+02  0.00000000000E+00 0. -1.
        -14    1    6    6    0    0  0.50536640051E+02 -0.95603061031E+02  0.15132794001E+02  0.10919202682E+03  0.00000000000E+00 0.  1.
<mgrwt>
<rscale>  2 0.24344954E+03</rscale>
<asrwt>0</asrwt>
<pdfrwt beam="1">  1       21 0.26119420E-01 0.24365024E+03</pdfrwt>
<pdfrwt beam="2">  1       21 0.72462004E-01 0.24365024E+03</pdfrwt>
<totfact> 0.23258910E+04</totfact>
</mgrwt>
</event>
<event>
12    1  0.1029207E-001  0.2174261E+03  0.7546771E-02  0.1136350E+00
         21   -1    0    0  503  502  0.00000000000E+00  0.00000000000E+00  0.75868739961E+02  0.75868739961E+02  0.00000000000E+00 0.  1.
         21   -1    0    0  501  503 -0.00000000000E+00 -0.00000000000E+00 -0.65676167503E+03  0.65676167503E+03  0.00000000000E+00 0. -1.
          6    2    1    2  501    0 -0.11730270988E+03  0.61110411608E+02 -0.19995950470E+03  0.29539451050E+03  0.17256797258E+03 0.  0.
         24    2    3    3    0    0 -0.25580492737E+02  0.86733655965E+02 -0.12334217759E+03  0.17307598948E+03  0.81024173418E+02 0.  0.
         -6    2    1    2    0  502  0.11730270988E+03 -0.61110411608E+02 -0.38093343036E+03  0.43723590449E+03  0.16902825107E+03 0.  0.
        -24    2    5    5    0    0  0.10225031235E+02  0.99998847727E+01 -0.19168835654E+03  0.20841699907E+03  0.80552284309E+02 0.  0.
          5    1    3    3  501    0 -0.91722217139E+02 -0.25623244357E+02 -0.76617327118E+02  0.12231852101E+03  0.47000000000E+01 0. -1.
        -11    1    4    4    0    0 -0.27090424852E+02  0.45878487832E+02 -0.12207906143E+02  0.54660403738E+02  0.00000000000E+00 0.  1.
         12    1    4    4    0    0  0.15099321150E+01  0.40855168133E+02 -0.11113427144E+03  0.11841558575E+03  0.00000000000E+00 0. -1.
         -5    1    5    5    0  502  0.10707767864E+03 -0.71110296381E+02 -0.18924507382E+03  0.22881890542E+03  0.47000000000E+01 0.  1.
         11    1    6    6    0    0 -0.27495177906E+02  0.14940952072E+02 -0.34015901888E+02  0.46220108591E+02  0.00000000000E+00 0. -1.
        -12    1    6    6    0    0  0.37720209141E+02 -0.49410672995E+01 -0.15767245465E+03  0.16219689048E+03  0.00000000000E+00 0.  1.
<mgrwt>
<rscale>  2 0.21672305E+03</rscale>
<asrwt>0</asrwt>
<pdfrwt beam="1">  1       21 0.11672114E-01 0.21742611E+03</pdfrwt>
<pdfrwt beam="2">  1       21 0.10104026E+00 0.21742611E+03</pdfrwt>
<totfact> 0.48775992E+04</totfact>
</mgrwt>
</event>
<event>
12    1  0.1029207E-001  0.3898538E+03  0.7546771E-02  0.1047551E+00
         21   -1    0    0  501  502  0.00000000000E+00  0.00000000000E+00  0.12315124850E+03  0.12315124850E+03  0.00000000000E+00 0.  1.
         21   -1    0    0  502  503 -0.00000000000E+00 -0.00000000000E+00 -0.12291989319E+04  0.12291989319E+04  0.00000000000E+00 0. -1.
         -6    2    1    2    0  503 -0.34474272624E+03  0.54609316215E+02 -0.52347029993E+03  0.65136343994E+03  0.16859255996E+03 0.  0.
        -24    2    3    3    0    0 -0.20911606729E+03 -0.21099631306E+02 -0.24306555499E+03  0.33077749774E+03  0.78473976254E+02 0.  0.
          6    2    1    2  501    0  0.34474272624E+03 -0.54609316215E+02 -0.58257738349E+03  0.70098674047E+03  0.17365563004E+03 0.  0.
         24    2    5    5    0    0  0.17306722284E+03  0.37615499809E+02 -0.30616932691E+03  0.36275398200E+03  0.80520837488E+02 0.  0.
          5    1    5    5  501    0  0.17167550340E+03 -0.92224816024E+02 -0.27640805658E+03  0.33823275847E+03  0.47000000000E+01 0. -1.
        -13    1    6    6    0    0  0.49579983669E+02  0.87914383388E+01 -0.16723523552E+03  0.17465133314E+03  0.00000000000E+00 0.  1.
         14    1    6    6    0    0  0.12348723917E+03  0.28824061470E+02 -0.13893409139E+03  0.18810264886E+03  0.00000000000E+00 0. -1.
         -5    1    3    3    0  503 -0.13562665895E+03  0.75708947521E+02 -0.28040474494E+03  0.32058594220E+03  0.47000000000E+01 0.  1.
         13    1    4    4    0    0 -0.19187817141E+02  0.22012252922E+02 -0.38572510490E+02  0.48379232847E+02  0.00000000000E+00 0. -1.
        -14    1    4    4    0    0 -0.18992825015E+03 -0.43111884228E+02 -0.20449304450E+03  0.28239826489E+03  0.00000000000E+00 0.  1.
<mgrwt>
<rscale>  2 0.38929543E+03</rscale>
<asrwt>0</asrwt>
<pdfrwt beam="1">  1       21 0.18946346E-01 0.38985382E+03</pdfrwt>
<pdfrwt beam="2">  1       21 0.18910753E+00 0.38985382E+03</pdfrwt>
<totfact> 0.35486688E+03</totfact>
</mgrwt>
</event>
<event>
12    1  0.1029207E-001  0.2485105E+03  0.7546771E-02  0.1114265E+00
         21   -1    0    0  503  502  0.00000000000E+00  0.00000000000E+00  0.48367161000E+02  0.48367161000E+02  0.00000000000E+00 0.  1.
         21   -1    0    0  501  503 -0.00000000000E+00 -0.00000000000E+00 -0.16878720536E+04  0.16878720536E+04  0.00000000000E+00 0. -1.
          6    2    1    2  501    0 -0.17722945974E+03  0.25615701215E+02 -0.12482850931E+04  0.12727627755E+04  0.17217132022E+03 0.  0.
         24    2    3    3    0    0 -0.98296956961E+02  0.52584264258E+02 -0.45534493725E+03  0.47543359370E+03  0.79187710855E+02 0.  0.
         -6    2    1    2    0  502  0.17722945974E+03 -0.25615701215E+02 -0.39121979953E+03  0.46347643912E+03  0.17231086016E+03 0.  0.
        -24    2    5    5    0    0  0.16828928854E+03 -0.13885618288E+02 -0.40249182252E+03  0.44432780969E+03  0.83147099986E+02 0.  0.
          5    1    3    3  501    0 -0.78932502782E+02 -0.26968563043E+02 -0.79294015587E+03  0.79732918182E+03  0.47000000000E+01 0. -1.
        -11    1    4    4    0    0 -0.60778269977E+02  0.60759021814E+02 -0.39240013653E+03  0.40170078912E+03  0.00000000000E+00 0.  1.
         12    1    4    4    0    0 -0.37518686984E+02 -0.81747575553E+01 -0.62944800716E+02  0.73732804580E+02  0.00000000000E+00 0. -1.
         -5    1    5    5    0  502  0.89401712033E+01 -0.11730082927E+02  0.11272022995E+02  0.19148629429E+02  0.47000000000E+01 0.  1.
         11    1    6    6    0    0  0.91886834170E+02  0.33625999307E+02 -0.22420650508E+03  0.24462717561E+03  0.00000000000E+00 0. -1.
        -12    1    6    6    0    0  0.76402454370E+02 -0.47511617595E+02 -0.17828531744E+03  0.19970063409E+03  0.00000000000E+00 0.  1.
<mgrwt>
<rscale>  2 0.24848633E+03</rscale>
<asrwt>0</asrwt>
<pdfrwt beam="1">  1       21 0.74411011E-02 0.24851052E+03</pdfrwt>
<pdfrwt beam="2">  1       21 0.25967265E+00 0.24851052E+03</pdfrwt>
<totfact> 0.75524894E+03</totfact>
</mgrwt>
</event>
<event>
12    1  0.1029207E-001  0.1755762E+03  0.7546771E-02  0.1172232E+00
         21   -1    0    0  503  502  0.00000000000E+00  0.00000000000E+00  0.59518496991E+03  0.59518496991E+03  0.00000000000E+00 0.  1.
         21   -1    0    0  501  503 -0.00000000000E+00 -0.00000000000E+00 -0.61471048973E+02  0.61471048973E+02  0.00000000000E+00 0.  1.
          6    2    1    2  501    0  0.30765853882E+02 -0.39900324954E+01  0.13577693494E+03  0.22170678027E+03  0.17249945574E+03 0.  0.
         24    2    3    3    0    0  0.63974708563E+02  0.41097659856E+02  0.55202735933E+02  0.12347226711E+03  0.80101671073E+02 0.  0.
         -6    2    1    2    0  502 -0.30765853882E+02  0.39900324954E+01  0.39793698600E+03  0.43494923862E+03  0.17281359096E+03 0.  0.
        -24    2    5    5    0    0  0.10290135720E+02  0.54243127432E+02  0.31295942036E+03  0.32792473444E+03  0.80887754917E+02 0.  0.
          5    1    3    3  501    0 -0.33208854681E+02 -0.45087692351E+02  0.80574199005E+02  0.98234513162E+02  0.47000000000E+01 0. -1.
        -11    1    4    4    0    0  0.40184300346E+02 -0.38875212103E+01 -0.91840410396E+01  0.41403350412E+02  0.00000000000E+00 0.  1.
         12    1    4    4    0    0  0.23790408216E+02  0.44985181066E+02  0.64386776972E+02  0.82068916695E+02  0.00000000000E+00 0. -1.
         -5    1    5    5    0  502 -0.41055989602E+02 -0.50253094937E+02  0.84977565640E+02  0.10702450418E+03  0.47000000000E+01 0.  1.
         13    1    6    6    0    0  0.77737363917E+01  0.28118297457E+02  0.24002061195E+02  0.37777884681E+02  0.00000000000E+00 0. -1.
        -14    1    6    6    0    0  0.25163993288E+01  0.26124829975E+02  0.28895735917E+03  0.29014684976E+03  0.00000000000E+00 0.  1.
<mgrwt>
<rscale>  2 0.17549883E+03</rscale>
<asrwt>0</asrwt>
<pdfrwt beam="1">  1       21 0.91566914E-01 0.17557618E+03</pdfrwt>
<pdfrwt beam="2">  1       21 0.94570849E-02 0.17557618E+03</pdfrwt>
<totfact> 0.91026217E+04</totfact>
</mgrwt>
</event>
<event>
12    1  0.1029207E-001  0.1905532E+03  0.7546771E-02  0.1158498E+00
         21   -1    0    0  501  502  0.00000000000E+00  0.00000000000E+00  0.10676998218E+03  0.10676998218E+03  0.00000000000E+00 0.  1.
         21   -1    0    0  502  503 -0.00000000000E+00 -0.00000000000E+00 -0.37258297238E+03  0.37258297238E+03  0.00000000000E+00 0.  1.
         -6    2    1    2    0  503 -0.44383003673E+02  0.69421651701E+02 -0.20739028632E+03  0.28004477374E+03  0.16918962054E+03 0.  0.
        -24    2    3    3    0    0 -0.20737644213E+02 -0.25018765268E+02 -0.73122251680E+02  0.11412885977E+03  0.81379017193E+02 0.  0.
          6    2    1    2  501    0  0.44383003673E+02 -0.69421651701E+02 -0.58422703878E+02  0.19930818082E+03  0.17181769954E+03 0.  0.
         24    2    5    5    0    0 -0.34904548038E+02 -0.60327638635E+02 -0.54193843396E+02  0.11925076273E+03  0.80162461872E+02 0.  0.
          5    1    5    5  501    0  0.79287551711E+02 -0.90940130653E+01 -0.42288604816E+01  0.80057418088E+02  0.47000000000E+01 0. -1.
        -11    1    6    6    0    0 -0.73862882446E+01 -0.45703784997E+02  0.10473344298E+02  0.47466663648E+02  0.00000000000E+00 0.  1.
         12    1    6    6    0    0 -0.27518259793E+02 -0.14623853638E+02 -0.64667187694E+02  0.71784099085E+02  0.00000000000E+00 0. -1.
         -5    1    3    3    0  503 -0.23645359460E+02  0.94440416968E+02 -0.13426803464E+03  0.16591591397E+03  0.47000000000E+01 0.  1.
         11    1    4    4    0    0  0.21825762949E+02 -0.25030955706E+02 -0.46899796833E+01  0.33539656845E+02  0.00000000000E+00 0. -1.
        -12    1    4    4    0    0 -0.42563407162E+02  0.12190438502E-01 -0.68432271997E+02  0.80589202928E+02  0.00000000000E+00 0.  1.
<mgrwt>
<rscale>  2 0.18995891E+03</rscale>
<asrwt>0</asrwt>
<pdfrwt beam="1">  1       21 0.16426151E-01 0.19055324E+03</pdfrwt>
<pdfrwt beam="2">  1       21 0.57320457E-01 0.19055324E+03</pdfrwt>
<totfact> 0.95021818E+04</totfact>
</mgrwt>
</event>
<event>
12    1  0.1029207E-001  0.1996607E+03  0.7546771E-02  0.1150490E+00
         21   -1    0    0  503  502  0.00000000000E+00  0.00000000000E+00  0.12784785894E+03  0.12784785894E+03  0.00000000000E+00 0.  1.
         21   -1    0    0  501  503 -0.00000000000E+00 -0.00000000000E+00 -0.37693890697E+03  0.37693890697E+03  0.00000000000E+00 0.  1.
          6    2    1    2  501    0  0.97748308914E+02 -0.25354703068E+01 -0.23160196911E+03  0.30436155914E+03  0.17156726403E+03 0.  0.
         24    2    3    3    0    0  0.12818386350E+03  0.99406465971E+01 -0.22155320147E+03  0.26964781249E+03  0.84227088159E+02 0.  0.
         -6    2    1    2    0  502 -0.97748308914E+02  0.25354703068E+01 -0.17489078928E+02  0.20042520676E+03  0.17407824424E+03 0.  0.
        -24    2    5    5    0    0 -0.86902816664E+02  0.66294765627E+02 -0.61378083497E+01  0.13459349871E+03  0.78298414475E+02 0.  0.
          5    1    3    3  501    0 -0.30435554586E+02 -0.12476116904E+02 -0.10048767632E+02  0.34713746656E+02  0.47000000000E+01 0. -1.
        -13    1    4    4    0    0  0.79431097810E+02 -0.47848819481E+01 -0.58330160487E+02  0.98664086764E+02  0.00000000000E+00 0.  1.
         14    1    4    4    0    0  0.48752765690E+02  0.14725528545E+02 -0.16322304099E+03  0.17098372572E+03  0.00000000000E+00 0. -1.
         -5    1    5    5    0  502 -0.10845492250E+02 -0.63759295320E+02 -0.11351270578E+02  0.65831708056E+02  0.47000000000E+01 0.  1.
         11    1    6    6    0    0 -0.98407944604E+02  0.66872049930E+02 -0.15187430052E+02  0.11994437317E+03  0.00000000000E+00 0. -1.
        -12    1    6    6    0    0  0.11505127941E+02 -0.57728430327E+00  0.90496217021E+01  0.14649125539E+02  0.00000000000E+00 0.  1.
<mgrwt>
<rscale>  2 0.19911209E+03</rscale>
<asrwt>0</asrwt>
<pdfrwt beam="1">  1       21 0.19668902E-01 0.19966070E+03</pdfrwt>
<pdfrwt beam="2">  1       21 0.57990600E-01 0.19966070E+03</pdfrwt>
<totfact> 0.66162577E+04</totfact>
</mgrwt>
</event>
<event>
12    1  0.1029207E-001  0.2428738E+03  0.7546771E-02  0.1117983E+00
         21   -1    0    0  503  502  0.00000000000E+00  0.00000000000E+00  0.30865807741E+03  0.30865807741E+03  0.00000000000E+00 0.  1.
         21   -1    0    0  501  503 -0.00000000000E+00 -0.00000000000E+00 -0.25639294116E+03  0.25639294116E+03  0.00000000000E+00 0. -1.
          6    2    1    2  501    0 -0.16994208409E+03 -0.72266885303E+01 -0.11687667830E+03  0.26953259657E+03  0.17336414194E+03 0.  0.
         24    2    3    3    0    0 -0.19793902117E+03 -0.11135737388E+02 -0.95697852799E+02  0.23389916005E+03  0.79037189321E+02 0.  0.
         -6    2    1    2    0  502  0.16994208409E+03  0.72266885303E+01  0.16914181455E+03  0.29551842200E+03  0.17259677673E+03 0.  0.
        -24    2    5    5    0    0  0.17828216577E+03  0.44808899292E+02  0.12678585280E+03  0.23808936120E+03  0.82580405413E+02 0.  0.
          5    1    3    3  501    0  0.27996937072E+02  0.39090488580E+01 -0.21178825500E+02  0.35633436516E+02  0.47000000000E+01 0. -1.
        -11    1    4    4    0    0 -0.94799329074E+02 -0.24298548752E+02 -0.85598295314E+01  0.98237482387E+02  0.00000000000E+00 0.  1.
         12    1    4    4    0    0 -0.10313969209E+03  0.13162811363E+02 -0.87138023268E+02  0.13566167766E+03  0.00000000000E+00 0. -1.
         -5    1    5    5    0  502 -0.83400816780E+01 -0.37582210762E+02  0.42355961752E+02  0.57429060797E+02  0.47000000000E+01 0.  1.
         11    1    6    6    0    0  0.52266195856E+02 -0.24152319179E+02  0.30525700809E+02  0.65168306414E+02  0.00000000000E+00 0. -1.
        -12    1    6    6    0    0  0.12601596992E+03  0.68961218471E+02  0.96260151993E+02  0.17292105479E+03  0.00000000000E+00 0.  1.
<mgrwt>
<rscale>  2 0.24273686E+03</rscale>
<asrwt>0</asrwt>
<pdfrwt beam="1">  1       21 0.47485858E-01 0.24287376E+03</pdfrwt>
<pdfrwt beam="2">  1       21 0.39445068E-01 0.24287376E+03</pdfrwt>
<totfact> 0.25594736E+04</totfact>
</mgrwt>
</event>
<event>
12    1  0.1029207E-001  0.1907456E+03  0.7546771E-02  0.1157905E+00
         21   -1    0    0  503  502  0.00000000000E+00  0.00000000000E+00  0.13486104807E+03  0.13486104807E+03  0.00000000000E+00 0. -1.
         21   -1    0    0  501  503 -0.00000000000E+00 -0.00000000000E+00 -0.35406777850E+03  0.35406777850E+03  0.00000000000E+00 0. -1.
          6    2    1    2  501    0  0.79699554036E+02 -0.71350659227E+01 -0.22949318604E+03  0.29841412535E+03  0.17315004964E+03 0.  0.
         24    2    3    3    0    0  0.60290092167E+02 -0.44473876811E+02 -0.64167218736E+02  0.12775165298E+03  0.81180243581E+02 0.  0.
         -6    2    1    2    0  502 -0.79699554036E+02  0.71350659227E+01  0.10286455608E+02  0.19051470121E+03  0.17258943227E+03 0.  0.
        -24    2    5    5    0    0 -0.34469507796E+02 -0.52035684628E+02 -0.28249760352E+02  0.10652622138E+03  0.81571609277E+02 0.  0.
          5    1    3    3  501    0  0.19409461868E+02  0.37338810888E+02 -0.16532596730E+03  0.17066247236E+03  0.47000000000E+01 0. -1.
        -11    1    4    4    0    0 -0.93193668717E+01 -0.72573037746E+01  0.12860660194E+02  0.17461833741E+02  0.00000000000E+00 0.  1.
         12    1    4    4    0    0  0.69609459039E+02 -0.37216573036E+02 -0.77027878931E+02  0.11028981924E+03  0.00000000000E+00 0. -1.
         -5    1    5    5    0  502 -0.45230046240E+02  0.59170750551E+02  0.38536215961E+02  0.83988479830E+02  0.47000000000E+01 0.  1.
         11    1    6    6    0    0 -0.96312267076E+01  0.20220292162E+02  0.53999711131E+01  0.23038672510E+02  0.00000000000E+00 0. -1.
        -12    1    6    6    0    0 -0.24838281088E+02 -0.72255976790E+02 -0.33649731466E+02  0.83487548874E+02  0.00000000000E+00 0.  1.
<mgrwt>
<rscale>  2 0.19061824E+03</rscale>
<asrwt>0</asrwt>
<pdfrwt beam="1">  1       21 0.20747854E-01 0.19074556E+03</pdfrwt>
<pdfrwt beam="2">  1       21 0.54471965E-01 0.19074556E+03</pdfrwt>
<totfact> 0.68664064E+04</totfact>
</mgrwt>
</event>
<event>
12    1  0.1029207E-001  0.1973853E+03  0.7546771E-02  0.1156084E+00
         21   -1    0    0  501  502  0.00000000000E+00  0.00000000000E+00  0.85557367995E+02  0.85557367995E+02  0.00000000000E+00 0. -1.
         21   -1    0    0  502  503 -0.00000000000E+00 -0.00000000000E+00 -0.41553280768E+03  0.41553280768E+03  0.00000000000E+00 0.  1.
         -6    2    1    2    0  503 -0.85949549222E+02  0.41560016051E+02 -0.14330108364E+03  0.22941341267E+03  0.15159404142E+03 0.  0.
        -24    2    3    3    0    0 -0.48862267800E+02  0.38370844581E+02 -0.24209561518E+02  0.10455141725E+03  0.80529827098E+02 0.  0.
          6    2    1    2  501    0  0.85949549222E+02 -0.41560016051E+02 -0.18667435604E+03  0.27167676300E+03  0.17276107318E+03 0.  0.
         24    2    5    5    0    0  0.69292525932E+02 -0.43834207098E+02 -0.21191188128E+03  0.24099042972E+03  0.80292278137E+02 0.  0.
          5    1    5    5  501    0  0.16657023291E+02  0.22741910476E+01  0.25237525240E+02  0.30686333278E+02  0.47000000000E+01 0. -1.
        -13    1    6    6    0    0  0.48655136731E+02 -0.32879158476E+02 -0.20941504040E+03  0.21749257583E+03  0.00000000000E+00 0.  1.
         14    1    6    6    0    0  0.20637389200E+02 -0.10955048622E+02 -0.24968408754E+01  0.23497853895E+02  0.00000000000E+00 0. -1.
         -5    1    3    3    0  503 -0.37087281423E+02  0.31891714701E+01 -0.11909152213E+03  0.12486199542E+03  0.47000000000E+01 0.  1.
         11    1    4    4    0    0 -0.16803457892E+02  0.34471643593E+02  0.24936806213E+02  0.45743794259E+02  0.00000000000E+00 0. -1.
        -12    1    4    4    0    0 -0.32058809908E+02  0.38992009875E+01 -0.49146367731E+02  0.58807622994E+02  0.00000000000E+00 0.  1.
<mgrwt>
<rscale>  2 0.19265987E+03</rscale>
<asrwt>0</asrwt>
<pdfrwt beam="1">  1       21 0.13162672E-01 0.19738528E+03</pdfrwt>
<pdfrwt beam="2">  1       21 0.63928124E-01 0.19738528E+03</pdfrwt>
<totfact> 0.11210936E+05</totfact>
</mgrwt>
</event>
<event>
12    1  0.1029207E-001  0.1846187E+03  0.7546771E-02  0.1163984E+00
         21   -1    0    0  503  502  0.00000000000E+00  0.00000000000E+00  0.84583936899E+02  0.84583936899E+02  0.00000000000E+00 0. -1.
         21   -1    0    0  501  503 -0.00000000000E+00 -0.00000000000E+00 -0.44704092826E+03  0.44704092826E+03  0.00000000000E+00 0. -1.
          6    2    1    2  501    0  0.56735336449E+02 -0.24459636395E+02 -0.26851655881E+03  0.32448031261E+03  0.17137432335E+03 0.  0.
         24    2    3    3    0    0  0.36599944941E+02 -0.65680752368E+02 -0.75960998122E+02  0.12647943295E+03  0.67627335624E+02 0.  0.
         -6    2    1    2    0  502 -0.56735336449E+02  0.24459636395E+02 -0.93940432552E+02  0.20714455255E+03  0.17397381575E+03 0.  0.
        -24    2    5    5    0    0 -0.36796242310E+02  0.73608380543E+02 -0.96883045623E+02  0.15381617832E+03  0.86607938713E+02 0.  0.
          5    1    3    3  501    0  0.20135391508E+02  0.41221115973E+02 -0.19255556069E+03  0.19800087966E+03  0.47000000000E+01 0. -1.
        -11    1    4    4    0    0 -0.17806025171E+02 -0.33409304617E+02 -0.27448789345E+02  0.46761866985E+02  0.00000000000E+00 0.  1.
         12    1    4    4    0    0  0.54405970112E+02 -0.32271447751E+02 -0.48512208777E+02  0.79717565970E+02  0.00000000000E+00 0. -1.
         -5    1    5    5    0  502 -0.19939094139E+02 -0.49148744149E+02  0.29426130712E+01  0.53328374231E+02  0.47000000000E+01 0.  1.
         11    1    6    6    0    0 -0.26807592800E+02  0.91925905678E+01  0.87755022236E+01  0.29667493868E+02  0.00000000000E+00 0. -1.
        -12    1    6    6    0    0 -0.99886495101E+01  0.64415789976E+02 -0.10565854785E+03  0.12414868445E+03  0.00000000000E+00 0.  1.
<mgrwt>
<rscale>  2 0.18400374E+03</rscale>
<asrwt>0</asrwt>
<pdfrwt beam="1">  1       21 0.13012914E-01 0.18461869E+03</pdfrwt>
<pdfrwt beam="2">  1       21 0.68775526E-01 0.18461869E+03</pdfrwt>
<totfact> 0.98046355E+04</totfact>
</mgrwt>
</event>
<event>
12    1  0.1029207E-001  0.1966944E+03  0.7546771E-02  0.1152800E+00
         21   -1    0    0  503  502  0.00000000000E+00  0.00000000000E+00  0.49969873520E+03  0.49969873520E+03  0.00000000000E+00 0. -1.
         21   -1    0    0  501  503 -0.00000000000E+00 -0.00000000000E+00 -0.32526248481E+03  0.32526248481E+03  0.00000000000E+00 0. -1.
          6    2    1    2  501    0 -0.77730741341E+02 -0.50721886431E+02 -0.27321552657E+03  0.33600231733E+03  0.17215125727E+03 0.  0.
         24    2    3    3    0    0 -0.11328721344E+03 -0.66485178412E+02 -0.23477320208E+03  0.28111473773E+03  0.81564500104E+02 0.  0.
         -6    2    1    2    0  502  0.77730741341E+02  0.50721886431E+02  0.44765177696E+03  0.48895890268E+03  0.17341833001E+03 0.  0.
        -24    2    5    5    0    0  0.48620123520E+02 -0.27398436476E+01  0.40313741357E+03  0.41339963322E+03  0.77511672521E+02 0.  0.
          5    1    3    3  501    0  0.35556472099E+02  0.15763291981E+02 -0.38442324490E+02  0.54887579601E+02  0.47000000000E+01 0. -1.
        -13    1    4    4    0    0 -0.29680663914E+02  0.18836143012E+02 -0.54707127215E+02  0.65027777619E+02  0.00000000000E+00 0.  1.
         14    1    4    4    0    0 -0.83606549526E+02 -0.85321321424E+02 -0.18006607486E+03  0.21608696011E+03  0.00000000000E+00 0. -1.
         -5    1    5    5    0  502  0.29110617821E+02  0.53461730079E+02  0.44514363393E+02  0.75559269459E+02  0.47000000000E+01 0.  1.
         11    1    6    6    0    0 -0.10269991152E+02  0.11416183718E+02  0.21940118373E+03  0.21993790349E+03  0.00000000000E+00 0. -1.
        -12    1    6    6    0    0  0.58890114672E+02 -0.14156027366E+02  0.18373622984E+03  0.19346172973E+03  0.00000000000E+00 0.  1.
<mgrwt>
<rscale>  2 0.19641477E+03</rscale>
<asrwt>0</asrwt>
<pdfrwt beam="1">  1       21 0.76876728E-01 0.19669442E+03</pdfrwt>
<pdfrwt beam="2">  1       21 0.50040383E-01 0.19669442E+03</pdfrwt>
<totfact> 0.57050567E+03</totfact>
</mgrwt>
</event>
<event>
12    1  0.1029207E-001  0.2121821E+03  0.7546771E-02  0.1139973E+00
         21   -1    0    0  501  502  0.00000000000E+00  0.00000000000E+00  0.28781479037E+03  0.28781479037E+03  0.00000000000E+00 0. -1.
         21   -1    0    0  502  503 -0.00000000000E+00 -0.00000000000E+00 -0.18934304946E+03  0.18934304946E+03  0.00000000000E+00 0.  1.
         -6    2    1    2    0  503  0.12096628274E+03  0.23507876827E+02 -0.50881708400E+02  0.21819756706E+03  0.17273033372E+03 0.  0.
        -24    2    3    3    0    0  0.14162119487E+03 -0.70877114605E+01 -0.95824749505E+01  0.16260591210E+03  0.79006710682E+02 0.  0.
          6    2    1    2  501    0 -0.12096628274E+03 -0.23507876827E+02  0.14935344931E+03  0.25896027277E+03  0.17195495985E+03 0.  0.
         24    2    5    5    0    0 -0.93411901139E+02  0.49612001122E+02  0.97743926351E+02  0.16519784235E+03  0.80927857073E+02 0.  0.
          5    1    5    5  501    0 -0.27554381599E+02 -0.73119877948E+02  0.51609522958E+02  0.93762430410E+02  0.47000000000E+01 0. -1.
        -11    1    6    6    0    0 -0.22064448568E+02  0.29635602393E+02 -0.62881586753E+01  0.37478657384E+02  0.00000000000E+00 0.  1.
         12    1    6    6    0    0 -0.71347452571E+02  0.19976398728E+02  0.10403208503E+03  0.12771918497E+03  0.00000000000E+00 0. -1.
         -5    1    3    3    0  503 -0.20654912131E+02  0.30595588287E+02 -0.41299233449E+02  0.55591654960E+02  0.47000000000E+01 0.  1.
         13    1    4    4    0    0  0.49401274129E+02  0.24574414666E+02  0.23034597029E+02  0.59791139828E+02  0.00000000000E+00 0. -1.
        -14    1    4    4    0    0  0.92219920740E+02 -0.31662126126E+02 -0.32617071979E+02  0.10281477227E+03  0.00000000000E+00 0.  1.
<mgrwt>
<rscale>  2 0.21202421E+03</rscale>
<asrwt>0</asrwt>
<pdfrwt beam="1">  1       21 0.44279199E-01 0.21218207E+03</pdfrwt>
<pdfrwt beam="2">  1       21 0.29129700E-01 0.21218207E+03</pdfrwt>
<totfact> 0.54768535E+04</totfact>
</mgrwt>
</event>
<event>
12    1  0.1029207E-001  0.2232502E+03  0.7546771E-02  0.1131759E+00
         21   -1    0    0  501  502  0.00000000000E+00  0.00000000000E+00  0.18257758991E+03  0.18257758991E+03  0.00000000000E+00 0.  1.
         21   -1    0    0  502  503 -0.00000000000E+00 -0.00000000000E+00 -0.36711852564E+03  0.36711852564E+03  0.00000000000E+00 0. -1.
         -6    2    1    2    0  503 -0.47302187401E+02  0.13028375162E+03 -0.23302721258E+03  0.32271090623E+03  0.17501226908E+03 0.  0.
        -24    2    3    3    0    0 -0.36189200959E+02  0.75294436298E+02 -0.23935794602E+03  0.26605853246E+03  0.80721781259E+02 0.  0.
          6    2    1    2  501    0  0.47302187401E+02 -0.13028375162E+03  0.48486276853E+02  0.22698520933E+03  0.17308961073E+03 0.  0.
         24    2    5    5    0    0  0.45822758383E+02 -0.15272957462E+03  0.77481999366E+02  0.18998729581E+03  0.68305667366E+02 0.  0.
          5    1    5    5  501    0  0.14794290178E+01  0.22445823001E+02 -0.28995722514E+02  0.36997913516E+02  0.47000000000E+01 0. -1.
        -13    1    6    6    0    0  0.40311438170E+01 -0.12065997805E+03  0.56307648764E+02  0.13321273112E+03  0.00000000000E+00 0.  1.
         14    1    6    6    0    0  0.41791614566E+02 -0.32069596570E+02  0.21174350602E+02  0.56774564689E+02  0.00000000000E+00 0. -1.
         -5    1    3    3    0  503 -0.11112986442E+02  0.54989315322E+02  0.63307334424E+01  0.56652373764E+02  0.47000000000E+01 0.  1.
         11    1    4    4    0    0 -0.16785134378E+02  0.82269327100E+02 -0.22697242295E+03  0.24200509023E+03  0.00000000000E+00 0. -1.
        -12    1    4    4    0    0 -0.19404066581E+02 -0.69748908021E+01 -0.12385523074E+02  0.24053442236E+02  0.00000000000E+00 0.  1.
<mgrwt>
<rscale>  2 0.22287323E+03</rscale>
<asrwt>0</asrwt>
<pdfrwt beam="1">  1       21 0.28088860E-01 0.22325019E+03</pdfrwt>
<pdfrwt beam="2">  1       21 0.56479773E-01 0.22325019E+03</pdfrwt>
<totfact> 0.35146817E+04</totfact>
</mgrwt>
</event>
<event>
12    1  0.1029207E-001  0.1722657E+03  0.7546771E-02  0.1175549E+00
         21   -1    0    0  501  502  0.00000000000E+00  0.00000000000E+00  0.11112744387E+04  0.11112744387E+04  0.00000000000E+00 0. -1.
         21   -1    0    0  502  503 -0.00000000000E+00 -0.00000000000E+00 -0.28845291358E+02  0.28845291358E+02  0.00000000000E+00 0. -1.
         -6    2    1    2    0  503  0.94152837406E+01  0.12284477096E+02  0.38518787334E+03  0.42195400237E+03  0.17156901353E+03 0.  0.
        -24    2    3    3    0    0 -0.49280902936E+02 -0.59485880712E+01  0.12699208121E+03  0.15650185213E+03  0.76823485568E+02 0.  0.
          6    2    1    2  501    0 -0.94152837406E+01 -0.12284477096E+02  0.69724127401E+03  0.71816572769E+03  0.17139738127E+03 0.  0.
         24    2    5    5    0    0  0.55727788701E+02 -0.34310555404E+02  0.41069806020E+03  0.42344913265E+03  0.79708661053E+02 0.  0.
          5    1    5    5  501    0 -0.65143072442E+02  0.22026078309E+02  0.28654321381E+03  0.29471659504E+03  0.47000000000E+01 0. -1.
        -13    1    6    6    0    0  0.59323436515E+02  0.59835176291E+01  0.29263806850E+03  0.29865048424E+03  0.00000000000E+00 0.  1.
         14    1    6    6    0    0 -0.35956478135E+01 -0.40294073033E+02  0.11805999170E+03  0.12479864841E+03  0.00000000000E+00 0. -1.
         -5    1    3    3    0  503  0.58696186677E+02  0.18233065167E+02  0.25819579213E+03  0.26545215024E+03  0.47000000000E+01 0.  1.
         11    1    4    4    0    0 -0.20629570090E+02  0.26571531047E+02  0.15807793938E+02  0.37168693459E+02  0.00000000000E+00 0. -1.
        -12    1    4    4    0    0 -0.28651332847E+02 -0.32520119118E+02  0.11118428728E+03  0.11933315867E+03  0.00000000000E+00 0.  1.
<mgrwt>
<rscale>  2 0.17222298E+03</rscale>
<asrwt>0</asrwt>
<pdfrwt beam="1">  1       21 0.17096527E+00 0.17226573E+03</pdfrwt>
<pdfrwt beam="2">  1       21 0.44377380E-02 0.17226573E+03</pdfrwt>
<totfact> 0.69938146E+04</totfact>
</mgrwt>
</event>
<event>
11    1  0.1029207E-001  0.1725174E+03  0.7546771E-02  0.1175304E+00
         21   -1    0    0  501  502  0.00000000000E+00  0.00000000000E+00  0.27010299174E+03  0.27010299174E+03  0.00000000000E+00 0. -1.
         21   -1    0    0  502  503 -0.00000000000E+00 -0.00000000000E+00 -0.15048850469E+03  0.15048850469E+03  0.00000000000E+00 0. -1.
         -6    2    1    2    0  503  0.40137384918E+01  0.58636747790E+01 -0.49180117158E+02  0.17939046144E+03  0.17237099800E+03 0.  0.
        -24    2    3    3    0    0  0.32494823733E+01 -0.50683271819E+02 -0.70929841874E+02  0.11861808464E+03  0.80373219150E+02 0.  0.
          6    2    1    2  501    0 -0.40137384918E+01 -0.58636747790E+01  0.16879460420E+03  0.24120103500E+03  0.17215059714E+03 0.  0.
          5    1    5    5  501    0  0.41222107442E+02 -0.24819398127E+02  0.17077109011E+03  0.17748273122E+03  0.47000000000E+01 0. -1.
        -11    1    5    5    0    0 -0.21203074245E+02  0.26861557246E+02  0.10104509723E+02  0.35682134632E+02  0.00000000000E+00 0.  1.
         12    1    5    5    0    0 -0.24032771689E+02 -0.79058338976E+01 -0.12080995629E+02  0.28036169140E+02  0.00000000000E+00 0. -1.
         -5    1    3    3    0  503  0.76425611847E+00  0.56546946597E+02  0.21749724715E+02  0.60772376801E+02  0.47000000000E+01 0.  1.
         13    1    4    4    0    0 -0.13008032069E+02  0.15428911311E+02  0.16627962160E+00  0.20181373874E+02  0.00000000000E+00 0. -1.
        -14    1    4    4    0    0  0.16257514442E+02 -0.66112183129E+02 -0.71096121495E+02  0.98436710762E+02  0.00000000000E+00 0.  1.
<mgrwt>
<rscale>  2 0.17246232E+03</rscale>
<asrwt>0</asrwt>
<pdfrwt beam="1">  1       21 0.41554306E-01 0.17251740E+03</pdfrwt>
<pdfrwt beam="2">  1       21 0.23152078E-01 0.17251740E+03</pdfrwt>
<totfact> 0.98494941E+04</totfact>
</mgrwt>
</event>
<event>
12    1  0.1029207E-001  0.1910273E+03  0.7546771E-02  0.1157777E+00
         21   -1    0    0  503  502  0.00000000000E+00  0.00000000000E+00  0.24777542686E+02  0.24777542686E+02  0.00000000000E+00 0.  1.
         21   -1    0    0  501  503 -0.00000000000E+00 -0.00000000000E+00 -0.16511038873E+04  0.16511038873E+04  0.00000000000E+00 0. -1.
          6    2    1    2  501    0 -0.34501936834E+02 -0.71001890245E+02 -0.10968283772E+04  0.11133390841E+04  0.17395337035E+03 0.  0.
         24    2    3    3    0    0 -0.41115087583E+02 -0.53462461520E+02 -0.31791879356E+03  0.33418980775E+03  0.77857453648E+02 0.  0.
         -6    2    1    2    0  502  0.34501936834E+02  0.71001890245E+02 -0.52949796739E+03  0.56254234588E+03  0.17278351013E+03 0.  0.
        -24    2    5    5    0    0 -0.47783047881E+02  0.22670659810E+02 -0.25223894240E+03  0.26928242110E+03  0.78047163733E+02 0.  0.
          5    1    3    3  501    0  0.66131507487E+01 -0.17539428725E+02 -0.77890958365E+03  0.77914927634E+03  0.47000000000E+01 0. -1.
        -11    1    4    4    0    0 -0.95296289948E+01  0.16356489605E+02 -0.24682217956E+02  0.31105633963E+02  0.00000000000E+00 0.  1.
         12    1    4    4    0    0 -0.31585458588E+02 -0.69818951125E+02 -0.29323657560E+03  0.30308417379E+03  0.00000000000E+00 0. -1.
         -5    1    5    5    0  502  0.82284984715E+02  0.48331230435E+02 -0.27725902499E+03  0.29325992478E+03  0.47000000000E+01 0.  1.
         13    1    6    6    0    0  0.36239164511E+01 -0.23511642284E+02 -0.86552903107E+02  0.89762659996E+02  0.00000000000E+00 0. -1.
        -14    1    6    6    0    0 -0.51406964332E+02  0.46182302093E+02 -0.16568603930E+03  0.17951976110E+03  0.00000000000E+00 0.  1.
<mgrwt>
<rscale>  2 0.19076057E+03</rscale>
<asrwt>0</asrwt>
<pdfrwt beam="1">  1       21 0.38119287E-02 0.19102729E+03</pdfrwt>
<pdfrwt beam="2">  1       21 0.25401604E+00 0.19102729E+03</pdfrwt>
<totfact> 0.26788595E+04</totfact>
</mgrwt>
</event>
<event>
12    1  0.1029207E-001  0.2579754E+03  0.7546771E-02  0.1108610E+00
         21   -1    0    0  503  502  0.00000000000E+00  0.00000000000E+00  0.81403415153E+03  0.81403415153E+03  0.00000000000E+00 0.  1.
         21   -1    0    0  501  503 -0.00000000000E+00 -0.00000000000E+00 -0.99132176784E+02  0.99132176784E+02  0.00000000000E+00 0. -1.
          6    2    1    2  501    0  0.93040334120E+02  0.16725546381E+03  0.16260146082E+03  0.30358683123E+03  0.17057208180E+03 0.  0.
         24    2    3    3    0    0  0.12537860537E+03  0.12226315819E+03  0.15550632917E+03  0.24752880553E+03  0.80126254244E+02 0.  0.
         -6    2    1    2    0  502 -0.93040334120E+02 -0.16725546381E+03  0.55230051393E+03  0.60957949708E+03  0.17297517634E+03 0.  0.
        -24    2    5    5    0    0  0.20394884792E+02 -0.82961703355E+02  0.26405077307E+03  0.28851409868E+03  0.78860502371E+02 0.  0.
          5    1    3    3  501    0 -0.32338271253E+02  0.44992305624E+02  0.70951316515E+01  0.56058025706E+02  0.47000000000E+01 0. -1.
        -13    1    4    4    0    0  0.47217152845E+02  0.34302701447E+02  0.10362334569E+03  0.11892826670E+03  0.00000000000E+00 0.  1.
         14    1    4    4    0    0  0.78161452527E+02  0.87960456740E+02  0.51882983482E+02  0.12860053883E+03  0.00000000000E+00 0. -1.
         -5    1    5    5    0  502 -0.11343521891E+03 -0.84293760456E+02  0.28824974086E+03  0.32106539840E+03  0.47000000000E+01 0.  1.
         13    1    6    6    0    0  0.22229487803E+02 -0.97211315516E+02  0.20826578704E+03  0.23090870067E+03  0.00000000000E+00 0. -1.
        -14    1    6    6    0    0 -0.18346030117E+01  0.14249612161E+02  0.55784986022E+02  0.57605398015E+02  0.00000000000E+00 0.  1.
<mgrwt>
<rscale>  2 0.25757318E+03</rscale>
<asrwt>0</asrwt>
<pdfrwt beam="1">  1       21 0.12523602E+00 0.25797540E+03</pdfrwt>
<pdfrwt beam="2">  1       21 0.15251105E-01 0.25797540E+03</pdfrwt>
<totfact> 0.17388295E+04</totfact>
</mgrwt>
</event>
<event>
12    1  0.1029207E-001  0.1974574E+03  0.7546771E-02  0.1152271E+00
         21   -1    0    0  501  502  0.00000000000E+00  0.00000000000E+00  0.15946034193E+03  0.15946034193E+03  0.00000000000E+00 0. -1.
         21   -1    0    0  502  503 -0.00000000000E+00 -0.00000000000E+00 -0.24755389115E+03  0.24755389115E+03  0.00000000000E+00 0. -1.
         -6    2    1    2    0  503  0.89313220895E+02 -0.37110186643E+02 -0.73240634251E+02  0.20899899783E+03  0.17018335174E+03 0.  0.
        -24    2    3    3    0    0 -0.42827035466E+00  0.24971373293E+02 -0.55169859917E+01  0.80483481763E+02  0.76311210203E+02 0.  0.
          6    2    1    2  501    0 -0.89313220895E+02  0.37110186643E+02 -0.14852914967E+02  0.19801523526E+03  0.17214937389E+03 0.  0.
         24    2    5    5    0    0 -0.22786593963E+02  0.33151371690E+02  0.51070826172E+02  0.10415633076E+03  0.81376099951E+02 0.  0.
          5    1    5    5  501    0 -0.66526626931E+02  0.39588149538E+01 -0.65923741139E+02  0.93858904492E+02  0.47000000000E+01 0. -1.
        -13    1    6    6    0    0  0.21376216568E+02  0.25805361570E+02 -0.33623228086E+01  0.33677359386E+02  0.00000000000E+00 0.  1.
         14    1    6    6    0    0 -0.44162810532E+02  0.73460101194E+01  0.54433148980E+02  0.70478971379E+02  0.00000000000E+00 0. -1.
         -5    1    3    3    0  503  0.89741491249E+02 -0.62081559937E+02 -0.67723648260E+02  0.12851551606E+03  0.47000000000E+01 0.  1.
         11    1    4    4    0    0  0.35538293225E+02  0.64634496922E+01 -0.14711850739E+02  0.39002371972E+02  0.00000000000E+00 0. -1.
        -12    1    4    4    0    0 -0.35966563580E+02  0.18507923601E+02  0.91948647477E+01  0.41481109791E+02  0.00000000000E+00 0.  1.
<mgrwt>
<rscale>  2 0.19702808E+03</rscale>
<asrwt>0</asrwt>
<pdfrwt beam="1">  1       21 0.24532360E-01 0.19745740E+03</pdfrwt>
<pdfrwt beam="2">  1       21 0.38085214E-01 0.19745740E+03</pdfrwt>
<totfact> 0.10420140E+05</totfact>
</mgrwt>
</event>
<event>
12    1  0.1029207E-001  0.2207561E+03  0.7546771E-02  0.1133705E+00
         21   -1    0    0  501  502  0.00000000000E+00  0.00000000000E+00  0.40862628013E+03  0.40862628013E+03  0.00000000000E+00 0.  1.
         21   -1    0    0  502  503 -0.00000000000E+00 -0.00000000000E+00 -0.11883278228E+03  0.11883278228E+03  0.00000000000E+00 0.  1.
         -6    2    1    2    0  503 -0.11852441558E+03 -0.62375839987E+02  0.12422851122E+03  0.25151515855E+03  0.17288253086E+03 0.  0.
        -24    2    3    3    0    0 -0.10601492930E+03  0.12314372091E+02  0.98289999234E+02  0.17132780648E+03  0.91112481744E+02 0.  0.
          6    2    1    2  501    0  0.11852441558E+03  0.62375839987E+02  0.16556498663E+03  0.27594390387E+03  0.17548359120E+03 0.  0.
         24    2    5    5    0    0  0.26279148341E+01  0.61676283897E+02  0.10149083761E+03  0.14342947131E+03  0.80378810581E+02 0.  0.
          5    1    5    5  501    0  0.11589650074E+03  0.69955609082E+00  0.64074149026E+02  0.13251443256E+03  0.47000000000E+01 0. -1.
        -13    1    6    6    0    0 -0.13629672571E+02  0.75463999942E+02  0.62243029867E+02  0.98766279816E+02  0.00000000000E+00 0.  1.
         14    1    6    6    0    0  0.16257587405E+02 -0.13787716046E+02  0.39247807740E+02  0.44663191493E+02  0.00000000000E+00 0. -1.
         -5    1    3    3    0  503 -0.12509486277E+02 -0.74690212078E+02  0.25938511989E+02  0.80187352066E+02  0.47000000000E+01 0.  1.
         11    1    4    4    0    0 -0.37229310549E+02  0.14561894032E+02  0.94261135331E+02  0.10238765529E+03  0.00000000000E+00 0. -1.
        -12    1    4    4    0    0 -0.68785618751E+02 -0.22475219418E+01  0.40288639026E+01  0.68940151191E+02  0.00000000000E+00 0.  1.
<mgrwt>
<rscale>  2 0.22023884E+03</rscale>
<asrwt>0</asrwt>
<pdfrwt beam="1">  1       21 0.62865581E-01 0.22075614E+03</pdfrwt>
<pdfrwt beam="2">  1       21 0.18281967E-01 0.22075614E+03</pdfrwt>
<totfact> 0.63120117E+04</totfact>
</mgrwt>
</event>
<event>
12    1  0.1029207E-001  0.2463026E+03  0.7546771E-02  0.1118693E+00
         21   -1    0    0  503  502  0.00000000000E+00  0.00000000000E+00  0.23369291811E+03  0.23369291811E+03  0.00000000000E+00 0. -1.
         21   -1    0    0  501  503 -0.00000000000E+00 -0.00000000000E+00 -0.63369171860E+03  0.63369171860E+03  0.00000000000E+00 0.  1.
          6    2    1    2  501    0  0.16744999824E+03  0.18006865141E+02 -0.54424176006E+03  0.59738100248E+03  0.17972540062E+03 0.  0.
         24    2    3    3    0    0  0.14723783302E+02  0.41444173711E+02 -0.20265787444E+03  0.22244601468E+03  0.80483576245E+02 0.  0.
         -6    2    1    2    0  502 -0.16744999824E+03 -0.18006865141E+02  0.14424295957E+03  0.27000363423E+03  0.15405253002E+03 0.  0.
        -24    2    5    5    0    0 -0.59596690760E+02 -0.10862835565E+02  0.10471189447E+02  0.97956112954E+02  0.76262621975E+02 0.  0.
          5    1    3    3  501    0  0.15272621494E+03 -0.23437308570E+02 -0.34158388562E+03  0.37493498780E+03  0.47000000000E+01 0. -1.
        -13    1    4    4    0    0 -0.21662557690E+02 -0.13557769121E+02 -0.50000305849E+02  0.56152560887E+02  0.00000000000E+00 0.  1.
         14    1    4    4    0    0  0.36386340992E+02  0.55001942832E+02 -0.15265756859E+03  0.16629345380E+03  0.00000000000E+00 0. -1.
         -5    1    5    5    0  502 -0.10785330748E+03 -0.71440295767E+01  0.13377177013E+03  0.17204752127E+03  0.47000000000E+01 0.  1.
         11    1    6    6    0    0  0.15844656251E+02 -0.29729268919E+01  0.14929658458E+02  0.21972394674E+02  0.00000000000E+00 0. -1.
        -12    1    6    6    0    0 -0.75441347011E+02 -0.78899086728E+01 -0.44584690103E+01  0.75983718280E+02  0.00000000000E+00 0.  1.
<mgrwt>
<rscale>  2 0.24165858E+03</rscale>
<asrwt>0</asrwt>
<pdfrwt beam="1">  1       21 0.35952757E-01 0.24630260E+03</pdfrwt>
<pdfrwt beam="2">  1       21 0.97491032E-01 0.24630260E+03</pdfrwt>
<totfact> 0.62659545E+03</totfact>
</mgrwt>
</event>
<event>
12    1  0.1029207E-001  0.1781591E+03  0.7546771E-02  0.1170713E+00
         21   -1    0    0  503  502  0.00000000000E+00  0.00000000000E+00  0.39755631912E+02  0.39755631912E+02  0.00000000000E+00 0.  1.
         21   -1    0    0  501  503 -0.00000000000E+00 -0.00000000000E+00 -0.79686984307E+03  0.79686984307E+03  0.00000000000E+00 0.  1.
          6    2    1    2  501    0  0.51671418708E+00  0.14532084418E+02 -0.44695448639E+03  0.48115380613E+03  0.17756470306E+03 0.  0.
         24    2    3    3    0    0 -0.62330539777E+02  0.12227301319E+02 -0.18258471649E+03  0.20936610479E+03  0.80388954811E+02 0.  0.
         -6    2    1    2    0  502 -0.51671418708E+00 -0.14532084418E+02 -0.31015972476E+03  0.35547166885E+03  0.17305953895E+03 0.  0.
        -24    2    5    5    0    0 -0.55867501192E+02  0.28906832820E+02 -0.16677606678E+03  0.19568552261E+03  0.80757567058E+02 0.  0.
          5    1    3    3  501    0  0.62847253964E+02  0.23047830983E+01 -0.26436976991E+03  0.27178770133E+03  0.47000000000E+01 0. -1.
        -11    1    4    4    0    0 -0.66451916451E+02 -0.20443053830E+02 -0.12372844811E+03  0.14192429151E+03  0.00000000000E+00 0.  1.
         12    1    4    4    0    0  0.41213766741E+01  0.32670355149E+02 -0.58856268377E+02  0.67441813280E+02  0.00000000000E+00 0. -1.
         -5    1    5    5    0  502  0.55350787005E+02 -0.43438917238E+02 -0.14338365798E+03  0.15978614624E+03  0.47000000000E+01 0.  1.
         13    1    6    6    0    0 -0.51053187310E+02 -0.98552623839E+01 -0.13710707451E+03  0.14663527547E+03  0.00000000000E+00 0. -1.
        -14    1    6    6    0    0 -0.48143138811E+01  0.38762095204E+02 -0.29668992272E+02  0.49050247147E+02  0.00000000000E+00 0.  1.
<mgrwt>
<rscale>  2 0.17702592E+03</rscale>
<asrwt>0</asrwt>
<pdfrwt beam="1">  1       21 0.61162513E-02 0.17815912E+03</pdfrwt>
<pdfrwt beam="2">  1       21 0.12259536E+00 0.17815912E+03</pdfrwt>
<totfact> 0.96157714E+04</totfact>
</mgrwt>
</event>
<event>
12    1  0.1029207E-001  0.6269268E+03  0.7546771E-02  0.9851101E-01
         21   -1    0    0  501  502  0.00000000000E+00  0.00000000000E+00  0.62713377544E+03  0.62713377544E+03  0.00000000000E+00 0.  1.
         21   -1    0    0  502  503 -0.00000000000E+00 -0.00000000000E+00 -0.90857894973E+03  0.90857894973E+03  0.00000000000E+00 0. -1.
         -6    2    1    2    0  503  0.60104768419E+03  0.40882535369E+02 -0.56846152250E+03  0.84627754316E+03  0.17351506312E+03 0.  0.
        -24    2    3    3    0    0  0.24463651879E+03  0.57025412365E+02 -0.30152925651E+03  0.40067184759E+03  0.80741023895E+02 0.  0.
          6    2    1    2  501    0 -0.60104768419E+03 -0.40882535369E+02  0.28701634822E+03  0.68943518201E+03  0.17324198592E+03 0.  0.
         24    2    5    5    0    0 -0.54326379439E+03  0.75275051575E+01  0.23330577308E+03  0.59675602672E+03  0.80585098168E+02 0.  0.
          5    1    5    5  501    0 -0.57783889801E+02 -0.48410040526E+02  0.53710575138E+02  0.92679155294E+02  0.47000000000E+01 0. -1.
        -11    1    6    6    0    0 -0.14713015464E+03  0.31153440425E+02  0.87409872651E+02  0.17394914513E+03  0.00000000000E+00 0.  1.
         12    1    6    6    0    0 -0.39613363974E+03 -0.23625935267E+02  0.14589590043E+03  0.42280688159E+03  0.00000000000E+00 0. -1.
         -5    1    3    3    0  503  0.35641116539E+03 -0.16142876997E+02 -0.26693226599E+03  0.44560569557E+03  0.47000000000E+01 0.  1.
         13    1    4    4    0    0  0.13194298459E+02  0.26719563257E+02 -0.25866279277E+02  0.39459966753E+02  0.00000000000E+00 0. -1.
        -14    1    4    4    0    0  0.23144222033E+03  0.30305849108E+02 -0.27566297723E+03  0.36121188084E+03  0.00000000000E+00 0.  1.
<mgrwt>
<rscale>  2 0.62690789E+03</rscale>
<asrwt>0</asrwt>
<pdfrwt beam="1">  1       21 0.96482120E-01 0.62692677E+03</pdfrwt>
<pdfrwt beam="2">  1       21 0.13978138E+00 0.62692677E+03</pdfrwt>
<totfact> 0.24543370E+02</totfact>
</mgrwt>
</event>
<event>
12    1  0.1029207E-001  0.1987925E+03  0.7546771E-02  0.1151033E+00
         21   -1    0    0  503  502  0.00000000000E+00  0.00000000000E+00  0.27105161613E+03  0.27105161613E+03  0.00000000000E+00 0. -1.
         21   -1    0    0  501  503 -0.00000000000E+00 -0.00000000000E+00 -0.14998871431E+03  0.14998871431E+03  0.00000000000E+00 0.  1.
          6    2    1    2  501    0  0.88672768690E+02 -0.42362852790E+02  0.21435028858E+02  0.19867983295E+03  0.17133809954E+03 0.  0.
         24    2    3    3    0    0 -0.17354708432E+02 -0.21866418527E+02 -0.13126417163E+02  0.85196295491E+02  0.79415236409E+02 0.  0.
         -6    2    1    2    0  502 -0.88672768690E+02  0.42362852790E+02  0.99627872962E+02  0.22236049749E+03  0.17280337546E+03 0.  0.
        -24    2    5    5    0    0 -0.88296216499E+02  0.44781326997E+02  0.13463918039E+03  0.18695043597E+03  0.83792407277E+02 0.  0.
          5    1    3    3  501    0  0.10602747712E+03 -0.20496434263E+02  0.34561446021E+02  0.11348353746E+03  0.47000000000E+01 0. -1.
        -11    1    4    4    0    0 -0.38242134070E+02  0.11587945754E+02  0.75488214159E+01  0.40666030170E+02  0.00000000000E+00 0.  1.
         12    1    4    4    0    0  0.20887425638E+02 -0.33454364281E+02 -0.20675238579E+02  0.44530265321E+02  0.00000000000E+00 0. -1.
         -5    1    5    5    0  502 -0.37655219133E+00 -0.24184742062E+01 -0.35011307431E+02  0.35410061523E+02  0.47000000000E+01 0.  1.
         11    1    6    6    0    0 -0.80959043139E+01  0.48415326760E+02  0.44678140902E+02  0.66375626599E+02  0.00000000000E+00 0. -1.
        -12    1    6    6    0    0 -0.80200312185E+02 -0.36339997632E+01  0.89961039491E+02  0.12057480937E+03  0.00000000000E+00 0.  1.
<mgrwt>
<rscale>  2 0.19847369E+03</rscale>
<asrwt>0</asrwt>
<pdfrwt beam="1">  1       21 0.41700249E-01 0.19879255E+03</pdfrwt>
<pdfrwt beam="2">  1       21 0.23075187E-01 0.19879255E+03</pdfrwt>
<totfact> 0.97412297E+04</totfact>
</mgrwt>
</event>
<event>
12    1  0.1029207E-001  0.2220744E+03  0.7546771E-02  0.1132418E+00
         21   -1    0    0  501  502  0.00000000000E+00  0.00000000000E+00  0.57018192378E+03  0.57018192378E+03  0.00000000000E+00 0. -1.
         21   -1    0    0  502  503 -0.00000000000E+00 -0.00000000000E+00 -0.89909022174E+02  0.89909022174E+02  0.00000000000E+00 0. -1.
         -6    2    1    2    0  503  0.12224615677E+03 -0.65407015261E+02  0.17459030809E+03  0.28248686472E+03  0.17347868045E+03 0.  0.
        -24    2    3    3    0    0 -0.21568662561E+01 -0.18471398998E+02  0.97044174096E+02  0.12849154950E+03  0.82138066171E+02 0.  0.
          6    2    1    2  501    0 -0.12224615677E+03  0.65407015261E+02  0.30568259352E+03  0.37760408123E+03  0.17297628072E+03 0.  0.
         24    2    5    5    0    0 -0.41353856596E+02  0.20039378459E+02  0.60635308300E+02  0.11555055866E+03  0.86968803893E+02 0.  0.
          5    1    5    5  501    0 -0.80892300178E+02  0.45367636802E+02  0.24504728522E+03  0.26205352257E+03  0.47000000000E+01 0. -1.
        -13    1    6    6    0    0  0.15098176811E+02  0.30289481300E+02  0.44580334611E+02  0.55971545043E+02  0.00000000000E+00 0.  1.
         14    1    6    6    0    0 -0.56452033407E+02 -0.10250102841E+02  0.16054973689E+02  0.59579013622E+02  0.00000000000E+00 0. -1.
         -5    1    3    3    0  503  0.12440302303E+03 -0.46935616262E+02  0.77546133994E+02  0.15399531522E+03  0.47000000000E+01 0.  1.
         11    1    4    4    0    0  0.22254880456E+02 -0.42849185965E+02  0.44683854566E+02  0.65787379495E+02  0.00000000000E+00 0. -1.
        -12    1    4    4    0    0 -0.24411746712E+02  0.24377786966E+02  0.52360319530E+02  0.62704170006E+02  0.00000000000E+00 0.  1.
<mgrwt>
<rscale>  2 0.22197631E+03</rscale>
<asrwt>0</asrwt>
<pdfrwt beam="1">  1       21 0.87720294E-01 0.22207443E+03</pdfrwt>
<pdfrwt beam="2">  1       21 0.13832158E-01 0.22207443E+03</pdfrwt>
<totfact> 0.49935364E+04</totfact>
</mgrwt>
</event>
<event>
12    1  0.1029207E-001  0.1952394E+03  0.7546771E-02  0.1154275E+00
         21   -1    0    0  503  502  0.00000000000E+00  0.00000000000E+00  0.14772743758E+03  0.14772743758E+03  0.00000000000E+00 0.  1.
         21   -1    0    0  501  503 -0.00000000000E+00 -0.00000000000E+00 -0.54487404896E+03  0.54487404896E+03  0.00000000000E+00 0.  1.
          6    2    1    2  501    0  0.85100652627E+02 -0.26200095210E+02 -0.45153315773E+03  0.49193556848E+03  0.17375225160E+03 0.  0.
         24    2    3    3    0    0  0.12361045777E+03 -0.50295054552E+02 -0.35114590230E+03  0.38164838332E+03  0.67401083123E+02 0.  0.
         -6    2    1    2    0  502 -0.85100652627E+02  0.26200095210E+02  0.54386546355E+02  0.20066591807E+03  0.17140696655E+03 0.  0.
        -24    2    5    5    0    0 -0.45013699039E+02  0.69656525014E+02  0.74118041978E+02  0.13816114178E+03  0.81955795236E+02 0.  0.
          5    1    3    3  501    0 -0.38509805138E+02  0.24094959342E+02 -0.10038725543E+03  0.11028718516E+03  0.47000000000E+01 0. -1.
        -11    1    4    4    0    0  0.31493490725E+02 -0.47921028345E+02 -0.13733791335E+03  0.14882865101E+03  0.00000000000E+00 0.  1.
         12    1    4    4    0    0  0.92116967040E+02 -0.23740262073E+01 -0.21380798894E+03  0.23281973231E+03  0.00000000000E+00 0. -1.
         -5    1    5    5    0  502 -0.40086953588E+02 -0.43456429803E+02 -0.19731495624E+02  0.62504776288E+02  0.47000000000E+01 0.  1.
         11    1    6    6    0    0 -0.31822994145E+02  0.74260467061E+02  0.21336353634E+02  0.83561713188E+02  0.00000000000E+00 0. -1.
        -12    1    6    6    0    0 -0.13190704894E+02 -0.46039420475E+01  0.52781688345E+02  0.54599428591E+02  0.00000000000E+00 0.  1.
<mgrwt>
<rscale>  2 0.19471622E+03</rscale>
<asrwt>0</asrwt>
<pdfrwt beam="1">  1       21 0.22727298E-01 0.19523937E+03</pdfrwt>
<pdfrwt beam="2">  1       21 0.83826776E-01 0.19523937E+03</pdfrwt>
<totfact> 0.22420377E+04</totfact>
</mgrwt>
</event>
<event>
12    1  0.1029207E-001  0.1778483E+03  0.7546771E-02  0.1170012E+00
         21   -1    0    0  503  502  0.00000000000E+00  0.00000000000E+00  0.84209264606E+03  0.84209264606E+03  0.00000000000E+00 0.  1.
         21   -1    0    0  501  503 -0.00000000000E+00 -0.00000000000E+00 -0.56509943816E+02  0.56509943816E+02  0.00000000000E+00 0.  1.
          6    2    1    2  501    0 -0.22921237599E+01 -0.39863444910E+02  0.13229844536E+03  0.22165940797E+03  0.17330801028E+03 0.  0.
         24    2    3    3    0    0  0.56813345502E+02 -0.17204532720E+02  0.35012480881E+02  0.10549774613E+03  0.79875831437E+02 0.  0.
         -6    2    1    2    0  502  0.22921237599E+01  0.39863444910E+02  0.65328425689E+03  0.67694318190E+03  0.17285081184E+03 0.  0.
        -24    2    5    5    0    0  0.23804054932E+02 -0.36246909781E+02  0.26438428526E+03  0.28005424630E+03  0.81552799317E+02 0.  0.
          5    1    3    3  501    0 -0.59105469262E+02 -0.22658912190E+02  0.97285964475E+02  0.11616166184E+03  0.47000000000E+01 0. -1.
        -13    1    4    4    0    0  0.68208054968E+01  0.17264530642E+02 -0.17280031840E+02  0.25361129831E+02  0.00000000000E+00 0.  1.
         14    1    4    4    0    0  0.49992540006E+02 -0.34469063362E+02  0.52292512721E+02  0.80136616299E+02  0.00000000000E+00 0. -1.
         -5    1    5    5    0  502 -0.21511931172E+02  0.76110354691E+02  0.38889997163E+03  0.39688893560E+03  0.47000000000E+01 0.  1.
         11    1    6    6    0    0  0.54353056195E+02 -0.21798226066E+02  0.16561143383E+03  0.17566036660E+03  0.00000000000E+00 0. -1.
        -12    1    6    6    0    0 -0.30549001264E+02 -0.14448683715E+02  0.98772851436E+02  0.10439387971E+03  0.00000000000E+00 0.  1.
<mgrwt>
<rscale>  2 0.17773681E+03</rscale>
<asrwt>0</asrwt>
<pdfrwt beam="1">  1       21 0.12955271E+00 0.17784829E+03</pdfrwt>
<pdfrwt beam="2">  1       21 0.86938381E-02 0.17784829E+03</pdfrwt>
<totfact> 0.45621754E+04</totfact>
</mgrwt>
</event>
<event>
12    1  0.1029207E-001  0.2069785E+03  0.7546771E-02  0.1145719E+00
         21   -1    0    0  501  502  0.00000000000E+00  0.00000000000E+00  0.21765940937E+02  0.21765940937E+02  0.00000000000E+00 0. -1.
         21   -1    0    0  502  503 -0.00000000000E+00 -0.00000000000E+00 -0.26086397015E+04  0.26086397015E+04  0.00000000000E+00 0. -1.
         -6    2    1    2    0  503 -0.92627612729E+02  0.36560941057E+02 -0.19646931271E+04  0.19747007859E+04  0.17177756838E+03 0.  0.
        -24    2    3    3    0    0 -0.11292551557E+03  0.12838253296E+02 -0.18636639894E+04  0.18688530300E+04  0.80319295711E+02 0.  0.
          6    2    1    2  501    0  0.92627612729E+02 -0.36560941057E+02 -0.62218063337E+03  0.65570485648E+03  0.18144845331E+03 0.  0.
         24    2    5    5    0    0  0.13547963766E+03 -0.28463698348E+02 -0.52839637083E+03  0.55217013147E+03  0.80772613217E+02 0.  0.
          5    1    5    5  501    0 -0.42852024926E+02 -0.80972427099E+01 -0.93784262549E+02  0.10353472500E+03  0.47000000000E+01 0. -1.
        -11    1    6    6    0    0  0.92689485598E+01 -0.18631704934E+02 -0.18528573422E+03  0.18645068286E+03  0.00000000000E+00 0.  1.
         12    1    6    6    0    0  0.12621068910E+03 -0.98319934134E+01 -0.34311063661E+03  0.36571944861E+03  0.00000000000E+00 0. -1.
         -5    1    3    3    0  503  0.20297902841E+02  0.23722687761E+02 -0.10102913770E+03  0.10584775594E+03  0.47000000000E+01 0.  1.
         11    1    4    4    0    0 -0.66555429466E+02 -0.21259399664E+02 -0.63308485062E+03  0.63692857947E+03  0.00000000000E+00 0. -1.
        -12    1    4    4    0    0 -0.46370086105E+02  0.34097652960E+02 -0.12305791388E+04  0.12319244505E+04  0.00000000000E+00 0.  1.
<mgrwt>
<rscale>  2 0.20483975E+03</rscale>
<asrwt>0</asrwt>
<pdfrwt beam="1">  1       21 0.33486071E-02 0.20697855E+03</pdfrwt>
<pdfrwt beam="2">  1       21 0.40132909E+00 0.20697855E+03</pdfrwt>
<totfact> 0.44221337E+03</totfact>
</mgrwt>
</event>
<event>
12    1  0.1029207E-001  0.2423148E+03  0.7546771E-02  0.1118276E+00
         21   -1    0    0  503  502  0.00000000000E+00  0.00000000000E+00  0.33800150608E+03  0.33800150608E+03  0.00000000000E+00 0. -1.
         21   -1    0    0  501  503 -0.00000000000E+00 -0.00000000000E+00 -0.19942643094E+03  0.19942643094E+03  0.00000000000E+00 0. -1.
          6    2    1    2  501    0  0.22239337909E+02  0.16795419436E+03 -0.27332511343E+02  0.24375841723E+03  0.17311239193E+03 0.  0.
         24    2    3    3    0    0 -0.14993340551E+02  0.39397567814E+02 -0.56972782727E+02  0.10659532357E+03  0.79622210627E+02 0.  0.
         -6    2    1    2    0  502 -0.22239337909E+02 -0.16795419436E+03  0.16590758648E+03  0.29366951979E+03  0.17324335498E+03 0.  0.
        -24    2    5    5    0    0 -0.40796570109E+02 -0.12754579876E+03  0.44183774426E+02  0.16399305422E+03  0.83721114384E+02 0.  0.
          5    1    3    3  501    0  0.37232678460E+02  0.12855662655E+03  0.29640271384E+02  0.13716309366E+03  0.47000000000E+01 0. -1.
        -11    1    4    4    0    0 -0.42028226683E+02  0.19170986559E+02 -0.76505219484E+01  0.46823381444E+02  0.00000000000E+00 0.  1.
         12    1    4    4    0    0  0.27034886132E+02  0.20226581256E+02 -0.49322260779E+02  0.59771942128E+02  0.00000000000E+00 0. -1.
         -5    1    5    5    0  502  0.18557232201E+02 -0.40408395597E+02  0.12172381206E+03  0.12967646557E+03  0.47000000000E+01 0.  1.
         13    1    6    6    0    0 -0.42192927796E+02 -0.12707562882E+03  0.60982175683E+02  0.14713016124E+03  0.00000000000E+00 0. -1.
        -14    1    6    6    0    0  0.13963576870E+01 -0.47016994148E+00 -0.16798401258E+02  0.16862892972E+02  0.00000000000E+00 0.  1.
<mgrwt>
<rscale>  2 0.24229139E+03</rscale>
<asrwt>0</asrwt>
<pdfrwt beam="1">  1       21 0.52000232E-01 0.24231479E+03</pdfrwt>
<pdfrwt beam="2">  1       21 0.30680989E-01 0.24231479E+03</pdfrwt>
<totfact> 0.34939010E+04</totfact>
</mgrwt>
</event>
<event>
12    1  0.1029207E-001  0.1968330E+03  0.7546771E-02  0.1152488E+00
         21   -1    0    0  503  502  0.00000000000E+00  0.00000000000E+00  0.45618065528E+03  0.45618065528E+03  0.00000000000E+00 0.  1.
         21   -1    0    0  501  503 -0.00000000000E+00 -0.00000000000E+00 -0.12447097119E+03  0.12447097119E+03  0.00000000000E+00 0.  1.
          6    2    1    2  501    0 -0.51559987611E+01  0.93045953916E+02  0.20821569588E+01  0.19684399297E+03  0.17337557015E+03 0.  0.
         24    2    3    3    0    0 -0.44152528747E+02  0.90672792342E+02 -0.43829973177E+02  0.13637602673E+03  0.80661967824E+02 0.  0.
         -6    2    1    2    0  502  0.51559987611E+01 -0.93045953916E+02  0.32962752713E+03  0.38380763350E+03  0.17311804940E+03 0.  0.
        -24    2    5    5    0    0 -0.46448870411E+02 -0.96520399700E+02  0.28828221263E+03  0.31742496011E+03  0.78602074140E+02 0.  0.
          5    1    3    3  501    0  0.38996529986E+02  0.23731615745E+01  0.45912130136E+02  0.60467966234E+02  0.47000000000E+01 0. -1.
        -11    1    4    4    0    0 -0.18332128145E+02  0.77541454773E+02  0.47441534786E+01  0.79820117282E+02  0.00000000000E+00 0.  1.
         12    1    4    4    0    0 -0.25820400602E+02  0.13131337569E+02 -0.48574126656E+02  0.56555909452E+02  0.00000000000E+00 0. -1.
         -5    1    5    5    0  502  0.51604869172E+02  0.34744457840E+01  0.41345314496E+02  0.66382673391E+02  0.47000000000E+01 0.  1.
         11    1    6    6    0    0  0.14616418143E+00 -0.12714065286E+02 -0.91267513347E+00  0.12747619228E+02  0.00000000000E+00 0. -1.
        -12    1    6    6    0    0 -0.46595034593E+02 -0.83806334414E+02  0.28919488777E+03  0.30467734088E+03  0.00000000000E+00 0.  1.
<mgrwt>
<rscale>  2 0.19677626E+03</rscale>
<asrwt>0</asrwt>
<pdfrwt beam="1">  1       21 0.70181638E-01 0.19683298E+03</pdfrwt>
<pdfrwt beam="2">  1       21 0.19149380E-01 0.19683298E+03</pdfrwt>
<totfact> 0.46019667E+04</totfact>
</mgrwt>
</event>
<event>
12    1  0.1029207E-001  0.1810018E+03  0.7546771E-02  0.1167461E+00
         21   -1    0    0  503  502  0.00000000000E+00  0.00000000000E+00  0.46905353900E+02  0.46905353900E+02  0.00000000000E+00 0. -1.
         21   -1    0    0  501  503 -0.00000000000E+00 -0.00000000000E+00 -0.79531266037E+03  0.79531266037E+03  0.00000000000E+00 0.  1.
          6    2    1    2  501    0 -0.54641143159E+01 -0.52179431507E+02 -0.22224046809E+03  0.28662251022E+03  0.17323131383E+03 0.  0.
         24    2    3    3    0    0 -0.29054497314E+01  0.12652404439E+02 -0.34458393120E+02  0.87891759212E+02  0.79806362558E+02 0.  0.
         -6    2    1    2    0  502  0.54641143159E+01  0.52179431507E+02 -0.52616683839E+03  0.55559550405E+03  0.17053525351E+03 0.  0.
        -24    2    5    5    0    0 -0.34222146342E+02  0.67500643683E+02 -0.24132552859E+03  0.26755661676E+03  0.87298569433E+02 0.  0.
          5    1    3    3  501    0 -0.25586645845E+01 -0.64831835946E+02 -0.18778207496E+03  0.19873075100E+03  0.47000000000E+01 0. -1.
        -11    1    4    4    0    0 -0.32895575886E+02 -0.18364416258E+02 -0.14751635119E+02  0.40459627236E+02  0.00000000000E+00 0.  1.
         12    1    4    4    0    0  0.29990126155E+02  0.31016820697E+02 -0.19706758002E+02  0.47432131977E+02  0.00000000000E+00 0. -1.
         -5    1    5    5    0  502  0.39686260658E+02 -0.15321212176E+02 -0.28484130980E+03  0.28803888730E+03  0.47000000000E+01 0.  1.
         11    1    6    6    0    0  0.60198368445E+01  0.69706883966E+02 -0.11163730014E+03  0.13175042653E+03  0.00000000000E+00 0. -1.
        -12    1    6    6    0    0 -0.40241983187E+02 -0.22062402825E+01 -0.12968822844E+03  0.13580619023E+03  0.00000000000E+00 0.  1.
<mgrwt>
<rscale>  2 0.18035364E+03</rscale>
<asrwt>0</asrwt>
<pdfrwt beam="1">  1       21 0.72162082E-02 0.18100176E+03</pdfrwt>
<pdfrwt beam="2">  1       21 0.12235579E+00 0.18100176E+03</pdfrwt>
<totfact> 0.72616314E+04</totfact>
</mgrwt>
</event>
<event>
12    1  0.1029207E-001  0.1805008E+03  0.7546771E-02  0.1167842E+00
         21   -1    0    0  503  502  0.00000000000E+00  0.00000000000E+00  0.48377524392E+03  0.48377524392E+03  0.00000000000E+00 0.  1.
         21   -1    0    0  501  503 -0.00000000000E+00 -0.00000000000E+00 -0.16702822931E+03  0.16702822931E+03  0.00000000000E+00 0.  1.
          6    2    1    2  501    0 -0.53232218980E+02 -0.35276858224E+00 -0.93635638447E+02  0.20334251515E+03  0.17247246765E+03 0.  0.
         24    2    3    3    0    0 -0.11709608182E+02 -0.62638912919E+02 -0.50545007269E+02  0.11684058755E+03  0.83881921796E+02 0.  0.
         -6    2    1    2    0  502  0.53232218980E+02  0.35276858224E+00  0.41038265305E+03  0.44746095808E+03  0.17021631384E+03 0.  0.
        -24    2    5    5    0    0  0.19479589150E+02 -0.45008856499E+02  0.24434444562E+03  0.27199673558E+03  0.10896221594E+03 0.  0.
          5    1    3    3  501    0 -0.41522610798E+02  0.62286144336E+02 -0.43090631178E+02  0.86501927603E+02  0.47000000000E+01 0. -1.
        -11    1    4    4    0    0 -0.47480287548E+02 -0.38360880972E+02 -0.37687504493E+02  0.71737597461E+02  0.00000000000E+00 0.  1.
         12    1    4    4    0    0  0.35770679366E+02 -0.24278031947E+02 -0.12857502777E+02  0.45102990091E+02  0.00000000000E+00 0. -1.
         -5    1    5    5    0  502  0.33752629830E+02  0.45361625081E+02  0.16603820743E+03  0.17546422250E+03  0.47000000000E+01 0.  1.
         11    1    6    6    0    0  0.22607212945E+02 -0.34950137791E+02  0.17904497747E+02  0.45311910667E+02  0.00000000000E+00 0. -1.
        -12    1    6    6    0    0 -0.31276237953E+01 -0.10058718708E+02  0.22643994787E+03  0.22668482491E+03  0.00000000000E+00 0.  1.
<mgrwt>
<rscale>  2 0.17995975E+03</rscale>
<asrwt>0</asrwt>
<pdfrwt beam="1">  1       21 0.74426960E-01 0.18050082E+03</pdfrwt>
<pdfrwt beam="2">  1       21 0.25696651E-01 0.18050082E+03</pdfrwt>
<totfact> 0.23408501E+04</totfact>
</mgrwt>
</event>
<event>
12    1  0.1029207E-001  0.1805507E+03  0.7546771E-02  0.1167852E+00
         21   -1    0    0  501  502  0.00000000000E+00  0.00000000000E+00  0.86988152292E+02  0.86988152292E+02  0.00000000000E+00 0. -1.
         21   -1    0    0  502  503 -0.00000000000E+00 -0.00000000000E+00 -0.66893581644E+03  0.66893581644E+03  0.00000000000E+00 0. -1.
         -6    2    1    2    0  503 -0.54635627599E+02  0.44016830188E+01 -0.54479397258E+03  0.57393295901E+03  0.17202948079E+03 0.  0.
        -24    2    3    3    0    0 -0.64201604661E+02  0.28756107583E+02 -0.53482983090E+03  0.54554246707E+03  0.81393338756E+02 0.  0.
          6    2    1    2  501    0  0.54635627599E+02 -0.44016830188E+01 -0.37153691566E+02  0.18199100972E+03  0.16951667825E+03 0.  0.
         24    2    5    5    0    0 -0.18325108188E+01 -0.57110821652E+02 -0.35284550618E+02  0.10457985006E+03  0.80168207421E+02 0.  0.
          5    1    5    5  501    0  0.56468138418E+02  0.52709138633E+02 -0.18691409484E+01  0.77411159659E+02  0.47000000000E+01 0. -1.
        -13    1    6    6    0    0 -0.33813555477E+02 -0.59270597080E+01  0.65600780677E+00  0.34335359574E+02  0.00000000000E+00 0.  1.
         14    1    6    6    0    0  0.31981044659E+02 -0.51183761944E+02 -0.35940558425E+02  0.70244490489E+02  0.00000000000E+00 0. -1.
         -5    1    3    3    0  503  0.95659770618E+01 -0.24354424564E+02 -0.99641416804E+01  0.28390491937E+02  0.47000000000E+01 0.  1.
         11    1    4    4    0    0  0.15554136907E+02  0.17350356670E+02 -0.19011588455E+03  0.19153854862E+03  0.00000000000E+00 0. -1.
        -12    1    4    4    0    0 -0.79755741568E+02  0.11405750913E+02 -0.34471394635E+03  0.35400391845E+03  0.00000000000E+00 0.  1.
<mgrwt>
<rscale>  2 0.17994960E+03</rscale>
<asrwt>0</asrwt>
<pdfrwt beam="1">  1       21 0.13382793E-01 0.18055074E+03</pdfrwt>
<pdfrwt beam="2">  1       21 0.10291320E+00 0.18055074E+03</pdfrwt>
<totfact> 0.37224368E+04</totfact>
</mgrwt>
</event>
<event>
12    1  0.1029207E-001  0.2185416E+03  0.7546771E-02  0.1134998E+00
         21   -1    0    0  501  502  0.00000000000E+00  0.00000000000E+00  0.59764232744E+03  0.59764232744E+03  0.00000000000E+00 0. -1.
         21   -1    0    0  502  503 -0.00000000000E+00 -0.00000000000E+00 -0.24830551221E+03  0.24830551221E+03  0.00000000000E+00 0. -1.
         -6    2    1    2    0  503 -0.12992457832E+03  0.26642203344E+02 -0.17371464448E+03  0.27907635619E+03  0.17354144123E+03 0.  0.
        -24    2    3    3    0    0 -0.13057291839E+03  0.13785281305E+02 -0.61360044228E+02  0.16588904688E+03  0.80714310071E+02 0.  0.
          6    2    1    2  501    0  0.12992457832E+03 -0.26642203344E+02  0.52305145972E+03  0.56687148346E+03  0.17369584394E+03 0.  0.
         24    2    5    5    0    0  0.95998108121E+02  0.17327795189E+02  0.18743108878E+03  0.22665465623E+03  0.82012382587E+02 0.  0.
          5    1    5    5  501    0  0.33926470199E+02 -0.43969998533E+02  0.33562037093E+03  0.34021682724E+03  0.47000000000E+01 0. -1.
        -13    1    6    6    0    0  0.18984450467E+02 -0.85796879155E+01 -0.16053353244E+01  0.20894915787E+02  0.00000000000E+00 0.  1.
         14    1    6    6    0    0  0.77013657654E+02  0.25907483104E+02  0.18903642411E+03  0.20575974044E+03  0.00000000000E+00 0. -1.
         -5    1    3    3    0  503  0.64834006956E+00  0.12856922039E+02 -0.11235460026E+03  0.11318730931E+03  0.47000000000E+01 0.  1.
         11    1    4    4    0    0 -0.27604781010E+02 -0.19999029061E+02 -0.44750457631E+02  0.56254675861E+02  0.00000000000E+00 0. -1.
        -12    1    4    4    0    0 -0.10296813738E+03  0.33784310366E+02 -0.16609586597E+02  0.10963437102E+03  0.00000000000E+00 0.  1.
<mgrwt>
<rscale>  2 0.21851096E+03</rscale>
<asrwt>0</asrwt>
<pdfrwt beam="1">  1       21 0.91944973E-01 0.21854164E+03</pdfrwt>
<pdfrwt beam="2">  1       21 0.38200848E-01 0.21854164E+03</pdfrwt>
<totfact> 0.64828917E+03</totfact>
</mgrwt>
</event>
<event>
12    1  0.1029207E-001  0.5110231E+03  0.7546771E-02  0.1010958E+00
         21   -1    0    0  503  502  0.00000000000E+00  0.00000000000E+00  0.43935684984E+03  0.43935684984E+03  0.00000000000E+00 0.  1.
         21   -1    0    0  501  503 -0.00000000000E+00 -0.00000000000E+00 -0.89322360406E+03  0.89322360406E+03  0.00000000000E+00 0. -1.
          6    2    1    2  501    0  0.46062108489E+03  0.13503339791E+03 -0.61257181076E+03  0.79773982889E+03  0.17532486661E+03 0.  0.
         24    2    3    3    0    0  0.32911055723E+03  0.10969761813E+03 -0.33298717515E+03  0.48769696234E+03  0.81366712858E+02 0.  0.
         -6    2    1    2    0  502 -0.46062108489E+03 -0.13503339791E+03  0.15870505654E+03  0.53484062501E+03  0.17453193633E+03 0.  0.
        -24    2    5    5    0    0 -0.38851627325E+03 -0.63718880666E+02  0.88544915741E+02  0.41143317148E+03  0.80200138136E+02 0.  0.
          5    1    3    3  501    0  0.13151052766E+03  0.25335779781E+02 -0.27958463562E+03  0.31004286655E+03  0.47000000000E+01 0. -1.
        -11    1    4    4    0    0  0.22442030476E+02 -0.11630115500E+02 -0.35311421159E+02  0.43425807796E+02  0.00000000000E+00 0.  1.
         12    1    4    4    0    0  0.30666852675E+03  0.12132773363E+03 -0.29767575399E+03  0.44427115454E+03  0.00000000000E+00 0. -1.
         -5    1    5    5    0  502 -0.72104811641E+02 -0.71314517246E+02  0.70160140795E+02  0.12340745354E+03  0.47000000000E+01 0.  1.
         13    1    6    6    0    0  0.11534461792E+01 -0.18499099912E+00 -0.54578905167E+01  0.55815077399E+01  0.00000000000E+00 0. -1.
        -14    1    6    6    0    0 -0.38966971942E+03 -0.63533889667E+02  0.94002806258E+02  0.40585166374E+03  0.00000000000E+00 0.  1.
<mgrwt>
<rscale>  2 0.51095521E+03</rscale>
<asrwt>0</asrwt>
<pdfrwt beam="1">  1       21 0.67593363E-01 0.51102310E+03</pdfrwt>
<pdfrwt beam="2">  1       21 0.13741901E+00 0.51102310E+03</pdfrwt>
<totfact> 0.61414221E+02</totfact>
</mgrwt>
</event>
<event>
12    1  0.1029207E-001  0.2563973E+03  0.7546771E-02  0.1109757E+00
         21   -1    0    0  501  502  0.00000000000E+00  0.00000000000E+00  0.17645321363E+04  0.17645321363E+04  0.00000000000E+00 0. -1.
         21   -1    0    0  502  503 -0.00000000000E+00 -0.00000000000E+00 -0.23475479397E+03  0.23475479397E+03  0.00000000000E+00 0. -1.
         -6    2    1    2    0  503  0.17892229710E+03  0.62853992446E+02 -0.15228672490E+03  0.29821273413E+03  0.17255658623E+03 0.  0.
        -24    2    3    3    0    0  0.16110771916E+03  0.83793307147E+02 -0.17332536190E+03  0.26327667347E+03  0.79346771969E+02 0.  0.
          6    2    1    2  501    0 -0.17892229710E+03 -0.62853992446E+02  0.16820640672E+04  0.17010741961E+04  0.16837482512E+03 0.  0.
         24    2    5    5    0    0 -0.14558560166E+02 -0.30380699393E+02  0.46873090742E+03  0.47621934781E+03  0.77079602275E+02 0.  0.
          5    1    5    5  501    0 -0.16436373694E+03 -0.32473293053E+02  0.12133331598E+04  0.12248548483E+04  0.47000000000E+01 0. -1.
        -11    1    6    6    0    0 -0.10841991614E+02 -0.52329800366E+02  0.21611540964E+03  0.22262485727E+03  0.00000000000E+00 0.  1.
         12    1    6    6    0    0 -0.37165685517E+01  0.21949100974E+02  0.25261549778E+03  0.25359449054E+03  0.00000000000E+00 0. -1.
         -5    1    3    3    0  503  0.17814577945E+02 -0.20939314701E+02  0.21038637003E+02  0.34936060660E+02  0.47000000000E+01 0.  1.
         11    1    4    4    0    0  0.65227331196E+02 -0.19907523926E+01 -0.33808491162E+02  0.73495454993E+02  0.00000000000E+00 0. -1.
        -12    1    4    4    0    0  0.95880387963E+02  0.85784059540E+02 -0.13951687074E+03  0.18978121848E+03  0.00000000000E+00 0.  1.
<mgrwt>
<rscale>  2 0.25569558E+03</rscale>
<asrwt>0</asrwt>
<pdfrwt beam="1">  1       21 0.27146647E+00 0.25639732E+03</pdfrwt>
<pdfrwt beam="2">  1       21 0.36116123E-01 0.25639732E+03</pdfrwt>
<totfact> 0.34075416E+02</totfact>
</mgrwt>
</event>
<event>
12    1  0.1029207E-001  0.1807679E+03  0.7546771E-02  0.1167570E+00
         21   -1    0    0  501  502  0.00000000000E+00  0.00000000000E+00  0.44166470189E+03  0.44166470189E+03  0.00000000000E+00 0.  1.
         21   -1    0    0  502  503 -0.00000000000E+00 -0.00000000000E+00 -0.34866889809E+03  0.34866889809E+03  0.00000000000E+00 0. -1.
         -6    2    1    2    0  503  0.48955078205E+02  0.23292934667E+02 -0.30473387870E+03  0.35431592777E+03  0.17244674353E+03 0.  0.
        -24    2    3    3    0    0 -0.79992394584E+01 -0.73113645256E+01 -0.27469279529E+03  0.28286682615E+03  0.66633817755E+02 0.  0.
          6    2    1    2  501    0 -0.48955078205E+02 -0.23292934667E+02  0.39772968249E+03  0.43601767222E+03  0.17024496956E+03 0.  0.
         24    2    5    5    0    0 -0.90196601560E+02 -0.65302460615E+01  0.35111450190E+03  0.37138860724E+03  0.80436515944E+02 0.  0.
          5    1    5    5  501    0  0.41241523355E+02 -0.16762688605E+02  0.46615180592E+02  0.64629064975E+02  0.47000000000E+01 0. -1.
        -11    1    6    6    0    0 -0.17929835144E+02 -0.16862863703E+02  0.21956966498E+03  0.22094495454E+03  0.00000000000E+00 0.  1.
         12    1    6    6    0    0 -0.72266766416E+02  0.10332617642E+02  0.13154483692E+03  0.15044365270E+03  0.00000000000E+00 0. -1.
         -5    1    3    3    0  503  0.56954317664E+02  0.30604299192E+02 -0.30041083413E+02  0.71449101619E+02  0.47000000000E+01 0.  1.
         11    1    4    4    0    0  0.28091934843E+02 -0.12942518811E+02 -0.13146986602E+03  0.13505921393E+03  0.00000000000E+00 0. -1.
        -12    1    4    4    0    0 -0.36091174301E+02  0.56311542859E+01 -0.14322292926E+03  0.14780761221E+03  0.00000000000E+00 0.  1.
<mgrwt>
<rscale>  2 0.18024082E+03</rscale>
<asrwt>0</asrwt>
<pdfrwt beam="1">  1       21 0.67948416E-01 0.18076792E+03</pdfrwt>
<pdfrwt beam="2">  1       21 0.53641369E-01 0.18076792E+03</pdfrwt>
<totfact> 0.65633588E+03</totfact>
</mgrwt>
</event>
<event>
12    1  0.1029207E-001  0.2903208E+03  0.7546771E-02  0.1090463E+00
         21   -1    0    0  501  502  0.00000000000E+00  0.00000000000E+00  0.42545424702E+03  0.42545424702E+03  0.00000000000E+00 0. -1.
         21   -1    0    0  502  503 -0.00000000000E+00 -0.00000000000E+00 -0.55918232851E+03  0.55918232851E+03  0.00000000000E+00 0. -1.
         -6    2    1    2    0  503 -0.17519850455E+03  0.15304671747E+03 -0.46318695357E+03  0.54551325559E+03  0.17007276189E+03 0.  0.
        -24    2    3    3    0    0 -0.49810153568E+02  0.10693214155E+03 -0.31749552929E+03  0.34778396139E+03  0.78960359582E+02 0.  0.
          6    2    1    2  501    0  0.17519850455E+03 -0.15304671747E+03  0.32945887209E+03  0.43912331994E+03  0.17369032209E+03 0.  0.
         24    2    5    5    0    0  0.15611253668E+03 -0.70284135913E+02  0.15418040900E+03  0.24429378240E+03  0.81221116271E+02 0.  0.
          5    1    5    5  501    0  0.19085967877E+02 -0.82762581561E+02  0.17527846308E+03  0.19482953754E+03  0.47000000000E+01 0. -1.
        -11    1    6    6    0    0  0.27264425150E+02 -0.43363156028E+02  0.16499859245E+02  0.53814101633E+02  0.00000000000E+00 0.  1.
         12    1    6    6    0    0  0.12884811153E+03 -0.26920979886E+02  0.13768054976E+03  0.19047968076E+03  0.00000000000E+00 0. -1.
         -5    1    3    3    0  503 -0.12538835099E+03  0.46114575919E+02 -0.14569142429E+03  0.19772929420E+03  0.47000000000E+01 0.  1.
         13    1    4    4    0    0 -0.50336004495E+02  0.70690250965E+02 -0.12666050066E+03  0.15353731585E+03  0.00000000000E+00 0. -1.
        -14    1    4    4    0    0  0.52585092694E+00  0.36241890589E+02 -0.19083502863E+03  0.19424664554E+03  0.00000000000E+00 0.  1.
<mgrwt>
<rscale>  2 0.28978183E+03</rscale>
<asrwt>0</asrwt>
<pdfrwt beam="1">  1       21 0.65454500E-01 0.29032076E+03</pdfrwt>
<pdfrwt beam="2">  1       21 0.86028050E-01 0.29032076E+03</pdfrwt>
<totfact> 0.23305108E+03</totfact>
</mgrwt>
</event>
<event>
12    1  0.1029207E-001  0.3422763E+03  0.7546771E-02  0.1065881E+00
         21   -1    0    0  503  502  0.00000000000E+00  0.00000000000E+00  0.18800578015E+03  0.18800578015E+03  0.00000000000E+00 0.  1.
         21   -1    0    0  501  503 -0.00000000000E+00 -0.00000000000E+00 -0.82936733696E+03  0.82936733696E+03  0.00000000000E+00 0. -1.
          6    2    1    2  501    0 -0.25104612863E+03  0.15607280679E+03 -0.66316437185E+02  0.34817212740E+03  0.17158986200E+03 0.  0.
         24    2    3    3    0    0 -0.10828948488E+03  0.50953422779E+02  0.29681603796E+02  0.14651088150E+03  0.79130126777E+02 0.  0.
         -6    2    1    2    0  502  0.25104612863E+03 -0.15607280679E+03 -0.57504511962E+03  0.66920098972E+03  0.17254041647E+03 0.  0.
        -24    2    5    5    0    0  0.84344825735E+02 -0.10336295593E+03 -0.36265306123E+03  0.39406442502E+03  0.77275985660E+02 0.  0.
          5    1    3    3  501    0 -0.14275664375E+03  0.10511938401E+03 -0.95998040981E+02  0.20166124591E+03  0.47000000000E+01 0. -1.
        -13    1    4    4    0    0 -0.66322647659E+02  0.31998323394E+02 -0.22420465130E+02  0.76975733508E+02  0.00000000000E+00 0.  1.
         14    1    4    4    0    0 -0.41966837223E+02  0.18955099385E+02  0.52102068926E+02  0.69535147987E+02  0.00000000000E+00 0. -1.
         -5    1    5    5    0  502  0.16670130289E+03 -0.52709850852E+02 -0.21239205839E+03  0.27513656469E+03  0.47000000000E+01 0.  1.
         13    1    6    6    0    0  0.88570589628E+02 -0.84304274086E+02 -0.23482298263E+03  0.26475232416E+03  0.00000000000E+00 0. -1.
        -14    1    6    6    0    0 -0.42257638935E+01 -0.19058681848E+02 -0.12783007861E+03  0.12931210087E+03  0.00000000000E+00 0.  1.
<mgrwt>
<rscale>  2 0.34215670E+03</rscale>
<asrwt>0</asrwt>
<pdfrwt beam="1">  1       21 0.28923966E-01 0.34227631E+03</pdfrwt>
<pdfrwt beam="2">  1       21 0.12759498E+00 0.34227631E+03</pdfrwt>
<totfact> 0.47255980E+03</totfact>
</mgrwt>
</event>
<event>
12    1  0.1029207E-001  0.2212708E+03  0.7546771E-02  0.1133522E+00
         21   -1    0    0  503  502  0.00000000000E+00  0.00000000000E+00  0.10421264108E+03  0.10421264108E+03  0.00000000000E+00 0.  1.
         21   -1    0    0  501  503 -0.00000000000E+00 -0.00000000000E+00 -0.13392530739E+04  0.13392530739E+04  0.00000000000E+00 0. -1.
          6    2    1    2  501    0 -0.32906456735E+02  0.13059200624E+03 -0.12027614594E+04  0.12229455845E+04  0.17556670373E+03 0.  0.
         24    2    3    3    0    0 -0.15903490622E+02 -0.57686269668E+01 -0.40060072641E+03  0.40908610358E+03  0.81143700125E+02 0.  0.
         -6    2    1    2    0  502  0.32906456735E+02 -0.13059200624E+03 -0.32278973409E+02  0.22052013046E+03  0.17161028182E+03 0.  0.
        -24    2    5    5    0    0  0.87021193078E+02 -0.70952116173E+02 -0.92981501925E+01  0.13664206770E+03  0.77315640299E+02 0.  0.
          5    1    3    3  501    0 -0.17002966114E+02  0.13636063320E+03 -0.80216073296E+03  0.81385948090E+03  0.47000000000E+01 0. -1.
        -13    1    4    4    0    0  0.26876665182E+02  0.19477021283E+02 -0.15579414613E+03  0.15929069482E+03  0.00000000000E+00 0.  1.
         14    1    4    4    0    0 -0.42780155804E+02 -0.25245648250E+02 -0.24480658029E+03  0.24979540876E+03  0.00000000000E+00 0. -1.
         -5    1    5    5    0  502 -0.54114736342E+02 -0.59639890063E+02 -0.22980823217E+02  0.83878062757E+02  0.47000000000E+01 0.  1.
         11    1    6    6    0    0  0.98456527917E+01  0.34116273680E+01 -0.26152574539E+02  0.28151966809E+02  0.00000000000E+00 0. -1.
        -12    1    6    6    0    0  0.77175540286E+02 -0.74363743541E+02  0.16854424346E+02  0.10849010089E+03  0.00000000000E+00 0.  1.
<mgrwt>
<rscale>  2 0.22048516E+03</rscale>
<asrwt>0</asrwt>
<pdfrwt beam="1">  1       21 0.16032715E-01 0.22127082E+03</pdfrwt>
<pdfrwt beam="2">  1       21 0.20603893E+00 0.22127082E+03</pdfrwt>
<totfact> 0.41584262E+03</totfact>
</mgrwt>
</event>
<event>
12    1  0.1029207E-001  0.1814544E+03  0.7546771E-02  0.1168382E+00
         21   -1    0    0  501  502  0.00000000000E+00  0.00000000000E+00  0.10374235381E+03  0.10374235381E+03  0.00000000000E+00 0. -1.
         21   -1    0    0  502  503 -0.00000000000E+00 -0.00000000000E+00 -0.11731020322E+04  0.11731020322E+04  0.00000000000E+00 0. -1.
         -6    2    1    2    0  503  0.70439119625E+01  0.69526334723E+01 -0.10811901515E+04  0.10950046863E+04  0.17310448772E+03 0.  0.
        -24    2    3    3    0    0  0.31786058016E+02  0.61569925790E+02 -0.54087774885E+03  0.55135516245E+03  0.81501942956E+02 0.  0.
          6    2    1    2  501    0 -0.70439119625E+01 -0.69526334723E+01  0.11830473079E+02  0.18183969967E+03  0.18118432734E+03 0.  0.
         24    2    5    5    0    0  0.57085544489E+02  0.32820456046E+02 -0.24461527182E+01  0.10489557787E+03  0.81615910635E+02 0.  0.
          5    1    5    5  501    0 -0.64129456452E+02 -0.39773089518E+02  0.14276625798E+02  0.76944121795E+02  0.47000000000E+01 0. -1.
        -11    1    6    6    0    0 -0.34424987274E+01 -0.10935567265E+02 -0.24474995973E+02  0.27027076364E+02  0.00000000000E+00 0.  1.
         12    1    6    6    0    0  0.60528043217E+02  0.43756023311E+02  0.22028843255E+02  0.77868501506E+02  0.00000000000E+00 0. -1.
         -5    1    3    3    0  503 -0.24742146053E+02 -0.54617292318E+02 -0.54031240260E+03  0.54364952388E+03  0.47000000000E+01 0.  1.
         13    1    4    4    0    0  0.35480679523E+02 -0.68115041652E+01 -0.13550208915E+03  0.14023584197E+03  0.00000000000E+00 0. -1.
        -14    1    4    4    0    0 -0.36946215072E+01  0.68381429955E+02 -0.40537565970E+03  0.41111932048E+03  0.00000000000E+00 0.  1.
<mgrwt>
<rscale>  2 0.17940311E+03</rscale>
<asrwt>0</asrwt>
<pdfrwt beam="1">  1       21 0.15960362E-01 0.18145445E+03</pdfrwt>
<pdfrwt beam="2">  1       21 0.18047724E+00 0.18145445E+03</pdfrwt>
<totfact> 0.63884080E+03</totfact>
</mgrwt>
</event>
<event>
12    1  0.1029207E-001  0.1900706E+03  0.7546771E-02  0.1158464E+00
         21   -1    0    0  503  502  0.00000000000E+00  0.00000000000E+00  0.31590564119E+03  0.31590564119E+03  0.00000000000E+00 0. -1.
         21   -1    0    0  501  503 -0.00000000000E+00 -0.00000000000E+00 -0.27229953301E+03  0.27229953301E+03  0.00000000000E+00 0.  1.
          6    2    1    2  501    0  0.77078886291E+02 -0.45052385294E+01 -0.20231619597E+03  0.27739231813E+03  0.17335859689E+03 0.  0.
         24    2    3    3    0    0  0.20883704114E+01  0.44412842219E+02 -0.83916935224E+02  0.12887622121E+03  0.87121561810E+02 0.  0.
         -6    2    1    2    0  502 -0.77078886291E+02  0.45052385294E+01  0.24592230416E+03  0.31081285608E+03  0.17368189294E+03 0.  0.
        -24    2    5    5    0    0 -0.40761411648E+02  0.66142900025E+02  0.18795384151E+03  0.21861419589E+03  0.80181944363E+02 0.  0.
          5    1    3    3  501    0  0.74990515879E+02 -0.48918080748E+02 -0.11839926075E+03  0.14851609691E+03  0.47000000000E+01 0. -1.
        -13    1    4    4    0    0  0.38820379336E+02  0.36447670995E+01 -0.53294994770E+02  0.66035313632E+02  0.00000000000E+00 0.  1.
         14    1    4    4    0    0 -0.36732008925E+02  0.40768075119E+02 -0.30621940453E+02  0.62840907582E+02  0.00000000000E+00 0. -1.
         -5    1    5    5    0  502 -0.36317474643E+02 -0.61637661496E+02  0.57968462647E+02  0.92198660190E+02  0.47000000000E+01 0.  1.
         13    1    6    6    0    0 -0.55065700664E+02  0.63468527030E+02  0.10543573324E+03  0.13482276943E+03  0.00000000000E+00 0. -1.
        -14    1    6    6    0    0  0.14304289017E+02  0.26743729958E+01  0.82518108271E+02  0.83791426458E+02  0.00000000000E+00 0.  1.
<mgrwt>
<rscale>  2 0.18999676E+03</rscale>
<asrwt>0</asrwt>
<pdfrwt beam="1">  1       21 0.48600868E-01 0.19007065E+03</pdfrwt>
<pdfrwt beam="2">  1       21 0.41892236E-01 0.19007065E+03</pdfrwt>
<totfact> 0.22204471E+04</totfact>
</mgrwt>
</event>
<event>
12    1  0.1029207E-001  0.2822551E+03  0.7546771E-02  0.1094801E+00
         21   -1    0    0  501  502  0.00000000000E+00  0.00000000000E+00  0.94221729990E+03  0.94221729990E+03  0.00000000000E+00 0. -1.
         21   -1    0    0  502  503 -0.00000000000E+00 -0.00000000000E+00 -0.32372782093E+03  0.32372782093E+03  0.00000000000E+00 0. -1.
         -6    2    1    2    0  503 -0.12303936925E+03 -0.18240863020E+03 -0.23601899736E+03  0.36602697597E+03  0.17279810550E+03 0.  0.
        -24    2    3    3    0    0 -0.46720164187E+02 -0.18050016235E+03 -0.13229630748E+03  0.23715203772E+03  0.63053102017E+02 0.  0.
          6    2    1    2  501    0  0.12303936925E+03  0.18240863020E+03  0.85450847634E+03  0.89991814486E+03  0.17679461689E+03 0.  0.
         24    2    5    5    0    0  0.38250740595E+02  0.17277797548E+03  0.53776750882E+03  0.57184987214E+03  0.80641396080E+02 0.  0.
          5    1    5    5  501    0  0.84788628656E+02  0.96306547195E+01  0.31674096752E+03  0.32806827272E+03  0.47000000000E+01 0. -1.
        -13    1    6    6    0    0  0.25236211330E+02  0.14162637005E+03  0.31194870008E+03  0.34352130434E+03  0.00000000000E+00 0.  1.
         14    1    6    6    0    0  0.13014529265E+02  0.31151605425E+02  0.22581880874E+03  0.22832856780E+03  0.00000000000E+00 0. -1.
         -5    1    3    3    0  503 -0.76319205065E+02 -0.19084678498E+01 -0.10372268988E+03  0.12887493825E+03  0.47000000000E+01 0.  1.
         13    1    4    4    0    0 -0.58718421258E+02 -0.16172998322E+03 -0.12803694488E+03  0.21447120954E+03  0.00000000000E+00 0. -1.
        -14    1    4    4    0    0  0.11998257072E+02 -0.18770179124E+02 -0.42593625973E+01  0.22680828178E+02  0.00000000000E+00 0.  1.
<mgrwt>
<rscale>  2 0.28163154E+03</rscale>
<asrwt>0</asrwt>
<pdfrwt beam="1">  1       21 0.14495651E+00 0.28225508E+03</pdfrwt>
<pdfrwt beam="2">  1       21 0.49804280E-01 0.28225508E+03</pdfrwt>
<totfact> 0.11637416E+03</totfact>
</mgrwt>
</event>
<event>
12    1  0.1029207E-001  0.1960578E+03  0.7546771E-02  0.1153575E+00
         21   -1    0    0  503  502  0.00000000000E+00  0.00000000000E+00  0.12323331093E+03  0.12323331093E+03  0.00000000000E+00 0.  1.
         21   -1    0    0  501  503 -0.00000000000E+00 -0.00000000000E+00 -0.53090698826E+03  0.53090698826E+03  0.00000000000E+00 0. -1.
          6    2    1    2  501    0 -0.41744046709E+02  0.82329751114E+02 -0.41486853879E+03  0.45795051466E+03  0.17053450103E+03 0.  0.
         24    2    3    3    0    0  0.28206833055E+02  0.48564269855E+01 -0.15914245104E+03  0.18170214184E+03  0.82886297476E+02 0.  0.
         -6    2    1    2    0  502  0.41744046709E+02 -0.82329751114E+02  0.71948614621E+01  0.19618978453E+03  0.17296795127E+03 0.  0.
        -24    2    5    5    0    0  0.22575942530E+02  0.11865092217E+02 -0.34742502499E+02  0.91209228117E+02  0.80384253553E+02 0.  0.
          5    1    3    3  501    0 -0.69950879763E+02  0.77473324129E+02 -0.25572608775E+03  0.27624837282E+03  0.47000000000E+01 0. -1.
        -13    1    4    4    0    0  0.32571979203E+02  0.10297047337E+02 -0.16742453499E+03  0.17087404112E+03  0.00000000000E+00 0.  1.
         14    1    4    4    0    0 -0.43651461486E+01 -0.54406203514E+01  0.82820839420E+01  0.10828100717E+02  0.00000000000E+00 0. -1.
         -5    1    5    5    0  502  0.19168104179E+02 -0.94194843331E+02  0.41937363961E+02  0.10498055641E+03  0.47000000000E+01 0.  1.
         13    1    6    6    0    0  0.26969872933E+02  0.52205878454E+01 -0.59320581343E+02  0.65372470921E+02  0.00000000000E+00 0. -1.
        -14    1    6    6    0    0 -0.43939304034E+01  0.66445043715E+01  0.24578078844E+02  0.25836757196E+02  0.00000000000E+00 0.  1.
<mgrwt>
<rscale>  2 0.19551973E+03</rscale>
<asrwt>0</asrwt>
<pdfrwt beam="1">  1       21 0.18958971E-01 0.19605781E+03</pdfrwt>
<pdfrwt beam="2">  1       21 0.81678000E-01 0.19605781E+03</pdfrwt>
<totfact> 0.33400087E+04</totfact>
</mgrwt>
</event>
<event>
12    1  0.1029207E-001  0.2950199E+03  0.7546771E-02  0.1087801E+00
         21   -1    0    0  501  502  0.00000000000E+00  0.00000000000E+00  0.83102944363E+02  0.83102944363E+02  0.00000000000E+00 0.  1.
         21   -1    0    0  502  503 -0.00000000000E+00 -0.00000000000E+00 -0.17688855415E+04  0.17688855415E+04  0.00000000000E+00 0. -1.
         -6    2    1    2    0  503 -0.23609779488E+03  0.35214626631E+02 -0.14345142997E+04  0.14644674842E+04  0.17277585903E+03 0.  0.
        -24    2    3    3    0    0 -0.16166945703E+03  0.57066075943E+02 -0.67314349097E+03  0.69914097757E+03  0.79261571543E+02 0.  0.
          6    2    1    2  501    0  0.23609779488E+03 -0.35214626631E+02 -0.25126829740E+03  0.38752100166E+03  0.17336242607E+03 0.  0.
         24    2    5    5    0    0  0.88719400129E+02 -0.29178354202E+02 -0.41775919058E+02  0.13126727114E+03  0.82239654336E+02 0.  0.
          5    1    5    5  501    0  0.14737839475E+03 -0.60362724290E+01 -0.20949237834E+03  0.25625373052E+03  0.47000000000E+01 0. -1.
        -11    1    6    6    0    0  0.65065057940E+02 -0.56651303156E+02 -0.39663160873E+02  0.94952610519E+02  0.00000000000E+00 0.  1.
         12    1    6    6    0    0  0.23654342189E+02  0.27472948954E+02 -0.21127581848E+01  0.36314660617E+02  0.00000000000E+00 0. -1.
         -5    1    3    3    0  503 -0.74428337843E+02 -0.21851449312E+02 -0.76137080872E+03  0.76532650659E+03  0.47000000000E+01 0.  1.
         13    1    4    4    0    0 -0.38104984779E+02 -0.17792819628E+02 -0.20258220705E+03  0.20690124433E+03  0.00000000000E+00 0. -1.
        -14    1    4    4    0    0 -0.12356447226E+03  0.74858895571E+02 -0.47056128393E+03  0.49223973324E+03  0.00000000000E+00 0.  1.
<mgrwt>
<rscale>  2 0.29493383E+03</rscale>
<asrwt>0</asrwt>
<pdfrwt beam="1">  1       21 0.12785069E-01 0.29501995E+03</pdfrwt>
<pdfrwt beam="2">  1       21 0.27213621E+00 0.29501995E+03</pdfrwt>
<totfact> 0.23483495E+03</totfact>
</mgrwt>
</event>
<event>
12    1  0.1029207E-001  0.1778591E+03  0.7546771E-02  0.1170324E+00
         21   -1    0    0  501  502  0.00000000000E+00  0.00000000000E+00  0.73258947677E+03  0.73258947677E+03  0.00000000000E+00 0.  1.
         21   -1    0    0  502  503 -0.00000000000E+00 -0.00000000000E+00 -0.12387275390E+03  0.12387275390E+03  0.00000000000E+00 0.  1.
         -6    2    1    2    0  503  0.13678477889E+02 -0.29980129331E+02 -0.42692551336E+02  0.18120828203E+03  0.17299675901E+03 0.  0.
        -24    2    3    3    0    0  0.20048720543E+02 -0.48010206124E+00  0.45720982290E+02  0.87667518040E+02  0.72062499292E+02 0.  0.
          6    2    1    2  501    0 -0.13678477889E+02  0.29980129331E+02  0.65140927420E+03  0.67525394864E+03  0.17477970056E+03 0.  0.
         24    2    5    5    0    0  0.10646883125E+02  0.25781252139E+02  0.15320505593E+03  0.17641641310E+03  0.82903151732E+02 0.  0.
          5    1    5    5  501    0 -0.24325361013E+02  0.41988771926E+01  0.49820421828E+03  0.49883753554E+03  0.47000000000E+01 0. -1.
        -11    1    6    6    0    0  0.97062521324E+01 -0.25368131345E+02  0.95556256742E+02  0.99341590590E+02  0.00000000000E+00 0.  1.
         12    1    6    6    0    0  0.94063099216E+00  0.51149383484E+02  0.57648799186E+02  0.77074822510E+02  0.00000000000E+00 0. -1.
         -5    1    3    3    0  503 -0.63702426540E+01 -0.29500027270E+02 -0.88413533627E+02  0.93540763995E+02  0.47000000000E+01 0.  1.
         13    1    4    4    0    0  0.34979071000E+01  0.34716086475E+02  0.28842684111E+02  0.45269663583E+02  0.00000000000E+00 0. -1.
        -14    1    4    4    0    0  0.16550813443E+02 -0.35196188536E+02  0.16878298179E+02  0.42397854456E+02  0.00000000000E+00 0.  1.
<mgrwt>
<rscale>  2 0.17741951E+03</rscale>
<asrwt>0</asrwt>
<pdfrwt beam="1">  1       21 0.11270607E+00 0.17785908E+03</pdfrwt>
<pdfrwt beam="2">  1       21 0.19057347E-01 0.17785908E+03</pdfrwt>
<totfact> 0.15704957E+04</totfact>
</mgrwt>
</event>
<event>
12    1  0.1029207E-001  0.1913796E+03  0.7546771E-02  0.1157533E+00
         21   -1    0    0  503  502  0.00000000000E+00  0.00000000000E+00  0.66310950384E+03  0.66310950384E+03  0.00000000000E+00 0.  1.
         21   -1    0    0  501  503 -0.00000000000E+00 -0.00000000000E+00 -0.11980983553E+03  0.11980983553E+03  0.00000000000E+00 0. -1.
          6    2    1    2  501    0 -0.14641433712E+02 -0.77291365126E+02 -0.17076284575E+02  0.19076448718E+03  0.17294844136E+03 0.  0.
         24    2    3    3    0    0  0.23698705199E+02 -0.64721481680E+01 -0.57043173413E+02  0.10073799138E+03  0.79313945462E+02 0.  0.
         -6    2    1    2    0  502  0.14641433712E+02  0.77291365126E+02  0.56037595288E+03  0.59215485219E+03  0.17446441958E+03 0.  0.
        -24    2    5    5    0    0 -0.12489355251E+02  0.11727578339E+03  0.41963013246E+03  0.44327130918E+03  0.80563093957E+02 0.  0.
          5    1    3    3  501    0 -0.38340138911E+02 -0.70819216958E+02  0.39966888838E+02  0.90026495798E+02  0.47000000000E+01 0. -1.
        -13    1    4    4    0    0  0.10295025027E+01  0.35342033025E+02 -0.21763715305E+02  0.41518411308E+02  0.00000000000E+00 0.  1.
         14    1    4    4    0    0  0.22669202696E+02 -0.41814181193E+02 -0.35279458109E+02  0.59219580074E+02  0.00000000000E+00 0. -1.
         -5    1    5    5    0  502  0.27130788962E+02 -0.39984418261E+02  0.14074582042E+03  0.14888354301E+03  0.47000000000E+01 0.  1.
         13    1    6    6    0    0  0.92681336089E+01  0.15804055561E+02  0.10357449697E+02  0.21046216690E+02  0.00000000000E+00 0. -1.
        -14    1    6    6    0    0 -0.21757488859E+02  0.10147172783E+03  0.40927268277E+03  0.42222509249E+03  0.00000000000E+00 0.  1.
<mgrwt>
<rscale>  2 0.19103344E+03</rscale>
<asrwt>0</asrwt>
<pdfrwt beam="1">  1       21 0.10201684E+00 0.19137962E+03</pdfrwt>
<pdfrwt beam="2">  1       21 0.18432283E-01 0.19137962E+03</pdfrwt>
<totfact> 0.21050842E+04</totfact>
</mgrwt>
</event>
<event>
11    1  0.1029207E-001  0.1780493E+03  0.7546771E-02  0.1170469E+00
         21   -1    0    0  501  502  0.00000000000E+00  0.00000000000E+00  0.38895891890E+02  0.38895891890E+02  0.00000000000E+00 0. -1.
         21   -1    0    0  502  503 -0.00000000000E+00 -0.00000000000E+00 -0.11650708862E+04  0.11650708862E+04  0.00000000000E+00 0. -1.
         -6    2    1    2    0  503  0.12757323074E+02 -0.36708790486E+02 -0.89622209404E+03  0.91314055534E+03  0.17059117026E+03 0.  0.
          6    2    1    2  501    0 -0.12757323074E+02  0.36708790486E+02 -0.22995290028E+03  0.29082622277E+03  0.17375635501E+03 0.  0.
         24    2    4    4    0    0 -0.29332941663E+02 -0.82578650610E+01 -0.22734990547E+03  0.24260157321E+03  0.78986897675E+02 0.  0.
          5    1    4    4  501    0  0.16575618590E+02  0.44966655547E+02 -0.26029948128E+01  0.48224649555E+02  0.47000000000E+01 0. -1.
        -13    1    5    5    0    0 -0.39747078463E+02  0.22362364198E+02 -0.17682377680E+03  0.18261038750E+03  0.00000000000E+00 0.  1.
         14    1    5    5    0    0  0.10414136799E+02 -0.30620229259E+02 -0.50526128670E+02  0.59991185715E+02  0.00000000000E+00 0. -1.
         -5    1    3    3    0  503  0.19702089905E+02 -0.22020145338E+01 -0.36982658497E+02  0.42223550824E+02  0.47000000000E+01 0.  1.
         13    1    3    3    0    0  0.38975009047E+02 -0.31828792577E+02 -0.75856442659E+03  0.76023161777E+03  0.00000000000E+00 0. -1.
        -14    1    3    3    0    0 -0.45919775878E+02 -0.26779833753E+01 -0.10067500895E+03  0.11068538674E+03  0.00000000000E+00 0.  1.
<mgrwt>
<rscale>  2 0.17727236E+03</rscale>
<asrwt>0</asrwt>
<pdfrwt beam="1">  1       21 0.59839838E-02 0.17804931E+03</pdfrwt>
<pdfrwt beam="2">  1       21 0.17924166E+00 0.17804931E+03</pdfrwt>
<totfact> 0.36825520E+04</totfact>
</mgrwt>
</event>
<event>
12    1  0.1029207E-001  0.2778338E+03  0.7546771E-02  0.1097133E+00
         21   -1    0    0  501  502  0.00000000000E+00  0.00000000000E+00  0.21533314595E+03  0.21533314595E+03  0.00000000000E+00 0.  1.
         21   -1    0    0  502  503 -0.00000000000E+00 -0.00000000000E+00 -0.39606262036E+03  0.39606262036E+03  0.00000000000E+00 0.  1.
         -6    2    1    2    0  503 -0.70185059089E+02 -0.20503432800E+03  0.64631227783E+01  0.27790891867E+03  0.17385792173E+03 0.  0.
        -24    2    3    3    0    0  0.34536354301E+02 -0.85615130873E+02  0.27118043536E+01  0.11896338884E+03  0.74981488376E+02 0.  0.
          6    2    1    2  501    0  0.70185059089E+02  0.20503432800E+03 -0.18719259719E+03  0.33348684764E+03  0.17090169961E+03 0.  0.
         24    2    5    5    0    0 -0.46366976989E+01  0.12531224314E+03 -0.48754753105E+02  0.15701862733E+03  0.80951628352E+02 0.  0.
          5    1    5    5  501    0  0.74821756788E+02  0.79722084855E+02 -0.13843784409E+03  0.17646822031E+03  0.47000000000E+01 0. -1.
        -13    1    6    6    0    0  0.23363881068E+02  0.98216684929E+02 -0.58730840665E+02  0.11679768740E+03  0.00000000000E+00 0.  1.
         14    1    6    6    0    0 -0.28000578767E+02  0.27095558211E+02  0.99760875597E+01  0.40220939933E+02  0.00000000000E+00 0. -1.
         -5    1    3    3    0  503 -0.10472141339E+03 -0.11941919712E+03  0.37513184247E+01  0.15894552983E+03  0.47000000000E+01 0.  1.
         11    1    4    4    0    0  0.20723303259E+01 -0.77659249137E+02 -0.17862556231E+02  0.79714016614E+02  0.00000000000E+00 0. -1.
        -12    1    4    4    0    0  0.32464023975E+02 -0.79558817357E+01  0.20574360584E+02  0.39249372228E+02  0.00000000000E+00 0.  1.
<mgrwt>
<rscale>  2 0.27737254E+03</rscale>
<asrwt>0</asrwt>
<pdfrwt beam="1">  1       21 0.33128176E-01 0.27783375E+03</pdfrwt>
<pdfrwt beam="2">  1       21 0.60932711E-01 0.27783375E+03</pdfrwt>
<totfact> 0.21055308E+04</totfact>
</mgrwt>
</event>
