<event>
 4    1  0.4084348E+006  0.5248144E+01  0.7546771E-02  0.2524930E+00
         21   -1    0    0  503  502  0.00000000000E+00  0.00000000000E+00  0.58325103148E+01  0.58325103148E+01  0.00000000000E+00 0.  1.
         21   -1    0    0  501  503 -0.00000000000E+00 -0.00000000000E+00 -0.67271087072E+01  0.67271087072E+01  0.00000000000E+00 0. -1.
          5    1    1    2  501    0  0.13512754471E+01  0.19044864698E+01 -0.38754973821E+01  0.65239937160E+01  0.47000000000E+01 0. -1.
         -5    1    1    2    0  502 -0.13512754471E+01 -0.19044864698E+01  0.29808989897E+01  0.60356253060E+01  0.47000000000E+01 0.  1.
<mgrwt>
<rscale>  2 0.52481439E+01</rscale>
<asrwt>0</asrwt>
<pdfrwt beam="1">  1       21 0.89730928E-03 0.52481439E+01</pdfrwt>
<pdfrwt beam="2">  1       21 0.10349398E-02 0.52481439E+01</pdfrwt>
<totfact> 0.30887903E+09</totfact>
</mgrwt>
</event>
<event>
 4    1  0.4084348E+006  0.5303174E+01  0.7546771E-02  0.2516027E+00
         21   -1    0    0  503  502  0.00000000000E+00  0.00000000000E+00  0.16000900066E+02  0.16000900066E+02  0.00000000000E+00 0. -1.
         21   -1    0    0  501  503 -0.00000000000E+00 -0.00000000000E+00 -0.86999805987E+01  0.86999805987E+01  0.00000000000E+00 0. -1.
          5    1    1    2  501    0 -0.22376041865E+01  0.10133015196E+01 -0.73821076731E+01  0.90895085765E+01  0.47000000000E+01 0. -1.
         -5    1    1    2    0  502  0.22376041865E+01 -0.10133015196E+01  0.14683027140E+02  0.15611372088E+02  0.47000000000E+01 0. -1.
<mgrwt>
<rscale>  2 0.53031738E+01</rscale>
<asrwt>0</asrwt>
<pdfrwt beam="1">  1       21 0.24616769E-02 0.53031738E+01</pdfrwt>
<pdfrwt beam="2">  1       21 0.13384586E-02 0.53031738E+01</pdfrwt>
<totfact> 0.52216104E+08</totfact>
</mgrwt>
</event>
<event>
 4    1  0.4084348E+006  0.7028763E+01  0.7546771E-02  0.2298104E+00
         21   -1    0    0  503  502  0.00000000000E+00  0.00000000000E+00  0.29388648638E+00  0.29388648638E+00  0.00000000000E+00 0. -1.
         21   -1    0    0  501  503 -0.00000000000E+00 -0.00000000000E+00 -0.18618541165E+03  0.18618541165E+03  0.00000000000E+00 0.  1.
          5    1    1    2  501    0  0.33491229659E+01  0.40120916776E+01 -0.12200227923E+03  0.12220458109E+03  0.47000000000E+01 0.  1.
         -5    1    1    2    0  502 -0.33491229659E+01 -0.40120916776E+01 -0.63889245941E+02  0.64274717044E+02  0.47000000000E+01 0. -1.
<mgrwt>
<rscale>  2 0.70287626E+01</rscale>
<asrwt>0</asrwt>
<pdfrwt beam="1">  1       21 0.45213431E-04 0.70287626E+01</pdfrwt>
<pdfrwt beam="2">  1       21 0.28643830E-01 0.70287626E+01</pdfrwt>
<totfact> 0.15681768E+09</totfact>
</mgrwt>
</event>
<event>
 4    1  0.4084348E+006  0.9305890E+01  0.7546771E-02  0.2116785E+00
         21   -1    0    0  501  502  0.00000000000E+00  0.00000000000E+00  0.22140709102E+03  0.22140709102E+03  0.00000000000E+00 0. -1.
         21   -1    0    0  502  503 -0.00000000000E+00 -0.00000000000E+00 -0.43635456982E+00  0.43635456982E+00  0.00000000000E+00 0. -1.
          5    1    1    2  501    0 -0.67286139930E+01 -0.43858117658E+01  0.14619375908E+03  0.14648964054E+03  0.47000000000E+01 0. -1.
         -5    1    1    2    0  503  0.67286139930E+01  0.43858117658E+01  0.74776977368E+02  0.75353805049E+02  0.47000000000E+01 0. -1.
<mgrwt>
<rscale>  2 0.93058901E+01</rscale>
<asrwt>0</asrwt>
<pdfrwt beam="1">  1       21 0.34062540E-01 0.93058901E+01</pdfrwt>
<pdfrwt beam="2">  1       21 0.67131649E-04 0.93058901E+01</pdfrwt>
<totfact> 0.81021014E+08</totfact>
</mgrwt>
</event>
<event>
 4    1  0.4084348E+006  0.5723111E+01  0.7546771E-02  0.2452917E+00
         21   -1    0    0  501  502  0.00000000000E+00  0.00000000000E+00  0.31441038599E+01  0.31441038599E+01  0.00000000000E+00 0.  1.
         21   -1    0    0  502  503 -0.00000000000E+00 -0.00000000000E+00 -0.11619263889E+02  0.11619263889E+02  0.00000000000E+00 0.  1.
          5    1    1    2  501    0 -0.26868265157E+01 -0.18560614110E+01 -0.18637012181E+01  0.60189187499E+01  0.47000000000E+01 0.  1.
         -5    1    1    2    0  503  0.26868265157E+01  0.18560614110E+01 -0.66114588106E+01  0.87444489988E+01  0.47000000000E+01 0.  1.
<mgrwt>
<rscale>  2 0.57231111E+01</rscale>
<asrwt>0</asrwt>
<pdfrwt beam="1">  1       21 0.48370829E-03 0.57231111E+01</pdfrwt>
<pdfrwt beam="2">  1       21 0.17875790E-02 0.57231111E+01</pdfrwt>
<totfact> 0.36589926E+09</totfact>
</mgrwt>
</event>
<event>
 4    1  0.4084348E+006  0.5109898E+01  0.7546771E-02  0.2548020E+00
         21   -1    0    0  503  502  0.00000000000E+00  0.00000000000E+00  0.10267990748E+00  0.10267990748E+00  0.00000000000E+00 0. -1.
         21   -1    0    0  501  503 -0.00000000000E+00 -0.00000000000E+00 -0.48080702163E+03  0.48080702163E+03  0.00000000000E+00 0. -1.
          5    1    1    2  501    0 -0.19416246982E+01 -0.50114608851E+00 -0.40539366488E+03  0.40542586817E+03  0.47000000000E+01 0. -1.
         -5    1    1    2    0  502  0.19416246982E+01  0.50114608851E+00 -0.75310676836E+02  0.75483833364E+02  0.47000000000E+01 0. -1.
<mgrwt>
<rscale>  2 0.51098976E+01</rscale>
<asrwt>0</asrwt>
<pdfrwt beam="1">  1       21 0.15797222E-04 0.51098976E+01</pdfrwt>
<pdfrwt beam="2">  1       21 0.73968845E-01 0.51098976E+01</pdfrwt>
<totfact> 0.92524525E+08</totfact>
</mgrwt>
</event>
<event>
 4    1  0.4084348E+006  0.5295246E+01  0.7546771E-02  0.2517300E+00
         21   -1    0    0  501  502  0.00000000000E+00  0.00000000000E+00  0.11018763095E+02  0.11018763095E+02  0.00000000000E+00 0.  1.
         21   -1    0    0  502  503 -0.00000000000E+00 -0.00000000000E+00 -0.63076682595E+01  0.63076682595E+01  0.00000000000E+00 0.  1.
          5    1    1    2  501    0  0.21689528536E+01  0.11159174433E+01  0.90468247451E+01  0.10482588716E+02  0.47000000000E+01 0.  1.
         -5    1    1    2    0  503 -0.21689528536E+01 -0.11159174433E+01 -0.43357299091E+01  0.68438426389E+01  0.47000000000E+01 0.  1.
<mgrwt>
<rscale>  2 0.52952458E+01</rscale>
<asrwt>0</asrwt>
<pdfrwt beam="1">  1       21 0.16951943E-02 0.52952458E+01</pdfrwt>
<pdfrwt beam="2">  1       21 0.97041050E-03 0.52952458E+01</pdfrwt>
<totfact> 0.13936537E+09</totfact>
</mgrwt>
</event>
<event>
 4    1  0.4084348E+006  0.5574031E+01  0.7546771E-02  0.2474397E+00
         21   -1    0    0  503  502  0.00000000000E+00  0.00000000000E+00  0.23919313283E+02  0.23919313283E+02  0.00000000000E+00 0. -1.
         21   -1    0    0  501  503 -0.00000000000E+00 -0.00000000000E+00 -0.13928652598E+01  0.13928652598E+01  0.00000000000E+00 0. -1.
          5    1    1    2  501    0 -0.14017135437E+01  0.26485882574E+01  0.79767543795E+01  0.97313118873E+01  0.47000000000E+01 0. -1.
         -5    1    1    2    0  502  0.14017135437E+01 -0.26485882574E+01  0.14549693644E+02  0.15580866656E+02  0.47000000000E+01 0. -1.
<mgrwt>
<rscale>  2 0.55740309E+01</rscale>
<asrwt>0</asrwt>
<pdfrwt beam="1">  1       21 0.36798940E-02 0.55740309E+01</pdfrwt>
<pdfrwt beam="2">  1       21 0.21428698E-03 0.55740309E+01</pdfrwt>
<totfact> 0.38498060E+09</totfact>
</mgrwt>
</event>
<event>
 4    1  0.4084348E+006  0.5518934E+01  0.7546771E-02  0.2482584E+00
         21   -1    0    0  501  502  0.00000000000E+00  0.00000000000E+00  0.85044979498E-01  0.85044979498E-01  0.00000000000E+00 0. -1.
         21   -1    0    0  502  503 -0.00000000000E+00 -0.00000000000E+00 -0.78408907401E+03  0.78408907401E+03  0.00000000000E+00 0.  1.
          5    1    1    2  501    0  0.20893133653E+01  0.20008507862E+01 -0.10301728190E+03  0.10316500862E+03  0.47000000000E+01 0. -1.
         -5    1    1    2    0  503 -0.20893133653E+01 -0.20008507862E+01 -0.68098674713E+03  0.68100911037E+03  0.47000000000E+01 0.  1.
<mgrwt>
<rscale>  2 0.55189342E+01</rscale>
<asrwt>0</asrwt>
<pdfrwt beam="1">  1       21 0.13083591E-04 0.55189342E+01</pdfrwt>
<pdfrwt beam="2">  1       21 0.12063141E+00 0.55189342E+01</pdfrwt>
<totfact> 0.47637810E+08</totfact>
</mgrwt>
</event>
<event>
 4    1  0.4084348E+006  0.4989995E+01  0.7546771E-02  0.2568932E+00
         21   -1    0    0  503  502  0.00000000000E+00  0.00000000000E+00  0.81435197654E-01  0.81435197654E-01  0.00000000000E+00 0.  1.
         21   -1    0    0  501  503 -0.00000000000E+00 -0.00000000000E+00 -0.31933342195E+03  0.31933342195E+03  0.00000000000E+00 0.  1.
          5    1    1    2  501    0 -0.16079509053E+01 -0.47386458957E+00 -0.19254627646E+03  0.19261092553E+03  0.47000000000E+01 0.  1.
         -5    1    1    2    0  502  0.16079509053E+01  0.47386458957E+00 -0.12670571029E+03  0.12680393162E+03  0.47000000000E+01 0.  1.
<mgrwt>
<rscale>  2 0.49899954E+01</rscale>
<asrwt>0</asrwt>
<pdfrwt beam="1">  1       21 0.12528443E-04 0.49899954E+01</pdfrwt>
<pdfrwt beam="2">  1       21 0.49128412E-01 0.49899954E+01</pdfrwt>
<totfact> 0.26071987E+09</totfact>
</mgrwt>
</event>
<event>
 4    1  0.4084348E+006  0.6703726E+01  0.7546771E-02  0.2331941E+00
         21   -1    0    0  501  502  0.00000000000E+00  0.00000000000E+00  0.19102137952E+01  0.19102137952E+01  0.00000000000E+00 0.  1.
         21   -1    0    0  502  503 -0.00000000000E+00 -0.00000000000E+00 -0.41346280517E+02  0.41346280517E+02  0.00000000000E+00 0. -1.
          5    1    1    2  501    0  0.29540456607E+01  0.37581324157E+01 -0.55190012913E+01  0.86832781985E+01  0.47000000000E+01 0.  1.
         -5    1    1    2    0  503 -0.29540456607E+01 -0.37581324157E+01 -0.33917065430E+02  0.34573216113E+02  0.47000000000E+01 0. -1.
<mgrwt>
<rscale>  2 0.67037262E+01</rscale>
<asrwt>0</asrwt>
<pdfrwt beam="1">  1       21 0.29387907E-03 0.67037262E+01</pdfrwt>
<pdfrwt beam="2">  1       21 0.63609657E-02 0.67037262E+01</pdfrwt>
<totfact> 0.12972839E+09</totfact>
</mgrwt>
</event>
<event>
 4    1  0.4084348E+006  0.4749015E+01  0.7546771E-02  0.2613702E+00
         21   -1    0    0  501  502  0.00000000000E+00  0.00000000000E+00  0.26362624128E+03  0.26362624128E+03  0.00000000000E+00 0. -1.
         21   -1    0    0  502  503 -0.00000000000E+00 -0.00000000000E+00 -0.26773013765E+00  0.26773013765E+00  0.00000000000E+00 0. -1.
          5    1    1    2  501    0  0.37721362569E+00 -0.56643651647E+00  0.24052256485E+03  0.24056944391E+03  0.47000000000E+01 0. -1.
         -5    1    1    2    0  503 -0.37721362569E+00  0.56643651647E+00  0.22835946283E+02  0.23324527500E+02  0.47000000000E+01 0. -1.
<mgrwt>
<rscale>  2 0.47490147E+01</rscale>
<asrwt>0</asrwt>
<pdfrwt beam="1">  1       21 0.40557676E-01 0.47490147E+01</pdfrwt>
<pdfrwt beam="2">  1       21 0.41189463E-04 0.47490147E+01</pdfrwt>
<totfact> 0.72229698E+08</totfact>
</mgrwt>
</event>
<event>
 4    1  0.4084348E+006  0.4978334E+01  0.7546771E-02  0.2571012E+00
         21   -1    0    0  501  502  0.00000000000E+00  0.00000000000E+00  0.14641848811E+01  0.14641848811E+01  0.00000000000E+00 0.  1.
         21   -1    0    0  502  503 -0.00000000000E+00 -0.00000000000E+00 -0.17499487791E+02  0.17499487791E+02  0.00000000000E+00 0.  1.
          5    1    1    2  501    0  0.16334399694E+01 -0.16025317382E+00 -0.63021957278E+01  0.80312812306E+01  0.47000000000E+01 0.  1.
         -5    1    1    2    0  503 -0.16334399694E+01  0.16025317382E+00 -0.97331071819E+01  0.10932391441E+02  0.47000000000E+01 0.  1.
<mgrwt>
<rscale>  2 0.49783338E+01</rscale>
<asrwt>0</asrwt>
<pdfrwt beam="1">  1       21 0.22525920E-03 0.49783338E+01</pdfrwt>
<pdfrwt beam="2">  1       21 0.26922290E-02 0.49783338E+01</pdfrwt>
<totfact> 0.50421553E+09</totfact>
</mgrwt>
</event>
<event>
 4    1  0.4084348E+006  0.1696839E+02  0.7546771E-02  0.1813339E+00
         21   -1    0    0  501  502  0.00000000000E+00  0.00000000000E+00  0.37946086742E+03  0.37946086742E+03  0.00000000000E+00 0. -1.
         21   -1    0    0  502  503 -0.00000000000E+00 -0.00000000000E+00 -0.83465650686E+00  0.83465650686E+00  0.00000000000E+00 0.  1.
          5    1    1    2  501    0  0.92964971473E+01  0.13394452760E+02  0.24664538823E+03  0.24722838381E+03  0.47000000000E+01 0. -1.
         -5    1    1    2    0  503 -0.92964971473E+01 -0.13394452760E+02  0.13198082268E+03  0.13306714012E+03  0.47000000000E+01 0.  1.
<mgrwt>
<rscale>  2 0.16968389E+02</rscale>
<asrwt>0</asrwt>
<pdfrwt beam="1">  1       21 0.58378457E-01 0.16968389E+02</pdfrwt>
<pdfrwt beam="2">  1       21 0.12840900E-03 0.16968389E+02</pdfrwt>
<totfact> 0.15609295E+08</totfact>
</mgrwt>
</event>
<event>
 4    1  0.4084348E+006  0.5624104E+01  0.7546771E-02  0.2467075E+00
         21   -1    0    0  501  502  0.00000000000E+00  0.00000000000E+00  0.58560286696E+01  0.58560286696E+01  0.00000000000E+00 0.  1.
         21   -1    0    0  502  503 -0.00000000000E+00 -0.00000000000E+00 -0.59855093097E+01  0.59855093097E+01  0.00000000000E+00 0.  1.
          5    1    1    2  501    0  0.27592877935E+01 -0.13881188710E+01 -0.19143835387E+01  0.59409938108E+01  0.47000000000E+01 0.  1.
         -5    1    1    2    0  503 -0.27592877935E+01  0.13881188710E+01  0.17849028986E+01  0.59005441685E+01  0.47000000000E+01 0.  1.
<mgrwt>
<rscale>  2 0.56241038E+01</rscale>
<asrwt>0</asrwt>
<pdfrwt beam="1">  1       21 0.90092749E-03 0.56241038E+01</pdfrwt>
<pdfrwt beam="2">  1       21 0.92084758E-03 0.56241038E+01</pdfrwt>
<totfact> 0.38688282E+09</totfact>
</mgrwt>
</event>
<event>
 4    1  0.4084348E+006  0.7524998E+01  0.7546771E-02  0.2251110E+00
         21   -1    0    0  503  502  0.00000000000E+00  0.00000000000E+00  0.69333184050E+01  0.69333184050E+01  0.00000000000E+00 0.  1.
         21   -1    0    0  501  503 -0.00000000000E+00 -0.00000000000E+00 -0.90776127405E+01  0.90776127405E+01  0.00000000000E+00 0. -1.
          5    1    1    2  501    0  0.34840455189E+01  0.47325490765E+01 -0.36074331451E+01  0.83450085582E+01  0.47000000000E+01 0. -1.
         -5    1    1    2    0  502 -0.34840455189E+01 -0.47325490765E+01  0.14631388096E+01  0.76659225874E+01  0.47000000000E+01 0.  1.
<mgrwt>
<rscale>  2 0.75249979E+01</rscale>
<asrwt>0</asrwt>
<pdfrwt beam="1">  1       21 0.10666644E-02 0.75249979E+01</pdfrwt>
<pdfrwt beam="2">  1       21 0.13965558E-02 0.75249979E+01</pdfrwt>
<totfact> 0.21514491E+09</totfact>
</mgrwt>
</event>
<event>
 4    1  0.4084348E+006  0.4819330E+01  0.7546771E-02  0.2600238E+00
         21   -1    0    0  503  502  0.00000000000E+00  0.00000000000E+00  0.12208398857E+02  0.12208398857E+02  0.00000000000E+00 0. -1.
         21   -1    0    0  501  503 -0.00000000000E+00 -0.00000000000E+00 -0.14152374272E+02  0.14152374272E+02  0.00000000000E+00 0. -1.
          5    1    1    2  501    0  0.86577393180E+00 -0.62158999252E+00 -0.13234518052E+02  0.14084686958E+02  0.47000000000E+01 0. -1.
         -5    1    1    2    0  502 -0.86577393180E+00  0.62158999252E+00  0.11290542638E+02  0.12276086171E+02  0.47000000000E+01 0. -1.
<mgrwt>
<rscale>  2 0.48193297E+01</rscale>
<asrwt>0</asrwt>
<pdfrwt beam="1">  1       21 0.18782152E-02 0.48193297E+01</pdfrwt>
<pdfrwt beam="2">  1       21 0.21772884E-02 0.48193297E+01</pdfrwt>
<totfact> 0.35418562E+08</totfact>
</mgrwt>
</event>
<event>
 4    1  0.4084348E+006  0.5586063E+01  0.7546771E-02  0.2472628E+00
         21   -1    0    0  501  502  0.00000000000E+00  0.00000000000E+00  0.16542399957E+01  0.16542399957E+01  0.00000000000E+00 0.  1.
         21   -1    0    0  502  503 -0.00000000000E+00 -0.00000000000E+00 -0.37436627125E+02  0.37436627125E+02  0.00000000000E+00 0.  1.
          5    1    1    2  501    0  0.25418218771E+01  0.16288780976E+01 -0.41240421702E+01  0.69434736359E+01  0.47000000000E+01 0.  1.
         -5    1    1    2    0  503 -0.25418218771E+01 -0.16288780976E+01 -0.31658344959E+02  0.32147393485E+02  0.47000000000E+01 0.  1.
<mgrwt>
<rscale>  2 0.55860632E+01</rscale>
<asrwt>0</asrwt>
<pdfrwt beam="1">  1       21 0.25449847E-03 0.55860632E+01</pdfrwt>
<pdfrwt beam="2">  1       21 0.57594808E-02 0.55860632E+01</pdfrwt>
<totfact> 0.15805492E+09</totfact>
</mgrwt>
</event>
<event>
 4    1  0.4084348E+006  0.9675066E+01  0.7546771E-02  0.2093966E+00
         21   -1    0    0  501  502  0.00000000000E+00  0.00000000000E+00  0.14956195401E+00  0.14956195401E+00  0.00000000000E+00 0.  1.
         21   -1    0    0  502  503 -0.00000000000E+00 -0.00000000000E+00 -0.65263447616E+03  0.65263447616E+03  0.00000000000E+00 0. -1.
          5    1    1    2  501    0 -0.40407282645E+01 -0.74289576071E+01 -0.26014971937E+03  0.26032956687E+03  0.47000000000E+01 0.  1.
         -5    1    1    2    0  503  0.40407282645E+01  0.74289576071E+01 -0.39233519484E+03  0.39245447125E+03  0.47000000000E+01 0. -1.
<mgrwt>
<rscale>  2 0.96750657E+01</rscale>
<asrwt>0</asrwt>
<pdfrwt beam="1">  1       21 0.23009191E-04 0.96750657E+01</pdfrwt>
<pdfrwt beam="2">  1       21 0.10040679E+00 0.96750657E+01</pdfrwt>
<totfact> 0.45092643E+08</totfact>
</mgrwt>
</event>
<event>
 4    1  0.4084348E+006  0.4907312E+01  0.7546771E-02  0.2583864E+00
         21   -1    0    0  503  502  0.00000000000E+00  0.00000000000E+00  0.18670701624E+00  0.18670701624E+00  0.00000000000E+00 0.  1.
         21   -1    0    0  501  503 -0.00000000000E+00 -0.00000000000E+00 -0.21980752431E+03  0.21980752431E+03  0.00000000000E+00 0.  1.
          5    1    1    2  501    0 -0.10837063353E+01 -0.90404047308E+00 -0.18051794658E+03  0.18058463597E+03  0.47000000000E+01 0.  1.
         -5    1    1    2    0  502  0.10837063353E+01  0.90404047308E+00 -0.39102870709E+02  0.39409595358E+02  0.47000000000E+01 0.  1.
<mgrwt>
<rscale>  2 0.49073117E+01</rscale>
<asrwt>0</asrwt>
<pdfrwt beam="1">  1       21 0.28724028E-04 0.49073117E+01</pdfrwt>
<pdfrwt beam="2">  1       21 0.33816693E-01 0.49073117E+01</pdfrwt>
<totfact> 0.16309143E+09</totfact>
</mgrwt>
</event>
<event>
 4    1  0.4084348E+006  0.7041583E+01  0.7546771E-02  0.2296822E+00
         21   -1    0    0  501  502  0.00000000000E+00  0.00000000000E+00  0.35535208376E+01  0.35535208376E+01  0.00000000000E+00 0. -1.
         21   -1    0    0  502  503 -0.00000000000E+00 -0.00000000000E+00 -0.44691472688E+02  0.44691472688E+02  0.00000000000E+00 0. -1.
          5    1    1    2  501    0  0.46647701208E+01  0.23945374851E+01 -0.56354742788E+00  0.70640976601E+01  0.47000000000E+01 0. -1.
         -5    1    1    2    0  503 -0.46647701208E+01 -0.23945374851E+01 -0.40574404422E+02  0.41180895865E+02  0.47000000000E+01 0. -1.
<mgrwt>
<rscale>  2 0.70415829E+01</rscale>
<asrwt>0</asrwt>
<pdfrwt beam="1">  1       21 0.54669552E-03 0.70415829E+01</pdfrwt>
<pdfrwt beam="2">  1       21 0.68756111E-02 0.70415829E+01</pdfrwt>
<totfact> 0.50288335E+08</totfact>
</mgrwt>
</event>
<event>
 4    1  0.4084348E+006  0.6776890E+01  0.7546771E-02  0.2324092E+00
         21   -1    0    0  503  502  0.00000000000E+00  0.00000000000E+00  0.21115540074E+02  0.21115540074E+02  0.00000000000E+00 0.  1.
         21   -1    0    0  501  503 -0.00000000000E+00 -0.00000000000E+00 -0.45618674880E+01  0.45618674880E+01  0.00000000000E+00 0. -1.
          5    1    1    2  501    0 -0.41409098293E+01  0.25863298816E+01 -0.10099247857E+01  0.68517285807E+01  0.47000000000E+01 0. -1.
         -5    1    1    2    0  502  0.41409098293E+01 -0.25863298816E+01  0.17563597372E+02  0.18825678982E+02  0.47000000000E+01 0.  1.
<mgrwt>
<rscale>  2 0.67768899E+01</rscale>
<asrwt>0</asrwt>
<pdfrwt beam="1">  1       21 0.32485446E-02 0.67768899E+01</pdfrwt>
<pdfrwt beam="2">  1       21 0.70182578E-03 0.67768899E+01</pdfrwt>
<totfact> 0.10556114E+09</totfact>
</mgrwt>
</event>
<event>
 4    1  0.4084348E+006  0.6192837E+01  0.7546771E-02  0.2390982E+00
         21   -1    0    0  501  502  0.00000000000E+00  0.00000000000E+00  0.38710113609E+00  0.38710113609E+00  0.00000000000E+00 0.  1.
         21   -1    0    0  502  503 -0.00000000000E+00 -0.00000000000E+00 -0.11588460250E+03  0.11588460250E+03  0.00000000000E+00 0.  1.
          5    1    1    2  501    0  0.34513023981E+01 -0.20856043284E+01 -0.35605724676E+02  0.36140266509E+02  0.47000000000E+01 0.  1.
         -5    1    1    2    0  503 -0.34513023981E+01  0.20856043284E+01 -0.79891776688E+02  0.80131437127E+02  0.47000000000E+01 0.  1.
<mgrwt>
<rscale>  2 0.61928373E+01</rscale>
<asrwt>0</asrwt>
<pdfrwt beam="1">  1       21 0.59553957E-04 0.61928373E+01</pdfrwt>
<pdfrwt beam="2">  1       21 0.17828419E-01 0.61928373E+01</pdfrwt>
<totfact> 0.21502490E+09</totfact>
</mgrwt>
</event>
<event>
 4    1  0.4084348E+006  0.8719322E+01  0.7546771E-02  0.2156152E+00
         21   -1    0    0  503  502  0.00000000000E+00  0.00000000000E+00  0.18761014545E+02  0.18761014545E+02  0.00000000000E+00 0.  1.
         21   -1    0    0  501  503 -0.00000000000E+00 -0.00000000000E+00 -0.89099592664E+01  0.89099592664E+01  0.00000000000E+00 0.  1.
          5    1    1    2  501    0 -0.47374544723E+01 -0.56118721945E+01 -0.52901447088E+01  0.10198637921E+02  0.47000000000E+01 0.  1.
         -5    1    1    2    0  502  0.47374544723E+01  0.56118721945E+01  0.15141199988E+02  0.17472335890E+02  0.47000000000E+01 0.  1.
<mgrwt>
<rscale>  2 0.87193225E+01</rscale>
<asrwt>0</asrwt>
<pdfrwt beam="1">  1       21 0.28863099E-02 0.87193225E+01</pdfrwt>
<pdfrwt beam="2">  1       21 0.13707630E-02 0.87193225E+01</pdfrwt>
<totfact> 0.57190854E+08</totfact>
</mgrwt>
</event>
<event>
 4    1  0.4084348E+006  0.6685697E+01  0.7546771E-02  0.2333897E+00
         21   -1    0    0  503  502  0.00000000000E+00  0.00000000000E+00  0.60039226796E+01  0.60039226796E+01  0.00000000000E+00 0.  1.
         21   -1    0    0  501  503 -0.00000000000E+00 -0.00000000000E+00 -0.79059410213E+01  0.79059410213E+01  0.00000000000E+00 0.  1.
          5    1    1    2  501    0 -0.45449884726E+01  0.13970059672E+01  0.72853114562E+00  0.67252734903E+01  0.47000000000E+01 0.  1.
         -5    1    1    2    0  502  0.45449884726E+01 -0.13970059672E+01 -0.26305494874E+01  0.71845902106E+01  0.47000000000E+01 0.  1.
<mgrwt>
<rscale>  2 0.66856971E+01</rscale>
<asrwt>0</asrwt>
<pdfrwt beam="1">  1       21 0.92368042E-03 0.66856971E+01</pdfrwt>
<pdfrwt beam="2">  1       21 0.12162986E-02 0.66856971E+01</pdfrwt>
<totfact> 0.29359616E+09</totfact>
</mgrwt>
</event>
<event>
 4    1  0.4084348E+006  0.1170347E+02  0.7546771E-02  0.1989301E+00
         21   -1    0    0  503  502  0.00000000000E+00  0.00000000000E+00  0.21791561192E+03  0.21791561192E+03  0.00000000000E+00 0. -1.
         21   -1    0    0  501  503 -0.00000000000E+00 -0.00000000000E+00 -0.13158409961E+01  0.13158409961E+01  0.00000000000E+00 0.  1.
          5    1    1    2  501    0  0.40135254056E+01 -0.99384542049E+01  0.29078778465E+02  0.31345599614E+02  0.47000000000E+01 0.  1.
         -5    1    1    2    0  502 -0.40135254056E+01  0.99384542049E+01  0.18752099246E+03  0.18788585330E+03  0.47000000000E+01 0. -1.
<mgrwt>
<rscale>  2 0.11703472E+02</rscale>
<asrwt>0</asrwt>
<pdfrwt beam="1">  1       21 0.33525450E-01 0.11703472E+02</pdfrwt>
<pdfrwt beam="2">  1       21 0.20243725E-03 0.11703472E+02</pdfrwt>
<totfact> 0.20171795E+08</totfact>
</mgrwt>
</event>
<event>
 4    1  0.4084348E+006  0.6461554E+01  0.7546771E-02  0.2358962E+00
         21   -1    0    0  503  502  0.00000000000E+00  0.00000000000E+00  0.42990536397E+01  0.42990536397E+01  0.00000000000E+00 0.  1.
         21   -1    0    0  501  503 -0.00000000000E+00 -0.00000000000E+00 -0.11067547837E+02  0.11067547837E+02  0.00000000000E+00 0. -1.
          5    1    1    2  501    0  0.38613005884E+01  0.21799178527E+01 -0.60733446754E+01  0.88677618159E+01  0.47000000000E+01 0.  1.
         -5    1    1    2    0  502 -0.38613005884E+01 -0.21799178527E+01 -0.69514952194E+00  0.64988396608E+01  0.47000000000E+01 0. -1.
<mgrwt>
<rscale>  2 0.64615543E+01</rscale>
<asrwt>0</asrwt>
<pdfrwt beam="1">  1       21 0.66139287E-03 0.64615543E+01</pdfrwt>
<pdfrwt beam="2">  1       21 0.17026997E-02 0.64615543E+01</pdfrwt>
<totfact> 0.28243807E+09</totfact>
</mgrwt>
</event>
<event>
 4    1  0.4084348E+006  0.5570212E+01  0.7546771E-02  0.2474960E+00
         21   -1    0    0  501  502  0.00000000000E+00  0.00000000000E+00  0.17437739066E+02  0.17437739066E+02  0.00000000000E+00 0. -1.
         21   -1    0    0  502  503 -0.00000000000E+00 -0.00000000000E+00 -0.14340097805E+02  0.14340097805E+02  0.00000000000E+00 0. -1.
          5    1    1    2  501    0  0.16558922408E+01  0.24890322465E+01  0.16419355931E+02  0.17338469074E+02  0.47000000000E+01 0. -1.
         -5    1    1    2    0  503 -0.16558922408E+01 -0.24890322465E+01 -0.13321714669E+02  0.14439367797E+02  0.47000000000E+01 0. -1.
<mgrwt>
<rscale>  2 0.55702119E+01</rscale>
<asrwt>0</asrwt>
<pdfrwt beam="1">  1       21 0.26827291E-02 0.55702119E+01</pdfrwt>
<pdfrwt beam="2">  1       21 0.22061689E-02 0.55702119E+01</pdfrwt>
<totfact> 0.23611859E+08</totfact>
</mgrwt>
</event>
<event>
 4    1  0.4084348E+006  0.6381265E+01  0.7546771E-02  0.2368294E+00
         21   -1    0    0  503  502  0.00000000000E+00  0.00000000000E+00  0.55230266453E+02  0.55230266453E+02  0.00000000000E+00 0. -1.
         21   -1    0    0  501  503 -0.00000000000E+00 -0.00000000000E+00 -0.11603220707E+01  0.11603220707E+01  0.00000000000E+00 0. -1.
          5    1    1    2  501    0 -0.23377653545E+00 -0.43099760161E+01  0.10010421466E+02  0.11871355552E+02  0.47000000000E+01 0. -1.
         -5    1    1    2    0  502  0.23377653545E+00  0.43099760161E+01  0.44059522916E+02  0.44519232971E+02  0.47000000000E+01 0. -1.
<mgrwt>
<rscale>  2 0.63812651E+01</rscale>
<asrwt>0</asrwt>
<pdfrwt beam="1">  1       21 0.84969620E-02 0.63812651E+01</pdfrwt>
<pdfrwt beam="2">  1       21 0.17851113E-03 0.63812651E+01</pdfrwt>
<totfact> 0.15941540E+09</totfact>
</mgrwt>
</event>
<event>
 4    1  0.4084348E+006  0.6399617E+01  0.7546771E-02  0.2366144E+00
         21   -1    0    0  503  502  0.00000000000E+00  0.00000000000E+00  0.11835424635E+02  0.11835424635E+02  0.00000000000E+00 0.  1.
         21   -1    0    0  501  503 -0.00000000000E+00 -0.00000000000E+00 -0.40325920353E+01  0.40325920353E+01  0.00000000000E+00 0. -1.
          5    1    1    2  501    0  0.20521072785E+01  0.38280486442E+01  0.91274665864E+00  0.64643798750E+01  0.47000000000E+01 0. -1.
         -5    1    1    2    0  502 -0.20521072785E+01 -0.38280486442E+01  0.68900859416E+01  0.94036367958E+01  0.47000000000E+01 0.  1.
<mgrwt>
<rscale>  2 0.63996172E+01</rscale>
<asrwt>0</asrwt>
<pdfrwt beam="1">  1       21 0.18208345E-02 0.63996172E+01</pdfrwt>
<pdfrwt beam="2">  1       21 0.62039878E-03 0.63996172E+01</pdfrwt>
<totfact> 0.27825723E+09</totfact>
</mgrwt>
</event>
<event>
 4    1  0.4084348E+006  0.7929275E+01  0.7546771E-02  0.2216395E+00
         21   -1    0    0  503  502  0.00000000000E+00  0.00000000000E+00  0.23817018793E+01  0.23817018793E+01  0.00000000000E+00 0.  1.
         21   -1    0    0  501  503 -0.00000000000E+00 -0.00000000000E+00 -0.24074052064E+03  0.24074052064E+03  0.00000000000E+00 0.  1.
          5    1    1    2  501    0 -0.33085929098E+01  0.54622896180E+01 -0.23388212710E+03  0.23401650107E+03  0.47000000000E+01 0.  1.
         -5    1    1    2    0  502  0.33085929098E+01 -0.54622896180E+01 -0.44766916581E+01  0.91057214495E+01  0.47000000000E+01 0.  1.
<mgrwt>
<rscale>  2 0.79292746E+01</rscale>
<asrwt>0</asrwt>
<pdfrwt beam="1">  1       21 0.36641567E-03 0.79292746E+01</pdfrwt>
<pdfrwt beam="2">  1       21 0.37037004E-01 0.79292746E+01</pdfrwt>
<totfact> 0.61671280E+07</totfact>
</mgrwt>
</event>
<event>
 4    1  0.4084348E+006  0.6359818E+01  0.7546771E-02  0.2370820E+00
         21   -1    0    0  503  502  0.00000000000E+00  0.00000000000E+00  0.43690104863E+01  0.43690104863E+01  0.00000000000E+00 0.  1.
         21   -1    0    0  501  503 -0.00000000000E+00 -0.00000000000E+00 -0.14872142016E+02  0.14872142016E+02  0.00000000000E+00 0.  1.
          5    1    1    2  501    0  0.21615813370E+00  0.42790842825E+01 -0.11162620547E+02  0.12847232547E+02  0.47000000000E+01 0.  1.
         -5    1    1    2    0  502 -0.21615813370E+00 -0.42790842825E+01  0.65948901728E+00  0.63939199556E+01  0.47000000000E+01 0.  1.
<mgrwt>
<rscale>  2 0.63598181E+01</rscale>
<asrwt>0</asrwt>
<pdfrwt beam="1">  1       21 0.67215546E-03 0.63598181E+01</pdfrwt>
<pdfrwt beam="2">  1       21 0.22880219E-02 0.63598181E+01</pdfrwt>
<totfact> 0.17793394E+09</totfact>
</mgrwt>
</event>
<event>
 4    1  0.4084348E+006  0.4709398E+01  0.7546771E-02  0.2621441E+00
         21   -1    0    0  503  502  0.00000000000E+00  0.00000000000E+00  0.10612123118E+01  0.10612123118E+01  0.00000000000E+00 0.  1.
         21   -1    0    0  501  503 -0.00000000000E+00 -0.00000000000E+00 -0.21350419531E+03  0.21350419531E+03  0.00000000000E+00 0.  1.
          5    1    1    2  501    0 -0.29579020218E+00  0.30590730506E-01 -0.20811824364E+03  0.20817152006E+03  0.47000000000E+01 0.  1.
         -5    1    1    2    0  502  0.29579020218E+00 -0.30590730506E-01 -0.43247393536E+01  0.63938875587E+01  0.47000000000E+01 0.  1.
<mgrwt>
<rscale>  2 0.47093978E+01</rscale>
<asrwt>0</asrwt>
<pdfrwt beam="1">  1       21 0.16326329E-03 0.47093978E+01</pdfrwt>
<pdfrwt beam="2">  1       21 0.32846828E-01 0.47093978E+01</pdfrwt>
<totfact> 0.16542670E+08</totfact>
</mgrwt>
</event>
<event>
 4    1  0.4084348E+006  0.5587605E+01  0.7546771E-02  0.2472401E+00
         21   -1    0    0  503  502  0.00000000000E+00  0.00000000000E+00  0.54613828439E+01  0.54613828439E+01  0.00000000000E+00 0. -1.
         21   -1    0    0  501  503 -0.00000000000E+00 -0.00000000000E+00 -0.57624775814E+01  0.57624775814E+01  0.00000000000E+00 0. -1.
          5    1    1    2  501    0  0.14776598848E+01  0.26358784778E+01  0.34939461565E+00  0.55985186150E+01  0.47000000000E+01 0. -1.
         -5    1    1    2    0  502 -0.14776598848E+01 -0.26358784778E+01 -0.65048935320E+00  0.56253418104E+01  0.47000000000E+01 0. -1.
<mgrwt>
<rscale>  2 0.55876054E+01</rscale>
<asrwt>0</asrwt>
<pdfrwt beam="1">  1       21 0.84021276E-03 0.55876054E+01</pdfrwt>
<pdfrwt beam="2">  1       21 0.88653500E-03 0.55876054E+01</pdfrwt>
<totfact> 0.44716670E+09</totfact>
</mgrwt>
</event>
<event>
 4    1  0.4084348E+006  0.5676639E+01  0.7546771E-02  0.2459511E+00
         21   -1    0    0  501  502  0.00000000000E+00  0.00000000000E+00  0.22016205919E+02  0.22016205919E+02  0.00000000000E+00 0. -1.
         21   -1    0    0  502  503 -0.00000000000E+00 -0.00000000000E+00 -0.27975806361E+01  0.27975806361E+01  0.00000000000E+00 0. -1.
          5    1    1    2  501    0 -0.70788066453E+00 -0.31037288657E+01  0.18176471591E+02  0.19042277894E+02  0.47000000000E+01 0. -1.
         -5    1    1    2    0  503  0.70788066453E+00  0.31037288657E+01  0.10421536923E+01  0.57715086611E+01  0.47000000000E+01 0. -1.
<mgrwt>
<rscale>  2 0.56766388E+01</rscale>
<asrwt>0</asrwt>
<pdfrwt beam="1">  1       21 0.33871085E-02 0.56766388E+01</pdfrwt>
<pdfrwt beam="2">  1       21 0.43039704E-03 0.56766388E+01</pdfrwt>
<totfact> 0.17002801E+09</totfact>
</mgrwt>
</event>
<event>
 4    1  0.4084348E+006  0.7729994E+01  0.7546771E-02  0.2233140E+00
         21   -1    0    0  503  502  0.00000000000E+00  0.00000000000E+00  0.10097638413E+01  0.10097638413E+01  0.00000000000E+00 0. -1.
         21   -1    0    0  501  503 -0.00000000000E+00 -0.00000000000E+00 -0.80523423595E+02  0.80523423595E+02  0.00000000000E+00 0. -1.
          5    1    1    2  501    0  0.59480273501E+01  0.15112177825E+01 -0.60747479550E+02  0.61237317709E+02  0.47000000000E+01 0. -1.
         -5    1    1    2    0  502 -0.59480273501E+01 -0.15112177825E+01 -0.18766180204E+02  0.20295869728E+02  0.47000000000E+01 0. -1.
<mgrwt>
<rscale>  2 0.77299941E+01</rscale>
<asrwt>0</asrwt>
<pdfrwt beam="1">  1       21 0.15534826E-03 0.77299941E+01</pdfrwt>
<pdfrwt beam="2">  1       21 0.12388221E-01 0.77299941E+01</pdfrwt>
<totfact> 0.12335766E+09</totfact>
</mgrwt>
</event>
<event>
 4    1  0.4084348E+006  0.4707496E+01  0.7546771E-02  0.2621815E+00
         21   -1    0    0  501  502  0.00000000000E+00  0.00000000000E+00  0.64790023046E+00  0.64790023046E+00  0.00000000000E+00 0.  1.
         21   -1    0    0  502  503 -0.00000000000E+00 -0.00000000000E+00 -0.34209854240E+02  0.34209854240E+02  0.00000000000E+00 0.  1.
          5    1    1    2  501    0 -0.25709428257E+00 -0.66509994394E-01 -0.17016613262E+02  0.17655753962E+02  0.47000000000E+01 0.  1.
         -5    1    1    2    0  503  0.25709428257E+00  0.66509994394E-01 -0.16545340747E+02  0.17202000508E+02  0.47000000000E+01 0.  1.
<mgrwt>
<rscale>  2 0.47074963E+01</rscale>
<asrwt>0</asrwt>
<pdfrwt beam="1">  1       21 0.99676965E-04 0.47074963E+01</pdfrwt>
<pdfrwt beam="2">  1       21 0.52630541E-02 0.47074963E+01</pdfrwt>
<totfact> 0.53596733E+09</totfact>
</mgrwt>
</event>
<event>
 4    1  0.4084348E+006  0.6764165E+01  0.7546771E-02  0.2325447E+00
         21   -1    0    0  501  502  0.00000000000E+00  0.00000000000E+00  0.89219749389E+00  0.89219749389E+00  0.00000000000E+00 0.  1.
         21   -1    0    0  502  503 -0.00000000000E+00 -0.00000000000E+00 -0.51477108394E+02  0.51477108394E+02  0.00000000000E+00 0. -1.
          5    1    1    2  501    0  0.35035951604E+01  0.33747215951E+01 -0.26903330608E+02  0.27740640272E+02  0.47000000000E+01 0.  1.
         -5    1    1    2    0  503 -0.35035951604E+01 -0.33747215951E+01 -0.23681580292E+02  0.24628665616E+02  0.47000000000E+01 0. -1.
<mgrwt>
<rscale>  2 0.67641648E+01</rscale>
<asrwt>0</asrwt>
<pdfrwt beam="1">  1       21 0.13726115E-03 0.67641648E+01</pdfrwt>
<pdfrwt beam="2">  1       21 0.79195553E-02 0.67641648E+01</pdfrwt>
<totfact> 0.26576972E+09</totfact>
</mgrwt>
</event>
<event>
 4    1  0.4084348E+006  0.8767386E+01  0.7546771E-02  0.2152769E+00
         21   -1    0    0  501  502  0.00000000000E+00  0.00000000000E+00  0.14725456324E+03  0.14725456324E+03  0.00000000000E+00 0.  1.
         21   -1    0    0  502  503 -0.00000000000E+00 -0.00000000000E+00 -0.62487764193E+00  0.62487764193E+00  0.00000000000E+00 0. -1.
          5    1    1    2  501    0  0.30774404479E+01 -0.67310042484E+01  0.10331601962E+03  0.10368735202E+03  0.47000000000E+01 0.  1.
         -5    1    1    2    0  503 -0.30774404479E+01  0.67310042484E+01  0.43313665977E+02  0.44192088865E+02  0.47000000000E+01 0. -1.
<mgrwt>
<rscale>  2 0.87673860E+01</rscale>
<asrwt>0</asrwt>
<pdfrwt beam="1">  1       21 0.22654521E-01 0.87673860E+01</pdfrwt>
<pdfrwt beam="2">  1       21 0.96135139E-04 0.87673860E+01</pdfrwt>
<totfact> 0.96511304E+08</totfact>
</mgrwt>
</event>
<event>
 4    1  0.4084348E+006  0.8470280E+01  0.7546771E-02  0.2174168E+00
         21   -1    0    0  501  502  0.00000000000E+00  0.00000000000E+00  0.28825026690E+02  0.28825026690E+02  0.00000000000E+00 0. -1.
         21   -1    0    0  502  503 -0.00000000000E+00 -0.00000000000E+00 -0.84488493875E+01  0.84488493875E+01  0.00000000000E+00 0. -1.
          5    1    1    2  501    0 -0.60525277895E+01  0.36086780684E+01  0.25840931285E+02  0.27193737877E+02  0.47000000000E+01 0. -1.
         -5    1    1    2    0  503  0.60525277895E+01 -0.36086780684E+01 -0.54647539828E+01  0.10080138200E+02  0.47000000000E+01 0. -1.
<mgrwt>
<rscale>  2 0.84702804E+01</rscale>
<asrwt>0</asrwt>
<pdfrwt beam="1">  1       21 0.44346194E-02 0.84702804E+01</pdfrwt>
<pdfrwt beam="2">  1       21 0.12998230E-02 0.84702804E+01</pdfrwt>
<totfact> 0.31922802E+08</totfact>
</mgrwt>
</event>
<event>
 4    1  0.4084348E+006  0.6764738E+01  0.7546771E-02  0.2325386E+00
         21   -1    0    0  501  502  0.00000000000E+00  0.00000000000E+00  0.54714612861E+02  0.54714612861E+02  0.00000000000E+00 0. -1.
         21   -1    0    0  502  503 -0.00000000000E+00 -0.00000000000E+00 -0.14869995475E+01  0.14869995475E+01  0.00000000000E+00 0.  1.
          5    1    1    2  501    0 -0.46966009979E+01 -0.12702843124E+01  0.45201697617E+02  0.45705088892E+02  0.47000000000E+01 0. -1.
         -5    1    1    2    0  503  0.46966009979E+01  0.12702843124E+01  0.80259156967E+01  0.10496523517E+02  0.47000000000E+01 0.  1.
<mgrwt>
<rscale>  2 0.67647382E+01</rscale>
<asrwt>0</asrwt>
<pdfrwt beam="1">  1       21 0.84176312E-02 0.67647382E+01</pdfrwt>
<pdfrwt beam="2">  1       21 0.22876920E-03 0.67647382E+01</pdfrwt>
<totfact> 0.12042970E+09</totfact>
</mgrwt>
</event>
<event>
 4    1  0.4084348E+006  0.6947891E+01  0.7546771E-02  0.2306279E+00
         21   -1    0    0  503  502  0.00000000000E+00  0.00000000000E+00  0.88708591457E+02  0.88708591457E+02  0.00000000000E+00 0.  1.
         21   -1    0    0  501  503 -0.00000000000E+00 -0.00000000000E+00 -0.65240418557E+00  0.65240418557E+00  0.00000000000E+00 0.  1.
          5    1    1    2  501    0  0.41007455325E+01  0.30605687822E+01  0.25829938475E+02  0.26748063796E+02  0.47000000000E+01 0.  1.
         -5    1    1    2    0  502 -0.41007455325E+01 -0.30605687822E+01  0.62226248796E+02  0.62612931847E+02  0.47000000000E+01 0.  1.
<mgrwt>
<rscale>  2 0.69478914E+01</rscale>
<asrwt>0</asrwt>
<pdfrwt beam="1">  1       21 0.13647466E-01 0.69478914E+01</pdfrwt>
<pdfrwt beam="2">  1       21 0.10036994E-03 0.69478914E+01</pdfrwt>
<totfact> 0.17803353E+09</totfact>
</mgrwt>
</event>
<event>
 4    1  0.4084348E+006  0.9590052E+01  0.7546771E-02  0.2099098E+00
         21   -1    0    0  501  502  0.00000000000E+00  0.00000000000E+00  0.15360327937E+01  0.15360327937E+01  0.00000000000E+00 0. -1.
         21   -1    0    0  502  503 -0.00000000000E+00 -0.00000000000E+00 -0.13856482913E+03  0.13856482913E+03  0.00000000000E+00 0.  1.
          5    1    1    2  501    0 -0.69593891975E+01 -0.46309822726E+01 -0.15725187531E+02  0.18418757225E+02  0.47000000000E+01 0. -1.
         -5    1    1    2    0  503  0.69593891975E+01  0.46309822726E+01 -0.12130360880E+03  0.12168210470E+03  0.47000000000E+01 0.  1.
<mgrwt>
<rscale>  2 0.95900519E+01</rscale>
<asrwt>0</asrwt>
<pdfrwt beam="1">  1       21 0.23631271E-03 0.95900519E+01</pdfrwt>
<pdfrwt beam="2">  1       21 0.21317668E-01 0.95900519E+01</pdfrwt>
<totfact> 0.32349528E+08</totfact>
</mgrwt>
</event>
<event>
 4    1  0.4084348E+006  0.8899705E+01  0.7546771E-02  0.2143607E+00
         21   -1    0    0  501  502  0.00000000000E+00  0.00000000000E+00  0.24109015177E+01  0.24109015177E+01  0.00000000000E+00 0.  1.
         21   -1    0    0  502  503 -0.00000000000E+00 -0.00000000000E+00 -0.40310906881E+02  0.40310906881E+02  0.00000000000E+00 0. -1.
          5    1    1    2  501    0  0.54608024274E+01  0.52244034850E+01 -0.97619392808E+01  0.13209852893E+02  0.47000000000E+01 0.  1.
         -5    1    1    2    0  503 -0.54608024274E+01 -0.52244034850E+01 -0.28138066082E+02  0.29511955506E+02  0.47000000000E+01 0. -1.
<mgrwt>
<rscale>  2 0.88997053E+01</rscale>
<asrwt>0</asrwt>
<pdfrwt beam="1">  1       21 0.37090793E-03 0.88997053E+01</pdfrwt>
<pdfrwt beam="2">  1       21 0.62016778E-02 0.88997053E+01</pdfrwt>
<totfact> 0.11841772E+09</totfact>
</mgrwt>
</event>
<event>
 4    1  0.4084348E+006  0.4741692E+01  0.7546771E-02  0.2615124E+00
         21   -1    0    0  501  502  0.00000000000E+00  0.00000000000E+00  0.29142996827E+00  0.29142996827E+00  0.00000000000E+00 0.  1.
         21   -1    0    0  502  503 -0.00000000000E+00 -0.00000000000E+00 -0.87037130934E+03  0.87037130934E+03  0.00000000000E+00 0.  1.
          5    1    1    2  501    0 -0.12107956484E+00  0.61561320196E+00 -0.19449989021E+02  0.20019633183E+02  0.47000000000E+01 0.  1.
         -5    1    1    2    0  503  0.12107956484E+00 -0.61561320196E+00 -0.85062989036E+03  0.85064310613E+03  0.47000000000E+01 0.  1.
<mgrwt>
<rscale>  2 0.47416917E+01</rscale>
<asrwt>0</asrwt>
<pdfrwt beam="1">  1       21 0.44835020E-04 0.47416917E+01</pdfrwt>
<pdfrwt beam="2">  1       21 0.13390435E+00 0.47416917E+01</pdfrwt>
<totfact> 0.67505327E+07</totfact>
</mgrwt>
</event>
<event>
 4    1  0.4084348E+006  0.5991166E+01  0.7546771E-02  0.2416575E+00
         21   -1    0    0  501  502  0.00000000000E+00  0.00000000000E+00  0.18283566314E+00  0.18283566314E+00  0.00000000000E+00 0.  1.
         21   -1    0    0  502  503 -0.00000000000E+00 -0.00000000000E+00 -0.19728318934E+03  0.19728318934E+03  0.00000000000E+00 0. -1.
          5    1    1    2  501    0 -0.10989114999E+01 -0.35491499241E+01 -0.91646963014E+02  0.91842582179E+02  0.47000000000E+01 0. -1.
         -5    1    1    2    0  503  0.10989114999E+01  0.35491499241E+01 -0.10545339066E+03  0.10562344282E+03  0.47000000000E+01 0.  1.
<mgrwt>
<rscale>  2 0.59911661E+01</rscale>
<asrwt>0</asrwt>
<pdfrwt beam="1">  1       21 0.28128636E-04 0.59911661E+01</pdfrwt>
<pdfrwt beam="2">  1       21 0.30351182E-01 0.59911661E+01</pdfrwt>
<totfact> 0.23838208E+09</totfact>
</mgrwt>
</event>
<event>
 4    1  0.4084348E+006  0.4994995E+01  0.7546771E-02  0.2568042E+00
         21   -1    0    0  501  502  0.00000000000E+00  0.00000000000E+00  0.80893710705E+02  0.80893710705E+02  0.00000000000E+00 0. -1.
         21   -1    0    0  502  503 -0.00000000000E+00 -0.00000000000E+00 -0.35296625165E+00  0.35296625165E+00  0.00000000000E+00 0. -1.
          5    1    1    2  501    0 -0.12701884312E+01 -0.11165123725E+01  0.54700493787E+02  0.54928080242E+02  0.47000000000E+01 0. -1.
         -5    1    1    2    0  503  0.12701884312E+01  0.11165123725E+01  0.25840250666E+02  0.26318596715E+02  0.47000000000E+01 0. -1.
<mgrwt>
<rscale>  2 0.49949953E+01</rscale>
<asrwt>0</asrwt>
<pdfrwt beam="1">  1       21 0.12445171E-01 0.49949953E+01</pdfrwt>
<pdfrwt beam="2">  1       21 0.54302565E-04 0.49949953E+01</pdfrwt>
<totfact> 0.35259149E+09</totfact>
</mgrwt>
</event>
<event>
 4    1  0.4084348E+006  0.5684001E+01  0.7546771E-02  0.2458460E+00
         21   -1    0    0  501  502  0.00000000000E+00  0.00000000000E+00  0.54603241410E+00  0.54603241410E+00  0.00000000000E+00 0.  1.
         21   -1    0    0  502  503 -0.00000000000E+00 -0.00000000000E+00 -0.80847184587E+02  0.80847184587E+02  0.00000000000E+00 0. -1.
          5    1    1    2  501    0 -0.12977433625E+01  0.29212542412E+01 -0.19076757601E+02  0.19905540554E+02  0.47000000000E+01 0.  1.
         -5    1    1    2    0  503  0.12977433625E+01 -0.29212542412E+01 -0.61224394572E+02  0.61487676447E+02  0.47000000000E+01 0. -1.
<mgrwt>
<rscale>  2 0.56840007E+01</rscale>
<asrwt>0</asrwt>
<pdfrwt beam="1">  1       21 0.84004988E-04 0.56840007E+01</pdfrwt>
<pdfrwt beam="2">  1       21 0.12438028E-01 0.56840007E+01</pdfrwt>
<totfact> 0.22277935E+09</totfact>
</mgrwt>
</event>
<event>
 4    1  0.4084348E+006  0.5823352E+01  0.7546771E-02  0.2438997E+00
         21   -1    0    0  501  502  0.00000000000E+00  0.00000000000E+00  0.11198001899E+04  0.11198001899E+04  0.00000000000E+00 0. -1.
         21   -1    0    0  502  503 -0.00000000000E+00 -0.00000000000E+00 -0.40039146019E-01  0.40039146019E-01  0.00000000000E+00 0. -1.
          5    1    1    2  501    0 -0.33452648111E+01 -0.79412655960E+00  0.83626375014E+03  0.83628402546E+03  0.47000000000E+01 0. -1.
         -5    1    1    2    0  503  0.33452648111E+01  0.79412655960E+00  0.28349640061E+03  0.28355620359E+03  0.47000000000E+01 0. -1.
<mgrwt>
<rscale>  2 0.58233524E+01</rscale>
<asrwt>0</asrwt>
<pdfrwt beam="1">  1       21 0.17225187E+00 0.58233524E+01</pdfrwt>
<pdfrwt beam="2">  1       21 0.61607655E-05 0.58233524E+01</pdfrwt>
<totfact> 0.63166607E+08</totfact>
</mgrwt>
</event>
<event>
 4    1  0.4084348E+006  0.7807941E+01  0.7546771E-02  0.2226508E+00
         21   -1    0    0  501  502  0.00000000000E+00  0.00000000000E+00  0.91597842402E+02  0.91597842402E+02  0.00000000000E+00 0. -1.
         21   -1    0    0  502  503 -0.00000000000E+00 -0.00000000000E+00 -0.16223554032E+01  0.16223554032E+01  0.00000000000E+00 0.  1.
          5    1    1    2  501    0 -0.62165967536E+01  0.47735126454E+00  0.80782249076E+02  0.81158706897E+02  0.47000000000E+01 0. -1.
         -5    1    1    2    0  503  0.62165967536E+01 -0.47735126454E+00  0.91932379236E+01  0.12061490909E+02  0.47000000000E+01 0.  1.
<mgrwt>
<rscale>  2 0.78079408E+01</rscale>
<asrwt>0</asrwt>
<pdfrwt beam="1">  1       21 0.14091972E-01 0.78079408E+01</pdfrwt>
<pdfrwt beam="2">  1       21 0.24959321E-03 0.78079408E+01</pdfrwt>
<totfact> 0.52564286E+08</totfact>
</mgrwt>
</event>
<event>
 4    1  0.4084348E+006  0.4997459E+01  0.7546771E-02  0.2567605E+00
         21   -1    0    0  503  502  0.00000000000E+00  0.00000000000E+00  0.12338024471E+01  0.12338024471E+01  0.00000000000E+00 0. -1.
         21   -1    0    0  501  503 -0.00000000000E+00 -0.00000000000E+00 -0.12197837961E+03  0.12197837961E+03  0.00000000000E+00 0. -1.
          5    1    1    2  501    0 -0.64834717253E+00 -0.15697913036E+01 -0.11663496856E+03  0.11674198255E+03  0.47000000000E+01 0. -1.
         -5    1    1    2    0  502  0.64834717253E+00  0.15697913036E+01 -0.41096086041E+01  0.64701995079E+01  0.47000000000E+01 0. -1.
<mgrwt>
<rscale>  2 0.49974592E+01</rscale>
<asrwt>0</asrwt>
<pdfrwt beam="1">  1       21 0.18981569E-03 0.49974592E+01</pdfrwt>
<pdfrwt beam="2">  1       21 0.18765911E-01 0.49974592E+01</pdfrwt>
<totfact> 0.35186298E+08</totfact>
</mgrwt>
</event>
<event>
 4    1  0.4084348E+006  0.4927255E+01  0.7546771E-02  0.2580223E+00
         21   -1    0    0  501  502  0.00000000000E+00  0.00000000000E+00  0.17508508230E+00  0.17508508230E+00  0.00000000000E+00 0. -1.
         21   -1    0    0  502  503 -0.00000000000E+00 -0.00000000000E+00 -0.22583049296E+03  0.22583049296E+03  0.00000000000E+00 0.  1.
          5    1    1    2  501    0 -0.14791276112E+01 -0.45354539688E-02 -0.42621592839E+02  0.42905454375E+02  0.47000000000E+01 0. -1.
         -5    1    1    2    0  503  0.14791276112E+01  0.45354539688E-02 -0.18303381504E+03  0.18310012366E+03  0.47000000000E+01 0.  1.
<mgrwt>
<rscale>  2 0.49272547E+01</rscale>
<asrwt>0</asrwt>
<pdfrwt beam="1">  1       21 0.26936175E-04 0.49272547E+01</pdfrwt>
<pdfrwt beam="2">  1       21 0.34743142E-01 0.49272547E+01</pdfrwt>
<totfact> 0.17030001E+09</totfact>
</mgrwt>
</event>
<event>
 4    1  0.4084348E+006  0.5246902E+01  0.7546771E-02  0.2525133E+00
         21   -1    0    0  503  502  0.00000000000E+00  0.00000000000E+00  0.14002519257E+00  0.14002519257E+00  0.00000000000E+00 0.  1.
         21   -1    0    0  501  503 -0.00000000000E+00 -0.00000000000E+00 -0.20496384703E+03  0.20496384703E+03  0.00000000000E+00 0. -1.
          5    1    1    2  501    0 -0.22162328113E+01 -0.72684055567E+00 -0.12311889275E+03  0.12323064447E+03  0.47000000000E+01 0. -1.
         -5    1    1    2    0  502  0.22162328113E+01  0.72684055567E+00 -0.81704929084E+02  0.81873227747E+02  0.47000000000E+01 0. -1.
<mgrwt>
<rscale>  2 0.52469024E+01</rscale>
<asrwt>0</asrwt>
<pdfrwt beam="1">  1       21 0.21542377E-04 0.52469024E+01</pdfrwt>
<pdfrwt beam="2">  1       21 0.31532842E-01 0.52469024E+01</pdfrwt>
<totfact> 0.28514605E+09</totfact>
</mgrwt>
</event>
<event>
 4    1  0.4084348E+006  0.7546352E+01  0.7546771E-02  0.2249201E+00
         21   -1    0    0  503  502  0.00000000000E+00  0.00000000000E+00  0.13038700450E+03  0.13038700450E+03  0.00000000000E+00 0. -1.
         21   -1    0    0  501  503 -0.00000000000E+00 -0.00000000000E+00 -0.62201351540E+00  0.62201351540E+00  0.00000000000E+00 0. -1.
          5    1    1    2  501    0 -0.49709612624E+01  0.31854321890E+01  0.29133976376E+02  0.30095448386E+02  0.47000000000E+01 0. -1.
         -5    1    1    2    0  502  0.49709612624E+01 -0.31854321890E+01  0.10063101461E+03  0.10091356963E+03  0.47000000000E+01 0. -1.
<mgrwt>
<rscale>  2 0.75463524E+01</rscale>
<asrwt>0</asrwt>
<pdfrwt beam="1">  1       21 0.20059517E-01 0.75463524E+01</pdfrwt>
<pdfrwt beam="2">  1       21 0.95694491E-04 0.75463524E+01</pdfrwt>
<totfact> 0.10817943E+09</totfact>
</mgrwt>
</event>
<event>
 4    1  0.4084348E+006  0.5645380E+01  0.7546771E-02  0.2463997E+00
         21   -1    0    0  501  502  0.00000000000E+00  0.00000000000E+00  0.35770915441E+03  0.35770915441E+03  0.00000000000E+00 0.  1.
         21   -1    0    0  502  503 -0.00000000000E+00 -0.00000000000E+00 -0.12137875560E+00  0.12137875560E+00  0.00000000000E+00 0.  1.
          5    1    1    2  501    0 -0.16715336633E+01  0.26431595950E+01  0.27106461477E+03  0.27112339570E+03  0.47000000000E+01 0.  1.
         -5    1    1    2    0  503  0.16715336633E+01 -0.26431595950E+01  0.86523160890E+02  0.86707137467E+02  0.47000000000E+01 0.  1.
<mgrwt>
<rscale>  2 0.56453802E+01</rscale>
<asrwt>0</asrwt>
<pdfrwt beam="1">  1       21 0.55031334E-01 0.56453802E+01</pdfrwt>
<pdfrwt beam="2">  1       21 0.18673941E-04 0.56453802E+01</pdfrwt>
<totfact> 0.13876385E+09</totfact>
</mgrwt>
</event>
<event>
 4    1  0.4084348E+006  0.4732682E+01  0.7546771E-02  0.2616879E+00
         21   -1    0    0  501  502  0.00000000000E+00  0.00000000000E+00  0.34222398569E+03  0.34222398569E+03  0.00000000000E+00 0.  1.
         21   -1    0    0  502  503 -0.00000000000E+00 -0.00000000000E+00 -0.86961674937E-01  0.86961674937E-01  0.00000000000E+00 0.  1.
          5    1    1    2  501    0 -0.47188613567E+00  0.29257282302E+00  0.25619649612E+03  0.25624020547E+03  0.47000000000E+01 0. -1.
         -5    1    1    2    0  503  0.47188613567E+00 -0.29257282302E+00  0.85940527892E+02  0.86070741891E+02  0.47000000000E+01 0. -1.
<mgrwt>
<rscale>  2 0.47326816E+01</rscale>
<asrwt>0</asrwt>
<pdfrwt beam="1">  1       21 0.52648766E-01 0.47326816E+01</pdfrwt>
<pdfrwt beam="2">  1       21 0.13378993E-04 0.47326816E+01</pdfrwt>
<totfact> 0.20157683E+09</totfact>
</mgrwt>
</event>
<event>
 4    1  0.4084348E+006  0.7294395E+01  0.7546771E-02  0.2272299E+00
         21   -1    0    0  503  502  0.00000000000E+00  0.00000000000E+00  0.13351393202E+01  0.13351393202E+01  0.00000000000E+00 0. -1.
         21   -1    0    0  501  503 -0.00000000000E+00 -0.00000000000E+00 -0.19134732785E+03  0.19134732785E+03  0.00000000000E+00 0. -1.
          5    1    1    2  501    0  0.26256607849E+01  0.49217995570E+01 -0.18072968837E+03  0.18087683230E+03  0.47000000000E+01 0. -1.
         -5    1    1    2    0  502 -0.26256607849E+01 -0.49217995570E+01 -0.92825001642E+01  0.11805634872E+02  0.47000000000E+01 0. -1.
<mgrwt>
<rscale>  2 0.72943955E+01</rscale>
<asrwt>0</asrwt>
<pdfrwt beam="1">  1       21 0.20540595E-03 0.72943955E+01</pdfrwt>
<pdfrwt beam="2">  1       21 0.29438064E-01 0.72943955E+01</pdfrwt>
<totfact> 0.19617373E+08</totfact>
</mgrwt>
</event>
<event>
 4    1  0.4084348E+006  0.4870579E+01  0.7546771E-02  0.2590638E+00
         21   -1    0    0  503  502  0.00000000000E+00  0.00000000000E+00  0.68258677061E+01  0.68258677061E+01  0.00000000000E+00 0. -1.
         21   -1    0    0  501  503 -0.00000000000E+00 -0.00000000000E+00 -0.35366570465E+01  0.35366570465E+01  0.00000000000E+00 0. -1.
          5    1    1    2  501    0 -0.69737678820E+00  0.10706078487E+01  0.96264154020E+00  0.49647975070E+01  0.47000000000E+01 0. -1.
         -5    1    1    2    0  502  0.69737678820E+00 -0.10706078487E+01  0.23265691195E+01  0.53977272456E+01  0.47000000000E+01 0. -1.
<mgrwt>
<rscale>  2 0.48705786E+01</rscale>
<asrwt>0</asrwt>
<pdfrwt beam="1">  1       21 0.10501335E-02 0.48705786E+01</pdfrwt>
<pdfrwt beam="2">  1       21 0.54410108E-03 0.48705786E+01</pdfrwt>
<totfact> 0.55951247E+09</totfact>
</mgrwt>
</event>
<event>
 4    1  0.4084348E+006  0.4767952E+01  0.7546771E-02  0.2610042E+00
         21   -1    0    0  503  502  0.00000000000E+00  0.00000000000E+00  0.22237589720E+00  0.22237589720E+00  0.00000000000E+00 0.  1.
         21   -1    0    0  501  503 -0.00000000000E+00 -0.00000000000E+00 -0.10810915782E+03  0.10810915782E+03  0.00000000000E+00 0.  1.
          5    1    1    2  501    0  0.56364894820E+00 -0.57067331293E+00 -0.66575361705E+02  0.66745877433E+02  0.47000000000E+01 0. -1.
         -5    1    1    2    0  502 -0.56364894820E+00  0.57067331293E+00 -0.41311420222E+02  0.41585656288E+02  0.47000000000E+01 0. -1.
<mgrwt>
<rscale>  2 0.47679522E+01</rscale>
<asrwt>0</asrwt>
<pdfrwt beam="1">  1       21 0.34211723E-04 0.47679522E+01</pdfrwt>
<pdfrwt beam="2">  1       21 0.16632156E-01 0.47679522E+01</pdfrwt>
<totfact> 0.39595287E+09</totfact>
</mgrwt>
</event>
<event>
 4    1  0.4084348E+006  0.5176817E+01  0.7546771E-02  0.2536711E+00
         21   -1    0    0  503  502  0.00000000000E+00  0.00000000000E+00  0.15744611056E+01  0.15744611056E+01  0.00000000000E+00 0.  1.
         21   -1    0    0  501  503 -0.00000000000E+00 -0.00000000000E+00 -0.17107416175E+02  0.17107416175E+02  0.00000000000E+00 0.  1.
          5    1    1    2  501    0  0.13020587977E+01 -0.17361108985E+01 -0.84290588692E+01  0.98918386352E+01  0.47000000000E+01 0.  1.
         -5    1    1    2    0  502 -0.13020587977E+01  0.17361108985E+01 -0.71038962006E+01  0.87900386457E+01  0.47000000000E+01 0.  1.
<mgrwt>
<rscale>  2 0.51768174E+01</rscale>
<asrwt>0</asrwt>
<pdfrwt beam="1">  1       21 0.24222480E-03 0.51768174E+01</pdfrwt>
<pdfrwt beam="2">  1       21 0.26319100E-02 0.51768174E+01</pdfrwt>
<totfact> 0.49187611E+09</totfact>
</mgrwt>
</event>
<event>
 4    1  0.4084348E+006  0.4707043E+01  0.7546771E-02  0.2621905E+00
         21   -1    0    0  501  502  0.00000000000E+00  0.00000000000E+00  0.35556849066E+01  0.35556849066E+01  0.00000000000E+00 0.  1.
         21   -1    0    0  502  503 -0.00000000000E+00 -0.00000000000E+00 -0.62313167223E+01  0.62313167223E+01  0.00000000000E+00 0.  1.
          5    1    1    2  501    0  0.10848358035E+00  0.23342254881E+00 -0.13570989389E+01  0.48987725303E+01  0.47000000000E+01 0. -1.
         -5    1    1    2    0  503 -0.10848358035E+00 -0.23342254881E+00 -0.13185328767E+01  0.48882290986E+01  0.47000000000E+01 0. -1.
<mgrwt>
<rscale>  2 0.47070431E+01</rscale>
<asrwt>0</asrwt>
<pdfrwt beam="1">  1       21 0.54702845E-03 0.47070431E+01</pdfrwt>
<pdfrwt beam="2">  1       21 0.95866411E-03 0.47070431E+01</pdfrwt>
<totfact> 0.60709222E+09</totfact>
</mgrwt>
</event>
<event>
 4    1  0.4084348E+006  0.5043330E+01  0.7546771E-02  0.2559524E+00
         21   -1    0    0  503  502  0.00000000000E+00  0.00000000000E+00  0.82261274894E-01  0.82261274894E-01  0.00000000000E+00 0.  1.
         21   -1    0    0  501  503 -0.00000000000E+00 -0.00000000000E+00 -0.31129954487E+03  0.31129954487E+03  0.00000000000E+00 0.  1.
          5    1    1    2  501    0 -0.11987304201E+01  0.13813844102E+01 -0.14282226499E+03  0.14291128211E+03  0.47000000000E+01 0.  1.
         -5    1    1    2    0  502  0.11987304201E+01 -0.13813844102E+01 -0.16839501861E+03  0.16847052404E+03  0.47000000000E+01 0.  1.
<mgrwt>
<rscale>  2 0.50433300E+01</rscale>
<asrwt>0</asrwt>
<pdfrwt beam="1">  1       21 0.12655441E-04 0.50433300E+01</pdfrwt>
<pdfrwt beam="2">  1       21 0.47892768E-01 0.50433300E+01</pdfrwt>
<totfact> 0.27165118E+09</totfact>
</mgrwt>
</event>
<event>
 4    1  0.4084348E+006  0.1812821E+02  0.7546771E-02  0.1785335E+00
         21   -1    0    0  503  502  0.00000000000E+00  0.00000000000E+00  0.48780676175E+01  0.48780676175E+01  0.00000000000E+00 0. -1.
         21   -1    0    0  501  503 -0.00000000000E+00 -0.00000000000E+00 -0.11616788498E+03  0.11616788498E+03  0.00000000000E+00 0.  1.
          5    1    1    2  501    0  0.85534606597E+01  0.15276791757E+02 -0.94871520706E+02  0.96587978013E+02  0.47000000000E+01 0.  1.
         -5    1    1    2    0  502 -0.85534606597E+01 -0.15276791757E+02 -0.16418296656E+02  0.24457974584E+02  0.47000000000E+01 0. -1.
<mgrwt>
<rscale>  2 0.18128212E+02</rscale>
<asrwt>0</asrwt>
<pdfrwt beam="1">  1       21 0.75047197E-03 0.18128212E+02</pdfrwt>
<pdfrwt beam="2">  1       21 0.17871982E-01 0.18128212E+02</pdfrwt>
<totfact> 0.10716453E+08</totfact>
</mgrwt>
</event>
<event>
 4    1  0.4084348E+006  0.6116591E+01  0.7546771E-02  0.2400492E+00
         21   -1    0    0  501  502  0.00000000000E+00  0.00000000000E+00  0.78087967999E+02  0.78087967999E+02  0.00000000000E+00 0.  1.
         21   -1    0    0  502  503 -0.00000000000E+00 -0.00000000000E+00 -0.47984082536E+00  0.47984082536E+00  0.00000000000E+00 0.  1.
          5    1    1    2  501    0 -0.22248384333E+01  0.32206801140E+01  0.37270419415E+02  0.37768993233E+02  0.47000000000E+01 0.  1.
         -5    1    1    2    0  503  0.22248384333E+01 -0.32206801140E+01  0.40337707759E+02  0.40798815592E+02  0.47000000000E+01 0.  1.
<mgrwt>
<rscale>  2 0.61165911E+01</rscale>
<asrwt>0</asrwt>
<pdfrwt beam="1">  1       21 0.12013523E-01 0.61165911E+01</pdfrwt>
<pdfrwt beam="2">  1       21 0.73821727E-04 0.61165911E+01</pdfrwt>
<totfact> 0.29756377E+09</totfact>
</mgrwt>
</event>
<event>
 4    1  0.4084348E+006  0.5878950E+01  0.7546771E-02  0.2431450E+00
         21   -1    0    0  501  502  0.00000000000E+00  0.00000000000E+00  0.85984915900E+00  0.85984915900E+00  0.00000000000E+00 0.  1.
         21   -1    0    0  502  503 -0.00000000000E+00 -0.00000000000E+00 -0.57628033890E+02  0.57628033890E+02  0.00000000000E+00 0.  1.
          5    1    1    2  501    0  0.34582105439E+01 -0.71612628521E+00 -0.12299894499E+02  0.13632661578E+02  0.47000000000E+01 0.  1.
         -5    1    1    2    0  503 -0.34582105439E+01  0.71612628521E+00 -0.44468290232E+02  0.44855221471E+02  0.47000000000E+01 0.  1.
<mgrwt>
<rscale>  2 0.58789503E+01</rscale>
<asrwt>0</asrwt>
<pdfrwt beam="1">  1       21 0.13228448E-03 0.58789503E+01</pdfrwt>
<pdfrwt beam="2">  1       21 0.88658515E-02 0.58789503E+01</pdfrwt>
<totfact> 0.20963884E+09</totfact>
</mgrwt>
</event>
<event>
 4    1  0.4084348E+006  0.7121052E+01  0.7546771E-02  0.2288960E+00
         21   -1    0    0  501  502  0.00000000000E+00  0.00000000000E+00  0.28378794768E+00  0.28378794768E+00  0.00000000000E+00 0. -1.
         21   -1    0    0  502  503 -0.00000000000E+00 -0.00000000000E+00 -0.18558527467E+03  0.18558527467E+03  0.00000000000E+00 0.  1.
          5    1    1    2  501    0  0.41626422682E+01  0.33603254424E+01 -0.11056743292E+03  0.11079650988E+03  0.47000000000E+01 0.  1.
         -5    1    1    2    0  503 -0.41626422682E+01 -0.33603254424E+01 -0.74734053802E+02  0.75072552744E+02  0.47000000000E+01 0. -1.
<mgrwt>
<rscale>  2 0.71210517E+01</rscale>
<asrwt>0</asrwt>
<pdfrwt beam="1">  1       21 0.43659724E-04 0.71210517E+01</pdfrwt>
<pdfrwt beam="2">  1       21 0.28551555E-01 0.71210517E+01</pdfrwt>
<totfact> 0.16679660E+09</totfact>
</mgrwt>
</event>
<event>
 4    1  0.4084348E+006  0.5120132E+01  0.7546771E-02  0.2546274E+00
         21   -1    0    0  501  502  0.00000000000E+00  0.00000000000E+00  0.11972831692E+03  0.11972831692E+03  0.00000000000E+00 0.  1.
         21   -1    0    0  502  503 -0.00000000000E+00 -0.00000000000E+00 -0.68147587605E+00  0.68147587605E+00  0.00000000000E+00 0.  1.
          5    1    1    2  501    0  0.20166462394E+01  0.24266410325E+00  0.10912205874E+03  0.10924211391E+03  0.47000000000E+01 0.  1.
         -5    1    1    2    0  503 -0.20166462394E+01 -0.24266410325E+00  0.99247823064E+01  0.11167678888E+02  0.47000000000E+01 0.  1.
<mgrwt>
<rscale>  2 0.51201316E+01</rscale>
<asrwt>0</asrwt>
<pdfrwt beam="1">  1       21 0.18419724E-01 0.51201316E+01</pdfrwt>
<pdfrwt beam="2">  1       21 0.10484254E-03 0.51201316E+01</pdfrwt>
<totfact> 0.81834693E+08</totfact>
</mgrwt>
</event>
<event>
 4    1  0.4084348E+006  0.4724606E+01  0.7546771E-02  0.2618457E+00
         21   -1    0    0  501  502  0.00000000000E+00  0.00000000000E+00  0.28732861182E+02  0.28732861182E+02  0.00000000000E+00 0.  1.
         21   -1    0    0  502  503 -0.00000000000E+00 -0.00000000000E+00 -0.80286068514E+00  0.80286068514E+00  0.00000000000E+00 0.  1.
          5    1    1    2  501    0  0.35192032718E-01  0.48027693881E+00  0.16621723362E+02  0.17280150229E+02  0.47000000000E+01 0.  1.
         -5    1    1    2    0  503 -0.35192032718E-01 -0.48027693881E+00  0.11308277135E+02  0.12255571638E+02  0.47000000000E+01 0.  1.
<mgrwt>
<rscale>  2 0.47246063E+01</rscale>
<asrwt>0</asrwt>
<pdfrwt beam="1">  1       21 0.44204394E-02 0.47246063E+01</pdfrwt>
<pdfrwt beam="2">  1       21 0.12351705E-03 0.47246063E+01</pdfrwt>
<totfact> 0.52175461E+09</totfact>
</mgrwt>
</event>
<event>
 4    1  0.4084348E+006  0.7970998E+01  0.7546771E-02  0.2212975E+00
         21   -1    0    0  501  502  0.00000000000E+00  0.00000000000E+00  0.64207936325E+00  0.64207936325E+00  0.00000000000E+00 0.  1.
         21   -1    0    0  502  503 -0.00000000000E+00 -0.00000000000E+00 -0.12507090294E+03  0.12507090294E+03  0.00000000000E+00 0. -1.
          5    1    1    2  501    0 -0.60533283417E+01  0.21918092895E+01 -0.33491631589E+02  0.34427114292E+02  0.47000000000E+01 0. -1.
         -5    1    1    2    0  503  0.60533283417E+01 -0.21918092895E+01 -0.90937191992E+02  0.91285868016E+02  0.47000000000E+01 0. -1.
<mgrwt>
<rscale>  2 0.79709982E+01</rscale>
<asrwt>0</asrwt>
<pdfrwt beam="1">  1       21 0.98781399E-04 0.79709982E+01</pdfrwt>
<pdfrwt beam="2">  1       21 0.19241686E-01 0.79709982E+01</pdfrwt>
<totfact> 0.11500606E+09</totfact>
</mgrwt>
</event>
<event>
 4    1  0.4084348E+006  0.6277587E+01  0.7546771E-02  0.2380637E+00
         21   -1    0    0  501  502  0.00000000000E+00  0.00000000000E+00  0.31919399877E+00  0.31919399877E+00  0.00000000000E+00 0. -1.
         21   -1    0    0  502  503 -0.00000000000E+00 -0.00000000000E+00 -0.55140202466E+03  0.55140202466E+03  0.00000000000E+00 0. -1.
          5    1    1    2  501    0  0.31146117930E+01 -0.27599441177E+01 -0.32518439593E+02  0.33118831678E+02  0.47000000000E+01 0. -1.
         -5    1    1    2    0  503 -0.31146117930E+01  0.27599441177E+01 -0.51856439106E+03  0.51860238698E+03  0.47000000000E+01 0. -1.
<mgrwt>
<rscale>  2 0.62775870E+01</rscale>
<asrwt>0</asrwt>
<pdfrwt beam="1">  1       21 0.49107277E-04 0.62775870E+01</pdfrwt>
<pdfrwt beam="2">  1       21 0.84830203E-01 0.62775870E+01</pdfrwt>
<totfact> 0.18103508E+08</totfact>
</mgrwt>
</event>
<event>
 4    1  0.4084348E+006  0.5705829E+01  0.7546771E-02  0.2455358E+00
         21   -1    0    0  501  502  0.00000000000E+00  0.00000000000E+00  0.36975950748E+03  0.36975950748E+03  0.00000000000E+00 0. -1.
         21   -1    0    0  502  503 -0.00000000000E+00 -0.00000000000E+00 -0.15434215868E+00  0.15434215868E+00  0.00000000000E+00 0. -1.
          5    1    1    2  501    0 -0.76167181820E+00  0.31442560288E+01  0.30602049101E+03  0.30607367970E+03  0.47000000000E+01 0. -1.
         -5    1    1    2    0  503  0.76167181820E+00 -0.31442560288E+01  0.63584674316E+02  0.63840169938E+02  0.47000000000E+01 0. -1.
<mgrwt>
<rscale>  2 0.57058295E+01</rscale>
<asrwt>0</asrwt>
<pdfrwt beam="1">  1       21 0.56885369E-01 0.57058295E+01</pdfrwt>
<pdfrwt beam="2">  1       21 0.23745243E-04 0.57058295E+01</pdfrwt>
<totfact> 0.95658642E+08</totfact>
</mgrwt>
</event>
<event>
 4    1  0.4084348E+006  0.7827339E+01  0.7546771E-02  0.2224874E+00
         21   -1    0    0  503  502  0.00000000000E+00  0.00000000000E+00  0.98950894760E+01  0.98950894760E+01  0.00000000000E+00 0. -1.
         21   -1    0    0  501  503 -0.00000000000E+00 -0.00000000000E+00 -0.12743000796E+02  0.12743000796E+02  0.00000000000E+00 0. -1.
          5    1    1    2  501    0  0.26752845160E+01  0.56586293802E+01 -0.95398867172E+01  0.12340043447E+02  0.47000000000E+01 0. -1.
         -5    1    1    2    0  502 -0.26752845160E+01 -0.56586293802E+01  0.66919753967E+01  0.10298046825E+02  0.47000000000E+01 0. -1.
<mgrwt>
<rscale>  2 0.78273389E+01</rscale>
<asrwt>0</asrwt>
<pdfrwt beam="1">  1       21 0.15223214E-02 0.78273389E+01</pdfrwt>
<pdfrwt beam="2">  1       21 0.19604617E-02 0.78273389E+01</pdfrwt>
<totfact> 0.81077752E+08</totfact>
</mgrwt>
</event>
<event>
 4    1  0.4084348E+006  0.4906841E+01  0.7546771E-02  0.2583950E+00
         21   -1    0    0  501  502  0.00000000000E+00  0.00000000000E+00  0.11007438091E+00  0.11007438091E+00  0.00000000000E+00 0. -1.
         21   -1    0    0  502  503 -0.00000000000E+00 -0.00000000000E+00 -0.23411417962E+03  0.23411417962E+03  0.00000000000E+00 0. -1.
          5    1    1    2  501    0  0.11335748540E+01  0.83790980059E+00 -0.86985620146E+02  0.87123907149E+02  0.47000000000E+01 0. -1.
         -5    1    1    2    0  503 -0.11335748540E+01 -0.83790980059E+00 -0.14701848509E+03  0.14710034685E+03  0.47000000000E+01 0. -1.
<mgrwt>
<rscale>  2 0.49068406E+01</rscale>
<asrwt>0</asrwt>
<pdfrwt beam="1">  1       21 0.16934799E-04 0.49068406E+01</pdfrwt>
<pdfrwt beam="2">  1       21 0.36016972E-01 0.49068406E+01</pdfrwt>
<totfact> 0.29498812E+09</totfact>
</mgrwt>
</event>
<event>
 4    1  0.4084348E+006  0.5019338E+01  0.7546771E-02  0.2563735E+00
         21   -1    0    0  503  502  0.00000000000E+00  0.00000000000E+00  0.15596222209E+02  0.15596222209E+02  0.00000000000E+00 0. -1.
         21   -1    0    0  501  503 -0.00000000000E+00 -0.00000000000E+00 -0.22432245795E+01  0.22432245795E+01  0.00000000000E+00 0. -1.
          5    1    1    2  501    0  0.10703572105E+01  0.13993176831E+01  0.19575783659E+01  0.53875660177E+01  0.47000000000E+01 0. -1.
         -5    1    1    2    0  502 -0.10703572105E+01 -0.13993176831E+01  0.11395419263E+02  0.12451880771E+02  0.47000000000E+01 0. -1.
<mgrwt>
<rscale>  2 0.50193381E+01</rscale>
<asrwt>0</asrwt>
<pdfrwt beam="1">  1       21 0.23994187E-02 0.50193381E+01</pdfrwt>
<pdfrwt beam="2">  1       21 0.34511148E-03 0.50193381E+01</pdfrwt>
<totfact> 0.33616573E+09</totfact>
</mgrwt>
</event>
<event>
 4    1  0.4084348E+006  0.6506414E+01  0.7546771E-02  0.2353831E+00
         21   -1    0    0  503  502  0.00000000000E+00  0.00000000000E+00  0.10893890718E+03  0.10893890718E+03  0.00000000000E+00 0. -1.
         21   -1    0    0  501  503 -0.00000000000E+00 -0.00000000000E+00 -0.53066840263E+00  0.53066840263E+00  0.00000000000E+00 0.  1.
          5    1    1    2  501    0 -0.35871643781E+00  0.44849471210E+01  0.25883430311E+02  0.26688675367E+02  0.47000000000E+01 0.  1.
         -5    1    1    2    0  502  0.35871643781E+00 -0.44849471210E+01  0.82524808468E+02  0.82780900218E+02  0.47000000000E+01 0. -1.
<mgrwt>
<rscale>  2 0.65064144E+01</rscale>
<asrwt>0</asrwt>
<pdfrwt beam="1">  1       21 0.16759814E-01 0.65064144E+01</pdfrwt>
<pdfrwt beam="2">  1       21 0.81641379E-04 0.65064144E+01</pdfrwt>
<totfact> 0.16155704E+09</totfact>
</mgrwt>
</event>
<event>
 4    1  0.4084348E+006  0.7703382E+01  0.7546771E-02  0.2235429E+00
         21   -1    0    0  503  502  0.00000000000E+00  0.00000000000E+00  0.99988721142E-01  0.99988721142E-01  0.00000000000E+00 0.  1.
         21   -1    0    0  501  503 -0.00000000000E+00 -0.00000000000E+00 -0.62781217604E+03  0.62781217604E+03  0.00000000000E+00 0.  1.
          5    1    1    2  501    0  0.49600214874E+01  0.35567223049E+01 -0.24044607688E+03  0.24056944522E+03  0.47000000000E+01 0.  1.
         -5    1    1    2    0  502 -0.49600214874E+01 -0.35567223049E+01 -0.38726611044E+03  0.38734271954E+03  0.47000000000E+01 0.  1.
<mgrwt>
<rscale>  2 0.77033815E+01</rscale>
<asrwt>0</asrwt>
<pdfrwt beam="1">  1       21 0.15382927E-04 0.77033815E+01</pdfrwt>
<pdfrwt beam="2">  1       21 0.96586192E-01 0.77033815E+01</pdfrwt>
<totfact> 0.74743320E+08</totfact>
</mgrwt>
</event>
<event>
 4    1  0.4084348E+006  0.6050539E+01  0.7546771E-02  0.2408892E+00
         21   -1    0    0  501  502  0.00000000000E+00  0.00000000000E+00  0.76934793609E+02  0.76934793609E+02  0.00000000000E+00 0.  1.
         21   -1    0    0  502  503 -0.00000000000E+00 -0.00000000000E+00 -0.17947316392E+01  0.17947316392E+01  0.00000000000E+00 0.  1.
          5    1    1    2  501    0  0.41244602955E+00  0.37879957789E+01  0.71315202499E+02  0.71571412807E+02  0.47000000000E+01 0.  1.
         -5    1    1    2    0  503 -0.41244602955E+00 -0.37879957789E+01  0.38248594709E+01  0.71581124412E+01  0.47000000000E+01 0.  1.
<mgrwt>
<rscale>  2 0.60505391E+01</rscale>
<asrwt>0</asrwt>
<pdfrwt beam="1">  1       21 0.11836120E-01 0.60505391E+01</pdfrwt>
<pdfrwt beam="2">  1       21 0.27611262E-03 0.60505391E+01</pdfrwt>
<totfact> 0.50600016E+08</totfact>
</mgrwt>
</event>
<event>
 4    1  0.4084348E+006  0.5314672E+01  0.7546771E-02  0.2514186E+00
         21   -1    0    0  503  502  0.00000000000E+00  0.00000000000E+00  0.53325937012E+03  0.53325937012E+03  0.00000000000E+00 0.  1.
         21   -1    0    0  501  503 -0.00000000000E+00 -0.00000000000E+00 -0.53053859928E-01  0.53053859928E-01  0.00000000000E+00 0. -1.
          5    1    1    2  501    0 -0.95846027119E+00 -0.22884705031E+01  0.27732325932E+03  0.27737418031E+03  0.47000000000E+01 0. -1.
         -5    1    1    2    0  502  0.95846027119E+00  0.22884705031E+01  0.25588305694E+03  0.25593824367E+03  0.47000000000E+01 0. -1.
<mgrwt>
<rscale>  2 0.53146725E+01</rscale>
<asrwt>0</asrwt>
<pdfrwt beam="1">  1       21 0.82035611E-01 0.53146725E+01</pdfrwt>
<pdfrwt beam="2">  1       21 0.81625593E-05 0.53146725E+01</pdfrwt>
<totfact> 0.18792157E+09</totfact>
</mgrwt>
</event>
<event>
 4    1  0.4084348E+006  0.7321164E+01  0.7546771E-02  0.2269784E+00
         21   -1    0    0  501  502  0.00000000000E+00  0.00000000000E+00  0.65467979204E+03  0.65467979204E+03  0.00000000000E+00 0.  1.
         21   -1    0    0  502  503 -0.00000000000E+00 -0.00000000000E+00 -0.16620963012E+00  0.16620963012E+00  0.00000000000E+00 0. -1.
          5    1    1    2  501    0 -0.46527585512E+01  0.31402669645E+01  0.56049182010E+03  0.56053963271E+03  0.47000000000E+01 0.  1.
         -5    1    1    2    0  503  0.46527585512E+01 -0.31402669645E+01  0.94021762315E+02  0.94306368966E+02  0.47000000000E+01 0. -1.
<mgrwt>
<rscale>  2 0.73211638E+01</rscale>
<asrwt>0</asrwt>
<pdfrwt beam="1">  1       21 0.10071790E+00 0.73211638E+01</pdfrwt>
<pdfrwt beam="2">  1       21 0.25571237E-04 0.73211638E+01</pdfrwt>
<totfact> 0.33664814E+08</totfact>
</mgrwt>
</event>
<event>
 4    1  0.4084348E+006  0.4736857E+01  0.7546771E-02  0.2616065E+00
         21   -1    0    0  501  502  0.00000000000E+00  0.00000000000E+00  0.29705504749E+02  0.29705504749E+02  0.00000000000E+00 0.  1.
         21   -1    0    0  502  503 -0.00000000000E+00 -0.00000000000E+00 -0.78624981343E+00  0.78624981343E+00  0.00000000000E+00 0.  1.
          5    1    1    2  501    0 -0.56343142438E-01 -0.58706159047E+00  0.17482404867E+02  0.18112766100E+02  0.47000000000E+01 0.  1.
         -5    1    1    2    0  503  0.56343142438E-01  0.58706159047E+00  0.11436850068E+02  0.12378988462E+02  0.47000000000E+01 0.  1.
<mgrwt>
<rscale>  2 0.47368572E+01</rscale>
<asrwt>0</asrwt>
<pdfrwt beam="1">  1       21 0.45700768E-02 0.47368572E+01</pdfrwt>
<pdfrwt beam="2">  1       21 0.12096153E-03 0.47368572E+01</pdfrwt>
<totfact> 0.51262156E+09</totfact>
</mgrwt>
</event>
<event>
 4    1  0.4084348E+006  0.6072809E+01  0.7546771E-02  0.2406043E+00
         21   -1    0    0  501  502  0.00000000000E+00  0.00000000000E+00  0.61229055085E+00  0.61229055085E+00  0.00000000000E+00 0.  1.
         21   -1    0    0  502  503 -0.00000000000E+00 -0.00000000000E+00 -0.93938258285E+02  0.93938258285E+02  0.00000000000E+00 0.  1.
          5    1    1    2  501    0  0.25942827559E+01  0.28387851090E+01 -0.18344295460E+02  0.19323358399E+02  0.47000000000E+01 0.  1.
         -5    1    1    2    0  503 -0.25942827559E+01 -0.28387851090E+01 -0.74981672275E+02  0.75227190437E+02  0.47000000000E+01 0.  1.
<mgrwt>
<rscale>  2 0.60728086E+01</rscale>
<asrwt>0</asrwt>
<pdfrwt beam="1">  1       21 0.94198574E-04 0.60728086E+01</pdfrwt>
<pdfrwt beam="2">  1       21 0.14452036E-01 0.60728086E+01</pdfrwt>
<totfact> 0.15970903E+09</totfact>
</mgrwt>
</event>
<event>
 4    1  0.4084348E+006  0.5545607E+01  0.7546771E-02  0.2478603E+00
         21   -1    0    0  503  502  0.00000000000E+00  0.00000000000E+00  0.47827571873E+01  0.47827571873E+01  0.00000000000E+00 0. -1.
         21   -1    0    0  501  503 -0.00000000000E+00 -0.00000000000E+00 -0.66150391696E+01  0.66150391696E+01  0.00000000000E+00 0. -1.
          5    1    1    2  501    0  0.28854930060E+01  0.58111161960E+00 -0.18689402803E+01  0.58520678715E+01  0.47000000000E+01 0. -1.
         -5    1    1    2    0  502 -0.28854930060E+01 -0.58111161960E+00  0.36658297972E-01  0.55457284853E+01  0.47000000000E+01 0. -1.
<mgrwt>
<rscale>  2 0.55456073E+01</rscale>
<asrwt>0</asrwt>
<pdfrwt beam="1">  1       21 0.73580880E-03 0.55456073E+01</pdfrwt>
<pdfrwt beam="2">  1       21 0.10176983E-02 0.55456073E+01</pdfrwt>
<totfact> 0.44033367E+09</totfact>
</mgrwt>
</event>
<event>
 4    1  0.4084348E+006  0.7835483E+01  0.7546771E-02  0.2224190E+00
         21   -1    0    0  503  502  0.00000000000E+00  0.00000000000E+00  0.62834896958E+00  0.62834896958E+00  0.00000000000E+00 0.  1.
         21   -1    0    0  501  503 -0.00000000000E+00 -0.00000000000E+00 -0.14165151384E+03  0.14165151384E+03  0.00000000000E+00 0.  1.
          5    1    1    2  501    0  0.60234966091E+01 -0.17384718014E+01 -0.11013479068E+03  0.11041316458E+03  0.47000000000E+01 0.  1.
         -5    1    1    2    0  502 -0.60234966091E+01  0.17384718014E+01 -0.30888374196E+02  0.31866698230E+02  0.47000000000E+01 0.  1.
<mgrwt>
<rscale>  2 0.78354831E+01</rscale>
<asrwt>0</asrwt>
<pdfrwt beam="1">  1       21 0.96669084E-04 0.78354831E+01</pdfrwt>
<pdfrwt beam="2">  1       21 0.21792538E-01 0.78354831E+01</pdfrwt>
<totfact> 0.95376665E+08</totfact>
</mgrwt>
</event>
<event>
 4    1  0.4084348E+006  0.6350969E+01  0.7546771E-02  0.2371866E+00
         21   -1    0    0  501  502  0.00000000000E+00  0.00000000000E+00  0.51811666449E+02  0.51811666449E+02  0.00000000000E+00 0.  1.
         21   -1    0    0  502  503 -0.00000000000E+00 -0.00000000000E+00 -0.90245928222E+00  0.90245928222E+00  0.00000000000E+00 0. -1.
          5    1    1    2  501    0 -0.42703100776E+01  0.96191577031E-01  0.35223429839E+02  0.35791406938E+02  0.47000000000E+01 0.  1.
         -5    1    1    2    0  503  0.42703100776E+01 -0.96191577031E-01  0.15685777328E+02  0.16922718793E+02  0.47000000000E+01 0. -1.
<mgrwt>
<rscale>  2 0.63509685E+01</rscale>
<asrwt>0</asrwt>
<pdfrwt beam="1">  1       21 0.79710233E-02 0.63509685E+01</pdfrwt>
<pdfrwt beam="2">  1       21 0.13883993E-03 0.63509685E+01</pdfrwt>
<totfact> 0.24631156E+09</totfact>
</mgrwt>
</event>
<event>
 4    1  0.4084348E+006  0.7097526E+01  0.7546771E-02  0.2291273E+00
         21   -1    0    0  501  502  0.00000000000E+00  0.00000000000E+00  0.89027472328E-01  0.89027472328E-01  0.00000000000E+00 0. -1.
         21   -1    0    0  502  503 -0.00000000000E+00 -0.00000000000E+00 -0.57358742096E+03  0.57358742096E+03  0.00000000000E+00 0. -1.
          5    1    1    2  501    0 -0.68208685581E+00 -0.52744325286E+01 -0.25340277581E+03  0.25350215319E+03  0.47000000000E+01 0. -1.
         -5    1    1    2    0  503  0.68208685581E+00  0.52744325286E+01 -0.32009561768E+03  0.32017429525E+03  0.47000000000E+01 0. -1.
<mgrwt>
<rscale>  2 0.70975264E+01</rscale>
<asrwt>0</asrwt>
<pdfrwt beam="1">  1       21 0.13696427E-04 0.70975264E+01</pdfrwt>
<pdfrwt beam="2">  1       21 0.88244907E-01 0.70975264E+01</pdfrwt>
<totfact> 0.99877247E+08</totfact>
</mgrwt>
</event>
<event>
 4    1  0.4084348E+006  0.1091409E+02  0.7546771E-02  0.2026417E+00
         21   -1    0    0  503  502  0.00000000000E+00  0.00000000000E+00  0.23120333357E+01  0.23120333357E+01  0.00000000000E+00 0.  1.
         21   -1    0    0  501  503 -0.00000000000E+00 -0.00000000000E+00 -0.15123319605E+03  0.15123319605E+03  0.00000000000E+00 0. -1.
          5    1    1    2  501    0 -0.33980568629E+01  0.92455669839E+01 -0.13679929282E+03  0.13723397471E+03  0.47000000000E+01 0.  1.
         -5    1    1    2    0  502  0.33980568629E+01 -0.92455669839E+01 -0.12121869896E+02  0.16311254675E+02  0.47000000000E+01 0. -1.
<mgrwt>
<rscale>  2 0.10914087E+02</rscale>
<asrwt>0</asrwt>
<pdfrwt beam="1">  1       21 0.35569745E-03 0.10914087E+02</pdfrwt>
<pdfrwt beam="2">  1       21 0.23266645E-01 0.10914087E+02</pdfrwt>
<totfact> 0.16659583E+08</totfact>
</mgrwt>
</event>
<event>
 4    1  0.4084348E+006  0.4826024E+01  0.7546771E-02  0.2598974E+00
         21   -1    0    0  501  502  0.00000000000E+00  0.00000000000E+00  0.16025566575E+01  0.16025566575E+01  0.00000000000E+00 0. -1.
         21   -1    0    0  502  503 -0.00000000000E+00 -0.00000000000E+00 -0.33556292699E+02  0.33556292699E+02  0.00000000000E+00 0. -1.
          5    1    1    2  501    0  0.10220737122E+01  0.39481279703E+00 -0.27408741860E+01  0.55500363171E+01  0.47000000000E+01 0. -1.
         -5    1    1    2    0  503 -0.10220737122E+01 -0.39481279703E+00 -0.29212861855E+02  0.29608813039E+02  0.47000000000E+01 0. -1.
<mgrwt>
<rscale>  2 0.48260244E+01</rscale>
<asrwt>0</asrwt>
<pdfrwt beam="1">  1       21 0.24654720E-03 0.48260244E+01</pdfrwt>
<pdfrwt beam="2">  1       21 0.51625061E-02 0.48260244E+01</pdfrwt>
<totfact> 0.16889785E+09</totfact>
</mgrwt>
</event>
<event>
 4    1  0.4084348E+006  0.8255169E+01  0.7546771E-02  0.2190425E+00
         21   -1    0    0  503  502  0.00000000000E+00  0.00000000000E+00  0.43302075523E+02  0.43302075523E+02  0.00000000000E+00 0.  1.
         21   -1    0    0  501  503 -0.00000000000E+00 -0.00000000000E+00 -0.19717880002E+01  0.19717880002E+01  0.00000000000E+00 0. -1.
          5    1    1    2  501    0 -0.66931499179E+01  0.11222981119E+01  0.10494814571E+02  0.13352488223E+02  0.47000000000E+01 0. -1.
         -5    1    1    2    0  502  0.66931499179E+01 -0.11222981119E+01  0.30835472952E+02  0.31921375300E+02  0.47000000000E+01 0.  1.
<mgrwt>
<rscale>  2 0.82551686E+01</rscale>
<asrwt>0</asrwt>
<pdfrwt beam="1">  1       21 0.66618570E-02 0.82551686E+01</pdfrwt>
<pdfrwt beam="2">  1       21 0.30335203E-03 0.82551686E+01</pdfrwt>
<totfact> 0.13405323E+09</totfact>
</mgrwt>
</event>
<event>
 4    1  0.4084348E+006  0.7891788E+01  0.7546771E-02  0.2219493E+00
         21   -1    0    0  503  502  0.00000000000E+00  0.00000000000E+00  0.40177432135E+02  0.40177432135E+02  0.00000000000E+00 0. -1.
         21   -1    0    0  501  503 -0.00000000000E+00 -0.00000000000E+00 -0.39276632755E+01  0.39276632755E+01  0.00000000000E+00 0.  1.
          5    1    1    2  501    0 -0.48720034583E+01  0.40563397625E+01  0.96735329272E+00  0.79508541905E+01  0.47000000000E+01 0.  1.
         -5    1    1    2    0  502  0.48720034583E+01 -0.40563397625E+01  0.35282415567E+02  0.36154241220E+02  0.47000000000E+01 0. -1.
<mgrwt>
<rscale>  2 0.78917875E+01</rscale>
<asrwt>0</asrwt>
<pdfrwt beam="1">  1       21 0.61811431E-02 0.78917875E+01</pdfrwt>
<pdfrwt beam="2">  1       21 0.60425592E-03 0.78917875E+01</pdfrwt>
<totfact> 0.55388245E+08</totfact>
</mgrwt>
</event>
<event>
 4    1  0.4084348E+006  0.5509885E+01  0.7546771E-02  0.2483941E+00
         21   -1    0    0  501  502  0.00000000000E+00  0.00000000000E+00  0.62546545845E+01  0.62546545845E+01  0.00000000000E+00 0. -1.
         21   -1    0    0  502  503 -0.00000000000E+00 -0.00000000000E+00 -0.73594860710E+01  0.73594860710E+01  0.00000000000E+00 0. -1.
          5    1    1    2  501    0 -0.25654018668E+01  0.12990555673E+01  0.34194994411E+01  0.64847365816E+01  0.47000000000E+01 0. -1.
         -5    1    1    2    0  503  0.25654018668E+01 -0.12990555673E+01 -0.45243309276E+01  0.71294040738E+01  0.47000000000E+01 0. -1.
<mgrwt>
<rscale>  2 0.55098849E+01</rscale>
<asrwt>0</asrwt>
<pdfrwt beam="1">  1       21 0.96225456E-03 0.55098849E+01</pdfrwt>
<pdfrwt beam="2">  1       21 0.11322286E-02 0.55098849E+01</pdfrwt>
<totfact> 0.25888094E+09</totfact>
</mgrwt>
</event>
<event>
 4    1  0.4084348E+006  0.7275514E+01  0.7546771E-02  0.2274083E+00
         21   -1    0    0  501  502  0.00000000000E+00  0.00000000000E+00  0.92325738940E-01  0.92325738940E-01  0.00000000000E+00 0. -1.
         21   -1    0    0  502  503 -0.00000000000E+00 -0.00000000000E+00 -0.57961759543E+03  0.57961759543E+03  0.00000000000E+00 0. -1.
          5    1    1    2  501    0 -0.22212543240E+01  0.50901021940E+01 -0.25957326533E+03  0.25967520711E+03  0.47000000000E+01 0. -1.
         -5    1    1    2    0  503  0.22212543240E+01 -0.50901021940E+01 -0.31995200436E+03  0.32003471406E+03  0.47000000000E+01 0. -1.
<mgrwt>
<rscale>  2 0.72755145E+01</rscale>
<asrwt>0</asrwt>
<pdfrwt beam="1">  1       21 0.14203764E-04 0.72755145E+01</pdfrwt>
<pdfrwt beam="2">  1       21 0.89173167E-01 0.72755145E+01</pdfrwt>
<totfact> 0.94576189E+08</totfact>
</mgrwt>
</event>
<event>
 4    1  0.4084348E+006  0.7970326E+01  0.7546771E-02  0.2213030E+00
         21   -1    0    0  503  502  0.00000000000E+00  0.00000000000E+00  0.60743689568E+00  0.60743689568E+00  0.00000000000E+00 0.  1.
         21   -1    0    0  501  503 -0.00000000000E+00 -0.00000000000E+00 -0.15401979241E+03  0.15401979241E+03  0.00000000000E+00 0. -1.
          5    1    1    2  501    0  0.16440391062E+01  0.62236034335E+01 -0.12050913917E+03  0.12077242536E+03  0.47000000000E+01 0. -1.
         -5    1    1    2    0  502 -0.16440391062E+01 -0.62236034335E+01 -0.32903216346E+02  0.33854803946E+02  0.47000000000E+01 0.  1.
<mgrwt>
<rscale>  2 0.79703265E+01</rscale>
<asrwt>0</asrwt>
<pdfrwt beam="1">  1       21 0.93451771E-04 0.79703265E+01</pdfrwt>
<pdfrwt beam="2">  1       21 0.23695368E-01 0.79703265E+01</pdfrwt>
<totfact> 0.87808309E+08</totfact>
</mgrwt>
</event>
<event>
 4    1  0.4084348E+006  0.5388599E+01  0.7546771E-02  0.2502513E+00
         21   -1    0    0  501  502  0.00000000000E+00  0.00000000000E+00  0.76084249320E+02  0.76084249320E+02  0.00000000000E+00 0. -1.
         21   -1    0    0  502  503 -0.00000000000E+00 -0.00000000000E+00 -0.49209659532E+00  0.49209659532E+00  0.00000000000E+00 0. -1.
          5    1    1    2  501    0 -0.89873389233E+00 -0.24777570711E+01  0.19656386057E+02  0.20381622005E+02  0.47000000000E+01 0. -1.
         -5    1    1    2    0  503  0.89873389233E+00  0.24777570711E+01  0.55935766667E+02  0.56194723911E+02  0.47000000000E+01 0. -1.
<mgrwt>
<rscale>  2 0.53885993E+01</rscale>
<asrwt>0</asrwt>
<pdfrwt beam="1">  1       21 0.11705260E-01 0.53885993E+01</pdfrwt>
<pdfrwt beam="2">  1       21 0.75707229E-04 0.53885993E+01</pdfrwt>
<totfact> 0.26808166E+09</totfact>
</mgrwt>
</event>
<event>
 4    1  0.4084348E+006  0.5464675E+01  0.7546771E-02  0.2490782E+00
         21   -1    0    0  503  502  0.00000000000E+00  0.00000000000E+00  0.24775786395E+04  0.24775786395E+04  0.00000000000E+00 0. -1.
         21   -1    0    0  501  503 -0.00000000000E+00 -0.00000000000E+00 -0.12435162051E+00  0.12435162051E+00  0.00000000000E+00 0. -1.
          5    1    1    2  501    0 -0.26920363977E+01 -0.72499267367E+00  0.61445402637E+02  0.61687925719E+02  0.47000000000E+01 0. -1.
         -5    1    1    2    0  502  0.26920363977E+01  0.72499267367E+00  0.24160088853E+04  0.24160150654E+04  0.47000000000E+01 0. -1.
<mgrwt>
<rscale>  2 0.54646751E+01</rscale>
<asrwt>0</asrwt>
<pdfrwt beam="1">  1       21 0.38112641E+00 0.54646751E+01</pdfrwt>
<pdfrwt beam="2">  1       21 0.19133003E-04 0.54646751E+01</pdfrwt>
<totfact> 0.18107397E+07</totfact>
</mgrwt>
</event>
<event>
 4    1  0.4084348E+006  0.1766139E+02  0.7546771E-02  0.1796278E+00
         21   -1    0    0  503  502  0.00000000000E+00  0.00000000000E+00  0.35252505605E+01  0.35252505605E+01  0.00000000000E+00 0. -1.
         21   -1    0    0  501  503 -0.00000000000E+00 -0.00000000000E+00 -0.32140416450E+03  0.32140416450E+03  0.00000000000E+00 0.  1.
          5    1    1    2  501    0  0.51478348498E+01 -0.16227584873E+02 -0.29724442090E+03  0.29776865260E+03  0.47000000000E+01 0.  1.
         -5    1    1    2    0  502 -0.51478348498E+01  0.16227584873E+02 -0.20634493037E+02  0.27160762459E+02  0.47000000000E+01 0. -1.
<mgrwt>
<rscale>  2 0.17661391E+02</rscale>
<asrwt>0</asrwt>
<pdfrwt beam="1">  1       21 0.54234617E-03 0.17661391E+02</pdfrwt>
<pdfrwt beam="2">  1       21 0.49446801E-01 0.17661391E+02</pdfrwt>
<totfact> 0.27409759E+07</totfact>
</mgrwt>
</event>
<event>
 4    1  0.4084348E+006  0.4796624E+01  0.7546771E-02  0.2604548E+00
         21   -1    0    0  503  502  0.00000000000E+00  0.00000000000E+00  0.14605161663E+02  0.14605161663E+02  0.00000000000E+00 0.  1.
         21   -1    0    0  501  503 -0.00000000000E+00 -0.00000000000E+00 -0.43217152337E+01  0.43217152337E+01  0.00000000000E+00 0.  1.
          5    1    1    2  501    0  0.47146274155E+00 -0.83386065020E+00 -0.24023084613E+01  0.53645770238E+01  0.47000000000E+01 0.  1.
         -5    1    1    2    0  502 -0.47146274155E+00  0.83386065020E+00  0.12685754891E+02  0.13562299873E+02  0.47000000000E+01 0.  1.
<mgrwt>
<rscale>  2 0.47966239E+01</rscale>
<asrwt>0</asrwt>
<pdfrwt beam="1">  1       21 0.22469479E-02 0.47966239E+01</pdfrwt>
<pdfrwt beam="2">  1       21 0.66487927E-03 0.47966239E+01</pdfrwt>
<totfact> 0.14348384E+09</totfact>
</mgrwt>
</event>
<event>
 4    1  0.4084348E+006  0.6664315E+01  0.7546771E-02  0.2336228E+00
         21   -1    0    0  503  502  0.00000000000E+00  0.00000000000E+00  0.37491702580E+02  0.37491702580E+02  0.00000000000E+00 0.  1.
         21   -1    0    0  501  503 -0.00000000000E+00 -0.00000000000E+00 -0.13902830325E+01  0.13902830325E+01  0.00000000000E+00 0.  1.
          5    1    1    2  501    0  0.88989872181E+00  0.46401701802E+01  0.10573251389E+02  0.12498269639E+02  0.47000000000E+01 0.  1.
         -5    1    1    2    0  502 -0.88989872181E+00 -0.46401701802E+01  0.25528168158E+02  0.26383715973E+02  0.47000000000E+01 0.  1.
<mgrwt>
<rscale>  2 0.66643153E+01</rscale>
<asrwt>0</asrwt>
<pdfrwt beam="1">  1       21 0.57679535E-02 0.66643153E+01</pdfrwt>
<pdfrwt beam="2">  1       21 0.21388973E-03 0.66643153E+01</pdfrwt>
<totfact> 0.23174803E+09</totfact>
</mgrwt>
</event>
<event>
 4    1  0.4084348E+006  0.1700448E+02  0.7546771E-02  0.1812425E+00
         21   -1    0    0  503  502  0.00000000000E+00  0.00000000000E+00  0.10410911824E+03  0.10410911824E+03  0.00000000000E+00 0. -1.
         21   -1    0    0  501  503 -0.00000000000E+00 -0.00000000000E+00 -0.47248513337E+01  0.47248513337E+01  0.00000000000E+00 0. -1.
          5    1    1    2  501    0 -0.14891878587E+02  0.67301145549E+01  0.14756075889E+02  0.22514312457E+02  0.47000000000E+01 0. -1.
         -5    1    1    2    0  502  0.14891878587E+02 -0.67301145549E+01  0.84628191017E+02  0.86319657116E+02  0.47000000000E+01 0. -1.
<mgrwt>
<rscale>  2 0.17004484E+02</rscale>
<asrwt>0</asrwt>
<pdfrwt beam="1">  1       21 0.16016786E-01 0.17004484E+02</pdfrwt>
<pdfrwt beam="2">  1       21 0.72690028E-03 0.17004484E+02</pdfrwt>
<totfact> 0.13254730E+08</totfact>
</mgrwt>
</event>
<event>
 4    1  0.4084348E+006  0.5298831E+01  0.7546771E-02  0.2516724E+00
         21   -1    0    0  503  502  0.00000000000E+00  0.00000000000E+00  0.45153246955E+01  0.45153246955E+01  0.00000000000E+00 0.  1.
         21   -1    0    0  501  503 -0.00000000000E+00 -0.00000000000E+00 -0.89261587828E+02  0.89261587828E+02  0.00000000000E+00 0.  1.
          5    1    1    2  501    0 -0.20115819165E+01 -0.13932501349E+01 -0.87598896261E+02  0.87759012266E+02  0.47000000000E+01 0.  1.
         -5    1    1    2    0  502  0.20115819165E+01  0.13932501349E+01  0.28526331285E+01  0.60179002577E+01  0.47000000000E+01 0.  1.
<mgrwt>
<rscale>  2 0.52988308E+01</rscale>
<asrwt>0</asrwt>
<pdfrwt beam="1">  1       21 0.69466535E-03 0.52988308E+01</pdfrwt>
<pdfrwt beam="2">  1       21 0.13732552E-01 0.52988308E+01</pdfrwt>
<totfact> 0.10210402E+08</totfact>
</mgrwt>
</event>
<event>
 4    1  0.4084348E+006  0.9390801E+01  0.7546771E-02  0.2111411E+00
         21   -1    0    0  503  502  0.00000000000E+00  0.00000000000E+00  0.35271731985E+02  0.35271731985E+02  0.00000000000E+00 0. -1.
         21   -1    0    0  501  503 -0.00000000000E+00 -0.00000000000E+00 -0.66806474729E+01  0.66806474729E+01  0.00000000000E+00 0.  1.
          5    1    1    2  501    0 -0.34775961962E+01  0.73487057947E+01 -0.22975596170E+01  0.96677780465E+01  0.47000000000E+01 0.  1.
         -5    1    1    2    0  502  0.34775961962E+01 -0.73487057947E+01  0.30888644129E+02  0.32284601412E+02  0.47000000000E+01 0. -1.
<mgrwt>
<rscale>  2 0.93908015E+01</rscale>
<asrwt>0</asrwt>
<pdfrwt beam="1">  1       21 0.54264202E-02 0.93908015E+01</pdfrwt>
<pdfrwt beam="2">  1       21 0.10277919E-02 0.93908015E+01</pdfrwt>
<totfact> 0.35006388E+08</totfact>
</mgrwt>
</event>
<event>
 4    1  0.4084348E+006  0.6585597E+01  0.7546771E-02  0.2344916E+00
         21   -1    0    0  501  502  0.00000000000E+00  0.00000000000E+00  0.12538102419E+03  0.12538102419E+03  0.00000000000E+00 0. -1.
         21   -1    0    0  502  503 -0.00000000000E+00 -0.00000000000E+00 -0.16483935028E+01  0.16483935028E+01  0.00000000000E+00 0. -1.
          5    1    1    2  501    0 -0.12840049232E+01 -0.44307359811E+01  0.11832497869E+03  0.11850810382E+03  0.47000000000E+01 0. -1.
         -5    1    1    2    0  503  0.12840049232E+01  0.44307359811E+01  0.54076520050E+01  0.85213138767E+01  0.47000000000E+01 0. -1.
<mgrwt>
<rscale>  2 0.65855972E+01</rscale>
<asrwt>0</asrwt>
<pdfrwt beam="1">  1       21 0.19289381E-01 0.65855972E+01</pdfrwt>
<pdfrwt beam="2">  1       21 0.25359910E-03 0.65855972E+01</pdfrwt>
<totfact> 0.27831416E+08</totfact>
</mgrwt>
</event>
<event>
 4    1  0.4084348E+006  0.6001069E+01  0.7546771E-02  0.2415284E+00
         21   -1    0    0  503  502  0.00000000000E+00  0.00000000000E+00  0.11406659377E+02  0.11406659377E+02  0.00000000000E+00 0.  1.
         21   -1    0    0  501  503 -0.00000000000E+00 -0.00000000000E+00 -0.31846898668E+01  0.31846898668E+01  0.00000000000E+00 0.  1.
          5    1    1    2  501    0  0.34142357813E+01  0.15052663941E+01  0.34328647618E+01  0.69135658933E+01  0.47000000000E+01 0.  1.
         -5    1    1    2    0  502 -0.34142357813E+01 -0.15052663941E+01  0.47891047486E+01  0.76777833508E+01  0.47000000000E+01 0.  1.
<mgrwt>
<rscale>  2 0.60010693E+01</rscale>
<asrwt>0</asrwt>
<pdfrwt beam="1">  1       21 0.17548707E-02 0.60010693E+01</pdfrwt>
<pdfrwt beam="2">  1       21 0.48995229E-03 0.60010693E+01</pdfrwt>
<totfact> 0.38538410E+09</totfact>
</mgrwt>
</event>
<event>
 4    1  0.4084348E+006  0.6795313E+01  0.7546771E-02  0.2322137E+00
         21   -1    0    0  503  502  0.00000000000E+00  0.00000000000E+00  0.43897735107E+03  0.43897735107E+03  0.00000000000E+00 0.  1.
         21   -1    0    0  501  503 -0.00000000000E+00 -0.00000000000E+00 -0.11116200794E+00  0.11116200794E+00  0.00000000000E+00 0.  1.
          5    1    1    2  501    0  0.42997061232E+01 -0.23661791721E+01  0.27031735255E+03  0.27040275029E+03  0.47000000000E+01 0.  1.
         -5    1    1    2    0  502 -0.42997061232E+01  0.23661791721E+01  0.16854883652E+03  0.16868576279E+03  0.47000000000E+01 0.  1.
<mgrwt>
<rscale>  2 0.67953128E+01</rscale>
<asrwt>0</asrwt>
<pdfrwt beam="1">  1       21 0.67533589E-01 0.67953128E+01</pdfrwt>
<pdfrwt beam="2">  1       21 0.17102199E-04 0.67953128E+01</pdfrwt>
<totfact> 0.12162988E+09</totfact>
</mgrwt>
</event>
<event>
 4    1  0.4084348E+006  0.5003309E+01  0.7546771E-02  0.2566567E+00
         21   -1    0    0  503  502  0.00000000000E+00  0.00000000000E+00  0.23084088443E+02  0.23084088443E+02  0.00000000000E+00 0.  1.
         21   -1    0    0  501  503 -0.00000000000E+00 -0.00000000000E+00 -0.11076038432E+01  0.11076038432E+01  0.00000000000E+00 0.  1.
          5    1    1    2  501    0  0.55314947672E+00 -0.16239223858E+01  0.92386580996E+01  0.10506469518E+02  0.47000000000E+01 0.  1.
         -5    1    1    2    0  502 -0.55314947672E+00  0.16239223858E+01  0.12737826501E+02  0.13685222768E+02  0.47000000000E+01 0.  1.
<mgrwt>
<rscale>  2 0.50033087E+01</rscale>
<asrwt>0</asrwt>
<pdfrwt beam="1">  1       21 0.35513979E-02 0.50033087E+01</pdfrwt>
<pdfrwt beam="2">  1       21 0.17040061E-03 0.50033087E+01</pdfrwt>
<totfact> 0.49558460E+09</totfact>
</mgrwt>
</event>
<event>
 4    1  0.4084348E+006  0.5495475E+01  0.7546771E-02  0.2486112E+00
         21   -1    0    0  501  502  0.00000000000E+00  0.00000000000E+00  0.14506745866E+00  0.14506745866E+00  0.00000000000E+00 0.  1.
         21   -1    0    0  502  503 -0.00000000000E+00 -0.00000000000E+00 -0.53256733468E+03  0.53256733468E+03  0.00000000000E+00 0.  1.
          5    1    1    2  501    0 -0.27067614106E+01  0.88525925073E+00 -0.58333845194E+02  0.58592130328E+02  0.47000000000E+01 0.  1.
         -5    1    1    2    0  503  0.27067614106E+01 -0.88525925073E+00 -0.47408842203E+03  0.47412027181E+03  0.47000000000E+01 0.  1.
<mgrwt>
<rscale>  2 0.54954746E+01</rscale>
<asrwt>0</asrwt>
<pdfrwt beam="1">  1       21 0.22317505E-04 0.54954746E+01</pdfrwt>
<pdfrwt beam="2">  1       21 0.81935514E-01 0.54954746E+01</pdfrwt>
<totfact> 0.50814777E+08</totfact>
</mgrwt>
</event>
<event>
 4    1  0.4084348E+006  0.7914921E+01  0.7546771E-02  0.2217578E+00
         21   -1    0    0  501  502  0.00000000000E+00  0.00000000000E+00  0.12261845242E+03  0.12261845242E+03  0.00000000000E+00 0.  1.
         21   -1    0    0  502  503 -0.00000000000E+00 -0.00000000000E+00 -0.10993429797E+01  0.10993429797E+01  0.00000000000E+00 0.  1.
          5    1    1    2  501    0 -0.17093970419E+01  0.61346499557E+01  0.10601670052E+03  0.10631174327E+03  0.47000000000E+01 0.  1.
         -5    1    1    2    0  503  0.17093970419E+01 -0.61346499557E+01  0.15502408914E+02  0.17406052121E+02  0.47000000000E+01 0.  1.
<mgrwt>
<rscale>  2 0.79149206E+01</rscale>
<asrwt>0</asrwt>
<pdfrwt beam="1">  1       21 0.18864366E-01 0.79149206E+01</pdfrwt>
<pdfrwt beam="2">  1       21 0.16912979E-03 0.79149206E+01</pdfrwt>
<totfact> 0.56612047E+08</totfact>
</mgrwt>
</event>
<event>
 4    1  0.4084348E+006  0.4884545E+01  0.7546771E-02  0.2588052E+00
         21   -1    0    0  503  502  0.00000000000E+00  0.00000000000E+00  0.91808919742E+01  0.91808919742E+01  0.00000000000E+00 0.  1.
         21   -1    0    0  501  503 -0.00000000000E+00 -0.00000000000E+00 -0.42323038246E+01  0.42323038246E+01  0.00000000000E+00 0.  1.
          5    1    1    2  501    0  0.13163999046E+01 -0.18939889614E+00 -0.16923027402E+01  0.51693973745E+01  0.47000000000E+01 0.  1.
         -5    1    1    2    0  502 -0.13163999046E+01  0.18939889614E+00  0.66408908898E+01  0.82437984243E+01  0.47000000000E+01 0.  1.
<mgrwt>
<rscale>  2 0.48845451E+01</rscale>
<asrwt>0</asrwt>
<pdfrwt beam="1">  1       21 0.14124449E-02 0.48845451E+01</pdfrwt>
<pdfrwt beam="2">  1       21 0.65112367E-03 0.48845451E+01</pdfrwt>
<totfact> 0.28959085E+09</totfact>
</mgrwt>
</event>
<event>
 4    1  0.4084348E+006  0.8901571E+01  0.7546771E-02  0.2143480E+00
         21   -1    0    0  501  502  0.00000000000E+00  0.00000000000E+00  0.31845182265E+02  0.31845182265E+02  0.00000000000E+00 0. -1.
         21   -1    0    0  502  503 -0.00000000000E+00 -0.00000000000E+00 -0.11853697196E+02  0.11853697196E+02  0.00000000000E+00 0.  1.
          5    1    1    2  501    0  0.19943437488E+00  0.75569959255E+01  0.29417040109E+02  0.30734349030E+02  0.47000000000E+01 0. -1.
         -5    1    1    2    0  503 -0.19943437488E+00 -0.75569959255E+01 -0.94255550408E+01  0.12964530432E+02  0.47000000000E+01 0.  1.
<mgrwt>
<rscale>  2 0.89015707E+01</rscale>
<asrwt>0</asrwt>
<pdfrwt beam="1">  1       21 0.48992588E-02 0.89015707E+01</pdfrwt>
<pdfrwt beam="2">  1       21 0.18236457E-02 0.89015707E+01</pdfrwt>
<totfact> 0.17230205E+08</totfact>
</mgrwt>
</event>
<event>
 4    1  0.4084348E+006  0.4976796E+01  0.7546771E-02  0.2571287E+00
         21   -1    0    0  501  502  0.00000000000E+00  0.00000000000E+00  0.75565857527E+00  0.75565857527E+00  0.00000000000E+00 0.  1.
         21   -1    0    0  502  503 -0.00000000000E+00 -0.00000000000E+00 -0.43465488797E+02  0.43465488797E+02  0.00000000000E+00 0.  1.
          5    1    1    2  501    0 -0.21726405638E+00 -0.16221270212E+01 -0.10390678747E+02  0.11521054837E+02  0.47000000000E+01 0.  1.
         -5    1    1    2    0  503  0.21726405638E+00  0.16221270212E+01 -0.32319151475E+02  0.32700092535E+02  0.47000000000E+01 0.  1.
<mgrwt>
<rscale>  2 0.49767961E+01</rscale>
<asrwt>0</asrwt>
<pdfrwt beam="1">  1       21 0.11625518E-03 0.49767961E+01</pdfrwt>
<pdfrwt beam="2">  1       21 0.66869972E-02 0.49767961E+01</pdfrwt>
<totfact> 0.32593993E+09</totfact>
</mgrwt>
</event>
<event>
 4    1  0.4084348E+006  0.6959668E+01  0.7546771E-02  0.2305079E+00
         21   -1    0    0  503  502  0.00000000000E+00  0.00000000000E+00  0.12888297117E+03  0.12888297117E+03  0.00000000000E+00 0.  1.
         21   -1    0    0  501  503 -0.00000000000E+00 -0.00000000000E+00 -0.69251852231E+00  0.69251852231E+00  0.00000000000E+00 0. -1.
          5    1    1    2  501    0  0.37128586122E+01  0.35442440850E+01  0.20282609831E+02  0.21443442978E+02  0.47000000000E+01 0. -1.
         -5    1    1    2    0  502 -0.37128586122E+01 -0.35442440850E+01  0.10790784282E+03  0.10813204672E+03  0.47000000000E+01 0.  1.
<mgrwt>
<rscale>  2 0.69596685E+01</rscale>
<asrwt>0</asrwt>
<pdfrwt beam="1">  1       21 0.19828130E-01 0.69596685E+01</pdfrwt>
<pdfrwt beam="2">  1       21 0.10654141E-03 0.69596685E+01</pdfrwt>
<totfact> 0.90202766E+08</totfact>
</mgrwt>
</event>
<event>
 4    1  0.4084348E+006  0.7877236E+01  0.7546771E-02  0.2220702E+00
         21   -1    0    0  501  502  0.00000000000E+00  0.00000000000E+00  0.12316015588E+01  0.12316015588E+01  0.00000000000E+00 0. -1.
         21   -1    0    0  502  503 -0.00000000000E+00 -0.00000000000E+00 -0.53267534785E+02  0.53267534785E+02  0.00000000000E+00 0.  1.
          5    1    1    2  501    0  0.58385513837E+01  0.24232536107E+01 -0.19676003291E+02  0.21194243224E+02  0.47000000000E+01 0. -1.
         -5    1    1    2    0  503 -0.58385513837E+01 -0.24232536107E+01 -0.32359929935E+02  0.33304893120E+02  0.47000000000E+01 0.  1.
<mgrwt>
<rscale>  2 0.78772356E+01</rscale>
<asrwt>0</asrwt>
<pdfrwt beam="1">  1       21 0.18947721E-03 0.78772356E+01</pdfrwt>
<pdfrwt beam="2">  1       21 0.81950034E-02 0.78772356E+01</pdfrwt>
<totfact> 0.18152607E+09</totfact>
</mgrwt>
</event>
<event>
 4    1  0.4084348E+006  0.4911940E+01  0.7546771E-02  0.2583017E+00
         21   -1    0    0  503  502  0.00000000000E+00  0.00000000000E+00  0.11228526683E+02  0.11228526683E+02  0.00000000000E+00 0. -1.
         21   -1    0    0  501  503 -0.00000000000E+00 -0.00000000000E+00 -0.22375496364E+01  0.22375496364E+01  0.00000000000E+00 0. -1.
          5    1    1    2  501    0  0.12871722929E+01 -0.61672032555E+00  0.31540805927E+01  0.58374121712E+01  0.47000000000E+01 0.  1.
         -5    1    1    2    0  502 -0.12871722929E+01  0.61672032555E+00  0.58368964539E+01  0.76286641481E+01  0.47000000000E+01 0.  1.
<mgrwt>
<rscale>  2 0.49119402E+01</rscale>
<asrwt>0</asrwt>
<pdfrwt beam="1">  1       21 0.17274656E-02 0.49119402E+01</pdfrwt>
<pdfrwt beam="2">  1       21 0.34423841E-03 0.49119402E+01</pdfrwt>
<totfact> 0.52543601E+09</totfact>
</mgrwt>
</event>
<event>
 4    1  0.4084348E+006  0.4741696E+01  0.7546771E-02  0.2615123E+00
         21   -1    0    0  501  502  0.00000000000E+00  0.00000000000E+00  0.39407893246E+01  0.39407893246E+01  0.00000000000E+00 0.  1.
         21   -1    0    0  502  503 -0.00000000000E+00 -0.00000000000E+00 -0.64862866173E+01  0.64862866173E+01  0.00000000000E+00 0.  1.
          5    1    1    2  501    0 -0.58149349177E+00 -0.23569187081E+00  0.53623691841E+00  0.47719215597E+01  0.47000000000E+01 0. -1.
         -5    1    1    2    0  503  0.58149349177E+00  0.23569187081E+00 -0.30817342111E+01  0.56551543822E+01  0.47000000000E+01 0. -1.
<mgrwt>
<rscale>  2 0.47416965E+01</rscale>
<asrwt>0</asrwt>
<pdfrwt beam="1">  1       21 0.60627529E-03 0.47416965E+01</pdfrwt>
<pdfrwt beam="2">  1       21 0.99789023E-03 0.47416965E+01</pdfrwt>
<totfact> 0.50271636E+09</totfact>
</mgrwt>
</event>
<event>
 4    1  0.4084348E+006  0.5744146E+01  0.7546771E-02  0.2449962E+00
         21   -1    0    0  501  502  0.00000000000E+00  0.00000000000E+00  0.25852789608E+00  0.25852789608E+00  0.00000000000E+00 0. -1.
         21   -1    0    0  502  503 -0.00000000000E+00 -0.00000000000E+00 -0.12762738815E+03  0.12762738815E+03  0.00000000000E+00 0. -1.
          5    1    1    2  501    0  0.28703054795E+01  0.16329618017E+01 -0.63737056919E+02  0.63995372040E+02  0.47000000000E+01 0.  1.
         -5    1    1    2    0  503 -0.28703054795E+01 -0.16329618017E+01 -0.63631803339E+02  0.63890544011E+02  0.47000000000E+01 0.  1.
<mgrwt>
<rscale>  2 0.57441464E+01</rscale>
<asrwt>0</asrwt>
<pdfrwt beam="1">  1       21 0.39773517E-04 0.57441464E+01</pdfrwt>
<pdfrwt beam="2">  1       21 0.19634985E-01 0.57441464E+01</pdfrwt>
<totfact> 0.29681083E+09</totfact>
</mgrwt>
</event>
<event>
 4    1  0.4084348E+006  0.5282573E+01  0.7546771E-02  0.2519341E+00
         21   -1    0    0  501  502  0.00000000000E+00  0.00000000000E+00  0.22257386313E+01  0.22257386313E+01  0.00000000000E+00 0.  1.
         21   -1    0    0  502  503 -0.00000000000E+00 -0.00000000000E+00 -0.13196705437E+02  0.13196705437E+02  0.00000000000E+00 0.  1.
          5    1    1    2  501    0  0.24069600120E+01 -0.14874761555E+00 -0.72087162289E+01  0.89370673054E+01  0.47000000000E+01 0.  1.
         -5    1    1    2    0  503 -0.24069600120E+01  0.14874761555E+00 -0.37622505765E+01  0.64853767626E+01  0.47000000000E+01 0.  1.
<mgrwt>
<rscale>  2 0.52825735E+01</rscale>
<asrwt>0</asrwt>
<pdfrwt beam="1">  1       21 0.34242134E-03 0.52825735E+01</pdfrwt>
<pdfrwt beam="2">  1       21 0.20302623E-02 0.52825735E+01</pdfrwt>
<totfact> 0.45430163E+09</totfact>
</mgrwt>
</event>
<event>
 4    1  0.4084348E+006  0.5026082E+01  0.7546771E-02  0.2562548E+00
         21   -1    0    0  501  502  0.00000000000E+00  0.00000000000E+00  0.18258508211E+02  0.18258508211E+02  0.00000000000E+00 0.  1.
         21   -1    0    0  502  503 -0.00000000000E+00 -0.00000000000E+00 -0.16281405787E+02  0.16281405787E+02  0.00000000000E+00 0.  1.
          5    1    1    2  501    0  0.62931333668E+00 -0.16659718593E+01  0.17508444516E+02  0.18215573746E+02  0.47000000000E+01 0.  1.
         -5    1    1    2    0  503 -0.62931333668E+00  0.16659718593E+01 -0.15531342092E+02  0.16324340253E+02  0.47000000000E+01 0.  1.
<mgrwt>
<rscale>  2 0.50260817E+01</rscale>
<asrwt>0</asrwt>
<pdfrwt beam="1">  1       21 0.28090013E-02 0.50260817E+01</pdfrwt>
<pdfrwt beam="2">  1       21 0.25048317E-02 0.50260817E+01</pdfrwt>
<totfact> 0.16974037E+08</totfact>
</mgrwt>
</event>
<event>
 4    1  0.4084348E+006  0.6686025E+01  0.7546771E-02  0.2333861E+00
         21   -1    0    0  501  502  0.00000000000E+00  0.00000000000E+00  0.54534342163E+02  0.54534342163E+02  0.00000000000E+00 0. -1.
         21   -1    0    0  502  503 -0.00000000000E+00 -0.00000000000E+00 -0.26687649711E+01  0.26687649711E+01  0.00000000000E+00 0.  1.
          5    1    1    2  501    0  0.40377092210E+01 -0.25119393158E+01  0.49739976603E+02  0.50187331144E+02  0.47000000000E+01 0. -1.
         -5    1    1    2    0  503 -0.40377092210E+01  0.25119393158E+01  0.21256005887E+01  0.70157759901E+01  0.47000000000E+01 0.  1.
<mgrwt>
<rscale>  2 0.66860253E+01</rscale>
<asrwt>0</asrwt>
<pdfrwt beam="1">  1       21 0.83898980E-02 0.66860253E+01</pdfrwt>
<pdfrwt beam="2">  1       21 0.41057927E-03 0.66860253E+01</pdfrwt>
<totfact> 0.53456769E+08</totfact>
</mgrwt>
</event>
<event>
 4    1  0.4084348E+006  0.5736394E+01  0.7546771E-02  0.2451049E+00
         21   -1    0    0  503  502  0.00000000000E+00  0.00000000000E+00  0.48180701627E+01  0.48180701627E+01  0.00000000000E+00 0. -1.
         21   -1    0    0  501  503 -0.00000000000E+00 -0.00000000000E+00 -0.12386731832E+02  0.12386731832E+02  0.00000000000E+00 0.  1.
          5    1    1    2  501    0 -0.31266698168E+01  0.10198769526E+01 -0.95461658228E+01  0.11137122387E+02  0.47000000000E+01 0.  1.
         -5    1    1    2    0  502  0.31266698168E+01 -0.10198769526E+01  0.19775041538E+01  0.60676796076E+01  0.47000000000E+01 0. -1.
<mgrwt>
<rscale>  2 0.57363937E+01</rscale>
<asrwt>0</asrwt>
<pdfrwt beam="1">  1       21 0.74124157E-03 0.57363937E+01</pdfrwt>
<pdfrwt beam="2">  1       21 0.19056510E-02 0.57363937E+01</pdfrwt>
<totfact> 0.18482201E+09</totfact>
</mgrwt>
</event>
<event>
 4    1  0.4084348E+006  0.8429064E+01  0.7546771E-02  0.2177231E+00
         21   -1    0    0  501  502  0.00000000000E+00  0.00000000000E+00  0.70964624520E+01  0.70964624520E+01  0.00000000000E+00 0.  1.
         21   -1    0    0  502  503 -0.00000000000E+00 -0.00000000000E+00 -0.10628282613E+02  0.10628282613E+02  0.00000000000E+00 0. -1.
          5    1    1    2  501    0 -0.28885709578E+01  0.63730112726E+01  0.36832148060E+00  0.84371070618E+01  0.47000000000E+01 0.  1.
         -5    1    1    2    0  503  0.28885709578E+01 -0.63730112726E+01 -0.39001416421E+01  0.92876380037E+01  0.47000000000E+01 0. -1.
<mgrwt>
<rscale>  2 0.84290637E+01</rscale>
<asrwt>0</asrwt>
<pdfrwt beam="1">  1       21 0.10917635E-02 0.84290637E+01</pdfrwt>
<pdfrwt beam="2">  1       21 0.16351204E-02 0.84290637E+01</pdfrwt>
<totfact> 0.17950086E+09</totfact>
</mgrwt>
</event>
<event>
 4    1  0.4084348E+006  0.6386650E+01  0.7546771E-02  0.2367662E+00
         21   -1    0    0  503  502  0.00000000000E+00  0.00000000000E+00  0.29514927403E+02  0.29514927403E+02  0.00000000000E+00 0. -1.
         21   -1    0    0  501  503 -0.00000000000E+00 -0.00000000000E+00 -0.15467936028E+01  0.15467936028E+01  0.00000000000E+00 0.  1.
          5    1    1    2  501    0 -0.34788753836E+01 -0.25684079614E+01  0.89145739642E+01  0.10966262917E+02  0.47000000000E+01 0.  1.
         -5    1    1    2    0  502  0.34788753836E+01  0.25684079614E+01  0.19053559836E+02  0.20095458089E+02  0.47000000000E+01 0. -1.
<mgrwt>
<rscale>  2 0.63866496E+01</rscale>
<asrwt>0</asrwt>
<pdfrwt beam="1">  1       21 0.45407576E-02 0.63866496E+01</pdfrwt>
<pdfrwt beam="2">  1       21 0.23796827E-03 0.63866496E+01</pdfrwt>
<totfact> 0.27636457E+09</totfact>
</mgrwt>
</event>
<event>
 4    1  0.4084348E+006  0.5082603E+01  0.7546771E-02  0.2552706E+00
         21   -1    0    0  503  502  0.00000000000E+00  0.00000000000E+00  0.62450619635E+03  0.62450619635E+03  0.00000000000E+00 0.  1.
         21   -1    0    0  501  503 -0.00000000000E+00 -0.00000000000E+00 -0.58402196388E-01  0.58402196388E-01  0.00000000000E+00 0.  1.
          5    1    1    2  501    0 -0.19267371237E+01  0.17474634215E+00  0.48089035004E+03  0.48091720869E+03  0.47000000000E+01 0.  1.
         -5    1    1    2    0  502  0.19267371237E+01 -0.17474634215E+00  0.14355744411E+03  0.14364738986E+03  0.47000000000E+01 0.  1.
<mgrwt>
<rscale>  2 0.50826029E+01</rscale>
<asrwt>0</asrwt>
<pdfrwt beam="1">  1       21 0.96072529E-01 0.50826029E+01</pdfrwt>
<pdfrwt beam="2">  1       21 0.89854534E-05 0.50826029E+01</pdfrwt>
<totfact> 0.11721667E+09</totfact>
</mgrwt>
</event>
<event>
 4    1  0.4084348E+006  0.6402903E+01  0.7546771E-02  0.2365760E+00
         21   -1    0    0  503  502  0.00000000000E+00  0.00000000000E+00  0.57932817416E+02  0.57932817416E+02  0.00000000000E+00 0. -1.
         21   -1    0    0  501  503 -0.00000000000E+00 -0.00000000000E+00 -0.11283057947E+01  0.11283057947E+01  0.00000000000E+00 0. -1.
          5    1    1    2  501    0 -0.42717017903E+01 -0.81224095790E+00  0.10371550906E+02  0.12188775154E+02  0.47000000000E+01 0. -1.
         -5    1    1    2    0  502  0.42717017903E+01  0.81224095790E+00  0.46432960715E+02  0.46872348057E+02  0.47000000000E+01 0. -1.
<mgrwt>
<rscale>  2 0.64029034E+01</rscale>
<asrwt>0</asrwt>
<pdfrwt beam="1">  1       21 0.89127388E-02 0.64029034E+01</pdfrwt>
<pdfrwt beam="2">  1       21 0.17358555E-03 0.64029034E+01</pdfrwt>
<totfact> 0.15435267E+09</totfact>
</mgrwt>
</event>
<event>
 4    1  0.4084348E+006  0.4825474E+01  0.7546771E-02  0.2599078E+00
         21   -1    0    0  501  502  0.00000000000E+00  0.00000000000E+00  0.67378926208E+01  0.67378926208E+01  0.00000000000E+00 0. -1.
         21   -1    0    0  502  503 -0.00000000000E+00 -0.00000000000E+00 -0.38314603187E+01  0.38314603187E+01  0.00000000000E+00 0. -1.
          5    1    1    2  501    0  0.50526850951E+00  0.96948609857E+00  0.31078443390E+01  0.57396773426E+01  0.47000000000E+01 0. -1.
         -5    1    1    2    0  503 -0.50526850951E+00 -0.96948609857E+00 -0.20141203695E+00  0.48296755968E+01  0.47000000000E+01 0. -1.
<mgrwt>
<rscale>  2 0.48254740E+01</rscale>
<asrwt>0</asrwt>
<pdfrwt beam="1">  1       21 0.10365989E-02 0.48254740E+01</pdfrwt>
<pdfrwt beam="2">  1       21 0.58945544E-03 0.48254740E+01</pdfrwt>
<totfact> 0.50520277E+09</totfact>
</mgrwt>
</event>
<event>
 4    1  0.4084348E+006  0.5784325E+01  0.7546771E-02  0.2444369E+00
         21   -1    0    0  503  502  0.00000000000E+00  0.00000000000E+00  0.28337487804E+00  0.28337487804E+00  0.00000000000E+00 0.  1.
         21   -1    0    0  501  503 -0.00000000000E+00 -0.00000000000E+00 -0.57036852519E+03  0.57036852519E+03  0.00000000000E+00 0.  1.
          5    1    1    2  501    0  0.25617558394E+01  0.21922189990E+01 -0.53912550989E+03  0.53915653926E+03  0.47000000000E+01 0.  1.
         -5    1    1    2    0  502 -0.25617558394E+01 -0.21922189990E+01 -0.30959640431E+02  0.31495360813E+02  0.47000000000E+01 0.  1.
<mgrwt>
<rscale>  2 0.57843251E+01</rscale>
<asrwt>0</asrwt>
<pdfrwt beam="1">  1       21 0.43596225E-04 0.57843251E+01</pdfrwt>
<pdfrwt beam="2">  1       21 0.87748822E-01 0.57843251E+01</pdfrwt>
<totfact> 0.18871976E+08</totfact>
</mgrwt>
</event>
<event>
 4    1  0.4084348E+006  0.1211726E+02  0.7546771E-02  0.1971353E+00
         21   -1    0    0  501  502  0.00000000000E+00  0.00000000000E+00  0.39664753827E+02  0.39664753827E+02  0.00000000000E+00 0.  1.
         21   -1    0    0  502  503 -0.00000000000E+00 -0.00000000000E+00 -0.96517801588E+01  0.96517801588E+01  0.00000000000E+00 0. -1.
          5    1    1    2  501    0 -0.83681544392E+01 -0.73967572114E+01  0.34367109557E+02  0.36440722349E+02  0.47000000000E+01 0.  1.
         -5    1    1    2    0  503  0.83681544392E+01  0.73967572114E+01 -0.43541358894E+01  0.12875811637E+02  0.47000000000E+01 0. -1.
<mgrwt>
<rscale>  2 0.12117261E+02</rscale>
<asrwt>0</asrwt>
<pdfrwt beam="1">  1       21 0.61022697E-02 0.12117261E+02</pdfrwt>
<pdfrwt beam="2">  1       21 0.14848893E-02 0.12117261E+02</pdfrwt>
<totfact> 0.19319162E+08</totfact>
</mgrwt>
</event>
<event>
 4    1  0.4084348E+006  0.9435823E+01  0.7546771E-02  0.2108593E+00
         21   -1    0    0  501  502  0.00000000000E+00  0.00000000000E+00  0.14422798928E+03  0.14422798928E+03  0.00000000000E+00 0.  1.
         21   -1    0    0  502  503 -0.00000000000E+00 -0.00000000000E+00 -0.10340656256E+01  0.10340656256E+01  0.00000000000E+00 0. -1.
          5    1    1    2  501    0  0.59366561123E+01  0.56303519538E+01  0.11770577325E+03  0.11808337650E+03  0.47000000000E+01 0.  1.
         -5    1    1    2    0  503 -0.59366561123E+01 -0.56303519538E+01  0.25488150405E+02  0.27178678407E+02  0.47000000000E+01 0. -1.
<mgrwt>
<rscale>  2 0.94358226E+01</rscale>
<asrwt>0</asrwt>
<pdfrwt beam="1">  1       21 0.22188905E-01 0.94358226E+01</pdfrwt>
<pdfrwt beam="2">  1       21 0.15908713E-03 0.94358226E+01</pdfrwt>
<totfact> 0.52047671E+08</totfact>
</mgrwt>
</event>
<event>
 4    1  0.4084348E+006  0.6764707E+01  0.7546771E-02  0.2325389E+00
         21   -1    0    0  501  502  0.00000000000E+00  0.00000000000E+00  0.49544219714E+02  0.49544219714E+02  0.00000000000E+00 0.  1.
         21   -1    0    0  502  503 -0.00000000000E+00 -0.00000000000E+00 -0.18484032450E+01  0.18484032450E+01  0.00000000000E+00 0. -1.
          5    1    1    2  501    0  0.37963623423E+01 -0.30428439451E+01  0.42023416073E+02  0.42564407252E+02  0.47000000000E+01 0.  1.
         -5    1    1    2    0  503 -0.37963623423E+01  0.30428439451E+01  0.56724003962E+01  0.88282157066E+01  0.47000000000E+01 0. -1.
<mgrwt>
<rscale>  2 0.67647074E+01</rscale>
<asrwt>0</asrwt>
<pdfrwt beam="1">  1       21 0.76221866E-02 0.67647074E+01</pdfrwt>
<pdfrwt beam="2">  1       21 0.28436977E-03 0.67647074E+01</pdfrwt>
<totfact> 0.10386169E+09</totfact>
</mgrwt>
</event>
<event>
 4    1  0.4084348E+006  0.5852490E+01  0.7546771E-02  0.2435027E+00
         21   -1    0    0  501  502  0.00000000000E+00  0.00000000000E+00  0.11314327394E+00  0.11314327394E+00  0.00000000000E+00 0.  1.
         21   -1    0    0  502  503 -0.00000000000E+00 -0.00000000000E+00 -0.32694348172E+03  0.32694348172E+03  0.00000000000E+00 0. -1.
          5    1    1    2  501    0  0.30406240421E+01  0.17077006445E+01 -0.11891073879E+03  0.11905467414E+03  0.47000000000E+01 0. -1.
         -5    1    1    2    0  503 -0.30406240421E+01 -0.17077006445E+01 -0.20791959966E+03  0.20800195086E+03  0.47000000000E+01 0.  1.
<mgrwt>
<rscale>  2 0.58524897E+01</rscale>
<asrwt>0</asrwt>
<pdfrwt beam="1">  1       21 0.17406781E-04 0.58524897E+01</pdfrwt>
<pdfrwt beam="2">  1       21 0.50298641E-01 0.58524897E+01</pdfrwt>
<totfact> 0.18432778E+09</totfact>
</mgrwt>
</event>
<event>
 4    1  0.4084348E+006  0.4744990E+01  0.7546771E-02  0.2614483E+00
         21   -1    0    0  503  502  0.00000000000E+00  0.00000000000E+00  0.55018802185E+00  0.55018802185E+00  0.00000000000E+00 0. -1.
         21   -1    0    0  501  503 -0.00000000000E+00 -0.00000000000E+00 -0.13349152273E+03  0.13349152273E+03  0.00000000000E+00 0. -1.
          5    1    1    2  501    0  0.34669312087E+00  0.55202737910E+00 -0.12228124978E+03  0.12237327723E+03  0.47000000000E+01 0. -1.
         -5    1    1    2    0  502 -0.34669312087E+00 -0.55202737910E+00 -0.10660084922E+02  0.11668433523E+02  0.47000000000E+01 0. -1.
<mgrwt>
<rscale>  2 0.47449900E+01</rscale>
<asrwt>0</asrwt>
<pdfrwt beam="1">  1       21 0.84644296E-04 0.47449900E+01</pdfrwt>
<pdfrwt beam="2">  1       21 0.20537161E-01 0.47449900E+01</pdfrwt>
<totfact> 0.85432530E+08</totfact>
</mgrwt>
</event>
<event>
 4    1  0.4084348E+006  0.5698132E+01  0.7546771E-02  0.2456450E+00
         21   -1    0    0  503  502  0.00000000000E+00  0.00000000000E+00  0.16027982949E+01  0.16027982949E+01  0.00000000000E+00 0.  1.
         21   -1    0    0  501  503 -0.00000000000E+00 -0.00000000000E+00 -0.27387780345E+02  0.27387780345E+02  0.00000000000E+00 0. -1.
          5    1    1    2  501    0 -0.40751803289E+00 -0.31957210449E+01 -0.20288568310E+02  0.21073554707E+02  0.47000000000E+01 0. -1.
         -5    1    1    2    0  502  0.40751803289E+00  0.31957210449E+01 -0.54964137402E+01  0.79170239325E+01  0.47000000000E+01 0.  1.
<mgrwt>
<rscale>  2 0.56981316E+01</rscale>
<asrwt>0</asrwt>
<pdfrwt beam="1">  1       21 0.24658437E-03 0.56981316E+01</pdfrwt>
<pdfrwt beam="2">  1       21 0.42135044E-02 0.56981316E+01</pdfrwt>
<totfact> 0.26624833E+09</totfact>
</mgrwt>
</event>
<event>
 4    1  0.4084348E+006  0.6280670E+01  0.7546771E-02  0.2380265E+00
         21   -1    0    0  501  502  0.00000000000E+00  0.00000000000E+00  0.26976231923E+00  0.26976231923E+00  0.00000000000E+00 0. -1.
         21   -1    0    0  502  503 -0.00000000000E+00 -0.00000000000E+00 -0.18973909181E+03  0.18973909181E+03  0.00000000000E+00 0.  1.
          5    1    1    2  501    0  0.40391929406E+01  0.10206523328E+01 -0.49239493195E+02  0.49638437736E+02  0.47000000000E+01 0. -1.
         -5    1    1    2    0  503 -0.40391929406E+01 -0.10206523328E+01 -0.14022983629E+03  0.14037041639E+03  0.47000000000E+01 0.  1.
<mgrwt>
<rscale>  2 0.62806696E+01</rscale>
<asrwt>0</asrwt>
<pdfrwt beam="1">  1       21 0.41501977E-04 0.62806696E+01</pdfrwt>
<pdfrwt beam="2">  1       21 0.29190572E-01 0.62806696E+01</pdfrwt>
<totfact> 0.15699826E+09</totfact>
</mgrwt>
</event>
<event>
 4    1  0.4084348E+006  0.6306172E+01  0.7546771E-02  0.2377200E+00
         21   -1    0    0  501  502  0.00000000000E+00  0.00000000000E+00  0.22677086280E+01  0.22677086280E+01  0.00000000000E+00 0. -1.
         21   -1    0    0  502  503 -0.00000000000E+00 -0.00000000000E+00 -0.96753029372E+02  0.96753029372E+02  0.00000000000E+00 0.  1.
          5    1    1    2  501    0 -0.41069883464E+01 -0.90024848545E+00 -0.24433191415E+01  0.67629586011E+01  0.47000000000E+01 0. -1.
         -5    1    1    2    0  503  0.41069883464E+01  0.90024848545E+00 -0.92042001602E+02  0.92257779398E+02  0.47000000000E+01 0.  1.
<mgrwt>
<rscale>  2 0.63061716E+01</rscale>
<asrwt>0</asrwt>
<pdfrwt beam="1">  1       21 0.34887825E-03 0.63061716E+01</pdfrwt>
<pdfrwt beam="2">  1       21 0.14885081E-01 0.63061716E+01</pdfrwt>
<totfact> 0.26371898E+08</totfact>
</mgrwt>
</event>
<event>
 4    1  0.4084348E+006  0.5583481E+01  0.7546771E-02  0.2473007E+00
         21   -1    0    0  501  502  0.00000000000E+00  0.00000000000E+00  0.13705710067E+02  0.13705710067E+02  0.00000000000E+00 0. -1.
         21   -1    0    0  502  503 -0.00000000000E+00 -0.00000000000E+00 -0.23850038012E+01  0.23850038012E+01  0.00000000000E+00 0. -1.
          5    1    1    2  501    0 -0.25895302006E+01  0.15425943294E+01  0.73911897678E+01  0.92630961405E+01  0.47000000000E+01 0. -1.
         -5    1    1    2    0  503  0.25895302006E+01 -0.15425943294E+01  0.39295164978E+01  0.68276177274E+01  0.47000000000E+01 0. -1.
<mgrwt>
<rscale>  2 0.55834813E+01</rscale>
<asrwt>0</asrwt>
<pdfrwt beam="1">  1       21 0.21085707E-02 0.55834813E+01</pdfrwt>
<pdfrwt beam="2">  1       21 0.36692367E-03 0.55834813E+01</pdfrwt>
<totfact> 0.41336250E+09</totfact>
</mgrwt>
</event>
<event>
 4    1  0.4084348E+006  0.5732386E+01  0.7546771E-02  0.2451612E+00
         21   -1    0    0  503  502  0.00000000000E+00  0.00000000000E+00  0.11261686496E+01  0.11261686496E+01  0.00000000000E+00 0. -1.
         21   -1    0    0  501  503 -0.00000000000E+00 -0.00000000000E+00 -0.47061729033E+02  0.47061729033E+02  0.00000000000E+00 0. -1.
          5    1    1    2  501    0 -0.19704257064E+01 -0.26244367365E+01 -0.37820070025E+02  0.38252031872E+02  0.47000000000E+01 0. -1.
         -5    1    1    2    0  502  0.19704257064E+01  0.26244367365E+01 -0.81154903590E+01  0.99358658111E+01  0.47000000000E+01 0. -1.
<mgrwt>
<rscale>  2 0.57323857E+01</rscale>
<asrwt>0</asrwt>
<pdfrwt beam="1">  1       21 0.17325669E-03 0.57323857E+01</pdfrwt>
<pdfrwt beam="2">  1       21 0.72402669E-02 0.57323857E+01</pdfrwt>
<totfact> 0.19357574E+09</totfact>
</mgrwt>
</event>
<event>
 4    1  0.4084348E+006  0.1122032E+02  0.7546771E-02  0.2011538E+00
         21   -1    0    0  503  502  0.00000000000E+00  0.00000000000E+00  0.86324530396E-01  0.86324530396E-01  0.00000000000E+00 0. -1.
         21   -1    0    0  501  503 -0.00000000000E+00 -0.00000000000E+00 -0.14952300972E+04  0.14952300972E+04  0.00000000000E+00 0. -1.
          5    1    1    2  501    0 -0.85207746561E+01 -0.55858732379E+01 -0.86491520016E+03  0.86498797625E+03  0.47000000000E+01 0. -1.
         -5    1    1    2    0  502  0.85207746561E+01  0.55858732379E+01 -0.63022857251E+03  0.63032844549E+03  0.47000000000E+01 0. -1.
<mgrwt>
<rscale>  2 0.11220320E+02</rscale>
<asrwt>0</asrwt>
<pdfrwt beam="1">  1       21 0.13280718E-04 0.11220320E+02</pdfrwt>
<pdfrwt beam="2">  1       21 0.23003504E+00 0.11220320E+02</pdfrwt>
<totfact> 0.15406362E+08</totfact>
</mgrwt>
</event>
<event>
 4    1  0.4084348E+006  0.8427757E+01  0.7546771E-02  0.2177329E+00
         21   -1    0    0  501  502  0.00000000000E+00  0.00000000000E+00  0.20127891210E+01  0.20127891210E+01  0.00000000000E+00 0. -1.
         21   -1    0    0  502  503 -0.00000000000E+00 -0.00000000000E+00 -0.98848261339E+02  0.98848261339E+02  0.00000000000E+00 0.  1.
          5    1    1    2  501    0 -0.63013553655E+01 -0.30380921730E+01 -0.79785708126E+01  0.11605372709E+02  0.47000000000E+01 0. -1.
         -5    1    1    2    0  503  0.63013553655E+01  0.30380921730E+01 -0.88856901405E+02  0.89255677751E+02  0.47000000000E+01 0.  1.
<mgrwt>
<rscale>  2 0.84277567E+01</rscale>
<asrwt>0</asrwt>
<pdfrwt beam="1">  1       21 0.30965984E-03 0.84277567E+01</pdfrwt>
<pdfrwt beam="2">  1       21 0.15207426E-01 0.84277567E+01</pdfrwt>
<totfact> 0.36019087E+08</totfact>
</mgrwt>
</event>
<event>
 4    1  0.4084348E+006  0.5610671E+01  0.7546771E-02  0.2469029E+00
         21   -1    0    0  503  502  0.00000000000E+00  0.00000000000E+00  0.20527051779E+04  0.20527051779E+04  0.00000000000E+00 0. -1.
         21   -1    0    0  501  503 -0.00000000000E+00 -0.00000000000E+00 -0.15615259994E-01  0.15615259994E-01  0.00000000000E+00 0.  1.
          5    1    1    2  501    0  0.47427285990E+00 -0.30273243180E+01  0.88901040592E+03  0.88902811062E+03  0.47000000000E+01 0.  1.
         -5    1    1    2    0  502 -0.47427285990E+00  0.30273243180E+01  0.11636791567E+04  0.11636926825E+04  0.47000000000E+01 0. -1.
<mgrwt>
<rscale>  2 0.56106708E+01</rscale>
<asrwt>0</asrwt>
<pdfrwt beam="1">  1       21 0.31558482E+00 0.56106708E+01</pdfrwt>
<pdfrwt beam="2">  1       21 0.24039918E-05 0.56106708E+01</pdfrwt>
<totfact> 0.54044287E+08</totfact>
</mgrwt>
</event>
<event>
 4    1  0.4084348E+006  0.6374441E+01  0.7546771E-02  0.2369096E+00
         21   -1    0    0  503  502  0.00000000000E+00  0.00000000000E+00  0.25437502856E+03  0.25437502856E+03  0.00000000000E+00 0.  1.
         21   -1    0    0  501  503 -0.00000000000E+00 -0.00000000000E+00 -0.16922292755E+00  0.16922292755E+00  0.00000000000E+00 0.  1.
          5    1    1    2  501    0  0.14244296414E+01  0.40638037122E+01  0.96972293451E+02  0.97181578488E+02  0.47000000000E+01 0.  1.
         -5    1    1    2    0  502 -0.14244296414E+01 -0.40638037122E+01  0.15723351218E+03  0.15736267300E+03  0.47000000000E+01 0.  1.
<mgrwt>
<rscale>  2 0.63744412E+01</rscale>
<asrwt>0</asrwt>
<pdfrwt beam="1">  1       21 0.39134314E-01 0.63744412E+01</pdfrwt>
<pdfrwt beam="2">  1       21 0.26034500E-04 0.63744412E+01</pdfrwt>
<totfact> 0.17923640E+09</totfact>
</mgrwt>
</event>
<event>
 4    1  0.4084348E+006  0.8888766E+01  0.7546771E-02  0.2144357E+00
         21   -1    0    0  501  502  0.00000000000E+00  0.00000000000E+00  0.20676162875E+01  0.20676162875E+01  0.00000000000E+00 0.  1.
         21   -1    0    0  502  503 -0.00000000000E+00 -0.00000000000E+00 -0.45983876955E+02  0.45983876955E+02  0.00000000000E+00 0. -1.
          5    1    1    2  501    0  0.65895838031E+01  0.36739012569E+01 -0.12081598495E+02  0.14999172889E+02  0.47000000000E+01 0.  1.
         -5    1    1    2    0  503 -0.65895838031E+01 -0.36739012569E+01 -0.31834662172E+02  0.33052320354E+02  0.47000000000E+01 0. -1.
<mgrwt>
<rscale>  2 0.88887662E+01</rscale>
<asrwt>0</asrwt>
<pdfrwt beam="1">  1       21 0.31809484E-03 0.88887662E+01</pdfrwt>
<pdfrwt beam="2">  1       21 0.70744421E-02 0.88887662E+01</pdfrwt>
<totfact> 0.11989801E+09</totfact>
</mgrwt>
</event>
<event>
 4    1  0.4084348E+006  0.4813681E+01  0.7546771E-02  0.2601307E+00
         21   -1    0    0  501  502  0.00000000000E+00  0.00000000000E+00  0.50036895129E+00  0.50036895129E+00  0.00000000000E+00 0.  1.
         21   -1    0    0  502  503 -0.00000000000E+00 -0.00000000000E+00 -0.10886148797E+03  0.10886148797E+03  0.00000000000E+00 0.  1.
          5    1    1    2  501    0 -0.10272526208E+01  0.16211441658E+00 -0.12730855400E+02  0.13610518295E+02  0.47000000000E+01 0.  1.
         -5    1    1    2    0  503  0.10272526208E+01 -0.16211441658E+00 -0.95630263614E+02  0.95751338622E+02  0.47000000000E+01 0.  1.
<mgrwt>
<rscale>  2 0.48136814E+01</rscale>
<asrwt>0</asrwt>
<pdfrwt beam="1">  1       21 0.76979877E-04 0.48136814E+01</pdfrwt>
<pdfrwt beam="2">  1       21 0.16747913E-01 0.48136814E+01</pdfrwt>
<totfact> 0.13535646E+09</totfact>
</mgrwt>
</event>
<event>
 4    1  0.4084348E+006  0.8427193E+01  0.7546771E-02  0.2177371E+00
         21   -1    0    0  503  502  0.00000000000E+00  0.00000000000E+00  0.51366221135E+01  0.51366221135E+01  0.00000000000E+00 0.  1.
         21   -1    0    0  501  503 -0.00000000000E+00 -0.00000000000E+00 -0.27369717228E+02  0.27369717228E+02  0.00000000000E+00 0.  1.
          5    1    1    2  501    0  0.31198113100E+01 -0.62605392871E+01 -0.22549966197E+02  0.24073191527E+02  0.47000000000E+01 0.  1.
         -5    1    1    2    0  502 -0.31198113100E+01  0.62605392871E+01  0.31687108346E+00  0.84331478144E+01  0.47000000000E+01 0.  1.
<mgrwt>
<rscale>  2 0.84271926E+01</rscale>
<asrwt>0</asrwt>
<pdfrwt beam="1">  1       21 0.79024957E-03 0.84271926E+01</pdfrwt>
<pdfrwt beam="2">  1       21 0.42107257E-02 0.84271926E+01</pdfrwt>
<totfact> 0.70429692E+08</totfact>
</mgrwt>
</event>
<event>
 4    1  0.4084348E+006  0.1180997E+02  0.7546771E-02  0.1984589E+00
         21   -1    0    0  501  502  0.00000000000E+00  0.00000000000E+00  0.77924201136E+01  0.77924201136E+01  0.00000000000E+00 0. -1.
         21   -1    0    0  502  503 -0.00000000000E+00 -0.00000000000E+00 -0.23806654205E+02  0.23806654205E+02  0.00000000000E+00 0.  1.
          5    1    1    2  501    0 -0.82128911773E+01 -0.70663879643E+01 -0.13651527405E+00  0.11810760211E+02  0.47000000000E+01 0. -1.
         -5    1    1    2    0  503  0.82128911773E+01  0.70663879643E+01 -0.15877718817E+02  0.19788314107E+02  0.47000000000E+01 0.  1.
<mgrwt>
<rscale>  2 0.11809971E+02</rscale>
<asrwt>0</asrwt>
<pdfrwt beam="1">  1       21 0.11988339E-02 0.11809971E+02</pdfrwt>
<pdfrwt beam="2">  1       21 0.36625622E-02 0.11809971E+02</pdfrwt>
<totfact> 0.57510185E+08</totfact>
</mgrwt>
</event>
<event>
 4    1  0.4084348E+006  0.4819422E+01  0.7546771E-02  0.2600221E+00
         21   -1    0    0  503  502  0.00000000000E+00  0.00000000000E+00  0.17420601858E+02  0.17420601858E+02  0.00000000000E+00 0.  1.
         21   -1    0    0  501  503 -0.00000000000E+00 -0.00000000000E+00 -0.20286838032E+01  0.20286838032E+01  0.00000000000E+00 0.  1.
          5    1    1    2  501    0 -0.64822996805E+00 -0.84653577849E+00  0.20024514506E+01  0.52188731282E+01  0.47000000000E+01 0.  1.
         -5    1    1    2    0  502  0.64822996805E+00  0.84653577849E+00  0.13389466605E+02  0.14230412533E+02  0.47000000000E+01 0.  1.
<mgrwt>
<rscale>  2 0.48194216E+01</rscale>
<asrwt>0</asrwt>
<pdfrwt beam="1">  1       21 0.26800925E-02 0.48194216E+01</pdfrwt>
<pdfrwt beam="2">  1       21 0.31210521E-03 0.48194216E+01</pdfrwt>
<totfact> 0.31552377E+09</totfact>
</mgrwt>
</event>
<event>
 4    1  0.4084348E+006  0.6463299E+01  0.7546771E-02  0.2358762E+00
         21   -1    0    0  501  502  0.00000000000E+00  0.00000000000E+00  0.42962715290E+01  0.42962715290E+01  0.00000000000E+00 0. -1.
         21   -1    0    0  502  503 -0.00000000000E+00 -0.00000000000E+00 -0.17114906588E+02  0.17114906588E+02  0.00000000000E+00 0. -1.
          5    1    1    2  501    0 -0.28435943331E+01  0.34056129402E+01  0.62611386397E+00  0.64935542502E+01  0.47000000000E+01 0. -1.
         -5    1    1    2    0  503  0.28435943331E+01 -0.34056129402E+01 -0.13444748923E+02  0.14917623866E+02  0.47000000000E+01 0. -1.
<mgrwt>
<rscale>  2 0.64632986E+01</rscale>
<asrwt>0</asrwt>
<pdfrwt beam="1">  1       21 0.66096487E-03 0.64632986E+01</pdfrwt>
<pdfrwt beam="2">  1       21 0.26330625E-02 0.64632986E+01</pdfrwt>
<totfact> 0.15056636E+09</totfact>
</mgrwt>
</event>
<event>
 4    1  0.4084348E+006  0.1187827E+02  0.7546771E-02  0.1981602E+00
         21   -1    0    0  501  502  0.00000000000E+00  0.00000000000E+00  0.97082638926E+03  0.97082638926E+03  0.00000000000E+00 0.  1.
         21   -1    0    0  502  503 -0.00000000000E+00 -0.00000000000E+00 -0.22412373015E+00  0.22412373015E+00  0.00000000000E+00 0. -1.
          5    1    1    2  501    0 -0.38861965860E+01 -0.10193173310E+02  0.77317677249E+03  0.77326800970E+03  0.47000000000E+01 0.  1.
         -5    1    1    2    0  503  0.38861965860E+01  0.10193173310E+02  0.19742549304E+03  0.19778250329E+03  0.47000000000E+01 0. -1.
<mgrwt>
<rscale>  2 0.11878270E+02</rscale>
<asrwt>0</asrwt>
<pdfrwt beam="1">  1       21 0.14935454E+00 0.11878270E+02</pdfrwt>
<pdfrwt beam="2">  1       21 0.34481351E-04 0.11878270E+02</pdfrwt>
<totfact> 0.11895627E+08</totfact>
</mgrwt>
</event>
<event>
 4    1  0.4084348E+006  0.5771654E+01  0.7546771E-02  0.2446126E+00
         21   -1    0    0  503  502  0.00000000000E+00  0.00000000000E+00  0.56750253646E-01  0.56750253646E-01  0.00000000000E+00 0. -1.
         21   -1    0    0  501  503 -0.00000000000E+00 -0.00000000000E+00 -0.20509425781E+04  0.20509425781E+04  0.00000000000E+00 0. -1.
          5    1    1    2  501    0  0.29758005574E+01  0.15383757329E+01 -0.18918497389E+04  0.18918585430E+04  0.47000000000E+01 0. -1.
         -5    1    1    2    0  502 -0.29758005574E+01 -0.15383757329E+01 -0.15903608897E+03  0.15914078542E+03  0.47000000000E+01 0. -1.
<mgrwt>
<rscale>  2 0.57716539E+01</rscale>
<asrwt>0</asrwt>
<pdfrwt beam="1">  1       21 0.87308576E-05 0.57716539E+01</pdfrwt>
<pdfrwt beam="2">  1       21 0.31552784E+00 0.57716539E+01</pdfrwt>
<totfact> 0.95071924E+07</totfact>
</mgrwt>
</event>
<event>
 4    1  0.4084348E+006  0.5423980E+01  0.7546771E-02  0.2497023E+00
         21   -1    0    0  501  502  0.00000000000E+00  0.00000000000E+00  0.62225818848E+02  0.62225818848E+02  0.00000000000E+00 0.  1.
         21   -1    0    0  502  503 -0.00000000000E+00 -0.00000000000E+00 -0.57204037202E+00  0.57204037202E+00  0.00000000000E+00 0. -1.
          5    1    1    2  501    0 -0.27034849692E+01  0.14398916794E+00  0.43905871169E+02  0.44239632537E+02  0.47000000000E+01 0.  1.
         -5    1    1    2    0  503  0.27034849692E+01 -0.14398916794E+00  0.17747907307E+02  0.18558226684E+02  0.47000000000E+01 0. -1.
<mgrwt>
<rscale>  2 0.54239804E+01</rscale>
<asrwt>0</asrwt>
<pdfrwt beam="1">  1       21 0.95731975E-02 0.54239804E+01</pdfrwt>
<pdfrwt beam="2">  1       21 0.88006260E-04 0.54239804E+01</pdfrwt>
<totfact> 0.30008245E+09</totfact>
</mgrwt>
</event>
<event>
 4    1  0.4084348E+006  0.5492356E+01  0.7546771E-02  0.2486582E+00
         21   -1    0    0  503  502  0.00000000000E+00  0.00000000000E+00  0.12714676092E+01  0.12714676092E+01  0.00000000000E+00 0.  1.
         21   -1    0    0  501  503 -0.00000000000E+00 -0.00000000000E+00 -0.25343705679E+02  0.25343705679E+02  0.00000000000E+00 0.  1.
          5    1    1    2  501    0  0.19316920948E+01  0.20843559265E+01 -0.15398953271E+02  0.16349120338E+02  0.47000000000E+01 0.  1.
         -5    1    1    2    0  502 -0.19316920948E+01 -0.20843559265E+01 -0.86732847989E+01  0.10266052950E+02  0.47000000000E+01 0.  1.
<mgrwt>
<rscale>  2 0.54923560E+01</rscale>
<asrwt>0</asrwt>
<pdfrwt beam="1">  1       21 0.19561040E-03 0.54923560E+01</pdfrwt>
<pdfrwt beam="2">  1       21 0.38990318E-02 0.54923560E+01</pdfrwt>
<totfact> 0.39489017E+09</totfact>
</mgrwt>
</event>
<event>
 4    1  0.4084348E+006  0.6167807E+01  0.7546771E-02  0.2394082E+00
         21   -1    0    0  503  502  0.00000000000E+00  0.00000000000E+00  0.60087598720E-01  0.60087598720E-01  0.00000000000E+00 0. -1.
         21   -1    0    0  501  503 -0.00000000000E+00 -0.00000000000E+00 -0.71059337861E+03  0.71059337861E+03  0.00000000000E+00 0. -1.
          5    1    1    2  501    0  0.25832437740E+01 -0.30460940400E+01 -0.47260282649E+03  0.47264307193E+03  0.47000000000E+01 0. -1.
         -5    1    1    2    0  502 -0.25832437740E+01  0.30460940400E+01 -0.23793046453E+03  0.23801039429E+03  0.47000000000E+01 0. -1.
<mgrwt>
<rscale>  2 0.61678065E+01</rscale>
<asrwt>0</asrwt>
<pdfrwt beam="1">  1       21 0.92439645E-05 0.61678065E+01</pdfrwt>
<pdfrwt beam="2">  1       21 0.10932539E+00 0.61678065E+01</pdfrwt>
<totfact> 0.99924433E+08</totfact>
</mgrwt>
</event>
<event>
 4    1  0.4084348E+006  0.6168331E+01  0.7546771E-02  0.2394017E+00
         21   -1    0    0  501  502  0.00000000000E+00  0.00000000000E+00  0.96857091594E+02  0.96857091594E+02  0.00000000000E+00 0.  1.
         21   -1    0    0  502  503 -0.00000000000E+00 -0.00000000000E+00 -0.45899037530E+00  0.45899037530E+00  0.00000000000E+00 0.  1.
          5    1    1    2  501    0 -0.39760066405E+01 -0.38689017194E+00  0.66672746589E+02  0.66957474942E+02  0.47000000000E+01 0.  1.
         -5    1    1    2    0  503  0.39760066405E+01  0.38689017194E+00  0.29725354630E+02  0.30358607028E+02  0.47000000000E+01 0.  1.
<mgrwt>
<rscale>  2 0.61683314E+01</rscale>
<asrwt>0</asrwt>
<pdfrwt beam="1">  1       21 0.14901075E-01 0.61683314E+01</pdfrwt>
<pdfrwt beam="2">  1       21 0.70613981E-04 0.61683314E+01</pdfrwt>
<totfact> 0.22691988E+09</totfact>
</mgrwt>
</event>
<event>
 4    1  0.4084348E+006  0.5922670E+01  0.7546771E-02  0.2425598E+00
         21   -1    0    0  501  502  0.00000000000E+00  0.00000000000E+00  0.11257448065E+02  0.11257448065E+02  0.00000000000E+00 0.  1.
         21   -1    0    0  502  503 -0.00000000000E+00 -0.00000000000E+00 -0.84241242337E+01  0.84241242337E+01  0.00000000000E+00 0.  1.
          5    1    1    2  501    0  0.32678606581E+01  0.15195745952E+01  0.92282374239E+01  0.10965326542E+02  0.47000000000E+01 0.  1.
         -5    1    1    2    0  503 -0.32678606581E+01 -0.15195745952E+01 -0.63949135925E+01  0.87162457564E+01  0.47000000000E+01 0.  1.
<mgrwt>
<rscale>  2 0.59226700E+01</rscale>
<asrwt>0</asrwt>
<pdfrwt beam="1">  1       21 0.17319151E-02 0.59226700E+01</pdfrwt>
<pdfrwt beam="2">  1       21 0.12960191E-02 0.59226700E+01</pdfrwt>
<totfact> 0.99143496E+08</totfact>
</mgrwt>
</event>
<event>
 4    1  0.4084348E+006  0.7230113E+01  0.7546771E-02  0.2278402E+00
         21   -1    0    0  503  502  0.00000000000E+00  0.00000000000E+00  0.44171062607E+02  0.44171062607E+02  0.00000000000E+00 0. -1.
         21   -1    0    0  501  503 -0.00000000000E+00 -0.00000000000E+00 -0.12517329409E+01  0.12517329409E+01  0.00000000000E+00 0.  1.
          5    1    1    2  501    0 -0.47620641001E+01  0.27399411415E+01  0.16155421948E+02  0.17699496893E+02  0.47000000000E+01 0.  1.
         -5    1    1    2    0  502  0.47620641001E+01 -0.27399411415E+01  0.26763907718E+02  0.27723298655E+02  0.47000000000E+01 0.  1.
<mgrwt>
<rscale>  2 0.72301129E+01</rscale>
<asrwt>0</asrwt>
<pdfrwt beam="1">  1       21 0.67955469E-02 0.72301129E+01</pdfrwt>
<pdfrwt beam="2">  1       21 0.19257433E-03 0.72301129E+01</pdfrwt>
<totfact> 0.22233713E+09</totfact>
</mgrwt>
</event>
<event>
 4    1  0.4084348E+006  0.5265730E+01  0.7546771E-02  0.2522068E+00
         21   -1    0    0  503  502  0.00000000000E+00  0.00000000000E+00  0.29364174511E+02  0.29364174511E+02  0.00000000000E+00 0. -1.
         21   -1    0    0  501  503 -0.00000000000E+00 -0.00000000000E+00 -0.11007726029E+01  0.11007726029E+01  0.00000000000E+00 0. -1.
          5    1    1    2  501    0 -0.13838178152E+01 -0.19294964224E+01  0.83882488957E+01  0.99040712702E+01  0.47000000000E+01 0. -1.
         -5    1    1    2    0  502  0.13838178152E+01  0.19294964224E+01  0.19875153013E+02  0.20560875844E+02  0.47000000000E+01 0. -1.
<mgrwt>
<rscale>  2 0.52657296E+01</rscale>
<asrwt>0</asrwt>
<pdfrwt beam="1">  1       21 0.45175647E-02 0.52657296E+01</pdfrwt>
<pdfrwt beam="2">  1       21 0.16934965E-03 0.52657296E+01</pdfrwt>
<totfact> 0.37126465E+09</totfact>
</mgrwt>
</event>
<event>
 4    1  0.4084348E+006  0.5154622E+01  0.7546771E-02  0.2540434E+00
         21   -1    0    0  501  502  0.00000000000E+00  0.00000000000E+00  0.12718900741E+03  0.12718900741E+03  0.00000000000E+00 0. -1.
         21   -1    0    0  502  503 -0.00000000000E+00 -0.00000000000E+00 -0.36865770764E+00  0.36865770764E+00  0.00000000000E+00 0. -1.
          5    1    1    2  501    0  0.65489334631E+00  0.20127699672E+01  0.10539497922E+03  0.10552095418E+03  0.47000000000E+01 0. -1.
         -5    1    1    2    0  503 -0.65489334631E+00 -0.20127699672E+01  0.21425370485E+02  0.22036710931E+02  0.47000000000E+01 0. -1.
<mgrwt>
<rscale>  2 0.51546220E+01</rscale>
<asrwt>0</asrwt>
<pdfrwt beam="1">  1       21 0.19567505E-01 0.51546220E+01</pdfrwt>
<pdfrwt beam="2">  1       21 0.56716672E-04 0.51546220E+01</pdfrwt>
<totfact> 0.16918593E+09</totfact>
</mgrwt>
</event>
<event>
 4    1  0.4084348E+006  0.4782079E+01  0.7546771E-02  0.2607328E+00
         21   -1    0    0  503  502  0.00000000000E+00  0.00000000000E+00  0.16306276157E+01  0.16306276157E+01  0.00000000000E+00 0.  1.
         21   -1    0    0  501  503 -0.00000000000E+00 -0.00000000000E+00 -0.14977986368E+02  0.14977986368E+02  0.00000000000E+00 0.  1.
          5    1    1    2  501    0  0.14160708847E+00 -0.87076271467E+00 -0.87692278103E+01  0.99883750761E+01  0.47000000000E+01 0. -1.
         -5    1    1    2    0  502 -0.14160708847E+00  0.87076271467E+00 -0.45781309423E+01  0.66202389079E+01  0.47000000000E+01 0. -1.
<mgrwt>
<rscale>  2 0.47820791E+01</rscale>
<asrwt>0</asrwt>
<pdfrwt beam="1">  1       21 0.25086578E-03 0.47820791E+01</pdfrwt>
<pdfrwt beam="2">  1       21 0.23043056E-02 0.47820791E+01</pdfrwt>
<totfact> 0.52119121E+09</totfact>
</mgrwt>
</event>
<event>
 4    1  0.4084348E+006  0.7686048E+01  0.7546771E-02  0.2236927E+00
         21   -1    0    0  501  502  0.00000000000E+00  0.00000000000E+00  0.14355204465E+01  0.14355204465E+01  0.00000000000E+00 0.  1.
         21   -1    0    0  502  503 -0.00000000000E+00 -0.00000000000E+00 -0.14939214515E+03  0.14939214515E+03  0.00000000000E+00 0.  1.
          5    1    1    2  501    0 -0.19589708279E+01 -0.57574099434E+01 -0.97864169958E+01  0.12443845610E+02  0.47000000000E+01 0.  1.
         -5    1    1    2    0  503  0.19589708279E+01  0.57574099434E+01 -0.13817020771E+03  0.13838381999E+03  0.47000000000E+01 0.  1.
<mgrwt>
<rscale>  2 0.76860481E+01</rscale>
<asrwt>0</asrwt>
<pdfrwt beam="1">  1       21 0.22084943E-03 0.76860481E+01</pdfrwt>
<pdfrwt beam="2">  1       21 0.22983393E-01 0.76860481E+01</pdfrwt>
<totfact> 0.27768421E+08</totfact>
</mgrwt>
</event>
<event>
 4    1  0.4084348E+006  0.6416231E+01  0.7546771E-02  0.2364206E+00
         21   -1    0    0  501  502  0.00000000000E+00  0.00000000000E+00  0.10706406013E+02  0.10706406013E+02  0.00000000000E+00 0. -1.
         21   -1    0    0  502  503 -0.00000000000E+00 -0.00000000000E+00 -0.57846634438E+01  0.57846634438E+01  0.00000000000E+00 0. -1.
          5    1    1    2  501    0  0.11752547308E+01  0.42067563937E+01  0.72353194612E+01  0.96704638329E+01  0.47000000000E+01 0. -1.
         -5    1    1    2    0  503 -0.11752547308E+01 -0.42067563937E+01 -0.23135768922E+01  0.68206056237E+01  0.47000000000E+01 0. -1.
<mgrwt>
<rscale>  2 0.64162312E+01</rscale>
<asrwt>0</asrwt>
<pdfrwt beam="1">  1       21 0.16471394E-02 0.64162312E+01</pdfrwt>
<pdfrwt beam="2">  1       21 0.88994822E-03 0.64162312E+01</pdfrwt>
<totfact> 0.19385625E+09</totfact>
</mgrwt>
</event>
<event>
 4    1  0.4084348E+006  0.4828710E+01  0.7546771E-02  0.2598468E+00
         21   -1    0    0  501  502  0.00000000000E+00  0.00000000000E+00  0.42781312233E+00  0.42781312233E+00  0.00000000000E+00 0.  1.
         21   -1    0    0  502  503 -0.00000000000E+00 -0.00000000000E+00 -0.11420780072E+03  0.11420780072E+03  0.00000000000E+00 0.  1.
          5    1    1    2  501    0 -0.10089007277E+01 -0.45668734112E+00 -0.15446928278E+02  0.16184067388E+02  0.47000000000E+01 0. -1.
         -5    1    1    2    0  503  0.10089007277E+01  0.45668734112E+00 -0.98333059317E+02  0.98451546451E+02  0.47000000000E+01 0. -1.
<mgrwt>
<rscale>  2 0.48287104E+01</rscale>
<asrwt>0</asrwt>
<pdfrwt beam="1">  1       21 0.65817352E-04 0.48287104E+01</pdfrwt>
<pdfrwt beam="2">  1       21 0.17570445E-01 0.48287104E+01</pdfrwt>
<totfact> 0.15493893E+09</totfact>
</mgrwt>
</event>
<event>
 4    1  0.4084348E+006  0.6124919E+01  0.7546771E-02  0.2399443E+00
         21   -1    0    0  503  502  0.00000000000E+00  0.00000000000E+00  0.71887317533E+01  0.71887317533E+01  0.00000000000E+00 0. -1.
         21   -1    0    0  501  503 -0.00000000000E+00 -0.00000000000E+00 -0.55437473655E+01  0.55437473655E+01  0.00000000000E+00 0. -1.
          5    1    1    2  501    0 -0.38732177592E+01  0.65024110716E+00 -0.71944451228E+00  0.61670276239E+01  0.47000000000E+01 0. -1.
         -5    1    1    2    0  502  0.38732177592E+01 -0.65024110716E+00  0.23644289001E+01  0.65654514949E+01  0.47000000000E+01 0. -1.
<mgrwt>
<rscale>  2 0.61249187E+01</rscale>
<asrwt>0</asrwt>
<pdfrwt beam="1">  1       21 0.11059587E-02 0.61249187E+01</pdfrwt>
<pdfrwt beam="2">  1       21 0.85288421E-03 0.61249187E+01</pdfrwt>
<totfact> 0.34891230E+09</totfact>
</mgrwt>
</event>
<event>
 4    1  0.4084348E+006  0.1033075E+02  0.7546771E-02  0.2056639E+00
         21   -1    0    0  503  502  0.00000000000E+00  0.00000000000E+00  0.12248706009E+02  0.12248706009E+02  0.00000000000E+00 0.  1.
         21   -1    0    0  501  503 -0.00000000000E+00 -0.00000000000E+00 -0.16367023444E+02  0.16367023444E+02  0.00000000000E+00 0. -1.
          5    1    1    2  501    0 -0.12248093565E+01  0.91177971142E+01 -0.11843500368E+02  0.15716007227E+02  0.47000000000E+01 0.  1.
         -5    1    1    2    0  502  0.12248093565E+01 -0.91177971142E+01  0.77251829336E+01  0.12899722227E+02  0.47000000000E+01 0. -1.
<mgrwt>
<rscale>  2 0.10330749E+02</rscale>
<asrwt>0</asrwt>
<pdfrwt beam="1">  1       21 0.18844163E-02 0.10330749E+02</pdfrwt>
<pdfrwt beam="2">  1       21 0.25180036E-02 0.10330749E+02</pdfrwt>
<totfact> 0.48438091E+08</totfact>
</mgrwt>
</event>
<event>
 4    1  0.4084348E+006  0.6639790E+01  0.7546771E-02  0.2338916E+00
         21   -1    0    0  501  502  0.00000000000E+00  0.00000000000E+00  0.24238473400E+03  0.24238473400E+03  0.00000000000E+00 0.  1.
         21   -1    0    0  502  503 -0.00000000000E+00 -0.00000000000E+00 -0.25642524398E+00  0.25642524398E+00  0.00000000000E+00 0. -1.
          5    1    1    2  501    0 -0.31264019557E+01 -0.34960575131E+01  0.18647376451E+03  0.18659193888E+03  0.47000000000E+01 0.  1.
         -5    1    1    2    0  503  0.31264019557E+01  0.34960575131E+01  0.55654544251E+02  0.56049220362E+02  0.47000000000E+01 0. -1.
<mgrwt>
<rscale>  2 0.66397897E+01</rscale>
<asrwt>0</asrwt>
<pdfrwt beam="1">  1       21 0.37289776E-01 0.66397897E+01</pdfrwt>
<pdfrwt beam="2">  1       21 0.39450231E-04 0.66397897E+01</pdfrwt>
<totfact> 0.11505859E+09</totfact>
</mgrwt>
</event>
<event>
 4    1  0.4084348E+006  0.5648855E+01  0.7546771E-02  0.2463496E+00
         21   -1    0    0  503  502  0.00000000000E+00  0.00000000000E+00  0.17261023198E+02  0.17261023198E+02  0.00000000000E+00 0. -1.
         21   -1    0    0  501  503 -0.00000000000E+00 -0.00000000000E+00 -0.29512922550E+01  0.29512922550E+01  0.00000000000E+00 0.  1.
          5    1    1    2  501    0  0.24475750669E+01 -0.19567667242E+01  0.97758059406E+00  0.57328198593E+01  0.47000000000E+01 0.  1.
         -5    1    1    2    0  502 -0.24475750669E+01  0.19567667242E+01  0.13332150349E+02  0.14479495594E+02  0.47000000000E+01 0. -1.
<mgrwt>
<rscale>  2 0.56488547E+01</rscale>
<asrwt>0</asrwt>
<pdfrwt beam="1">  1       21 0.26555420E-02 0.56488547E+01</pdfrwt>
<pdfrwt beam="2">  1       21 0.45404497E-03 0.56488547E+01</pdfrwt>
<totfact> 0.22367683E+09</totfact>
</mgrwt>
</event>
<event>
 4    1  0.4084348E+006  0.5290532E+01  0.7546771E-02  0.2518058E+00
         21   -1    0    0  501  502  0.00000000000E+00  0.00000000000E+00  0.27307136861E+03  0.27307136861E+03  0.00000000000E+00 0. -1.
         21   -1    0    0  502  503 -0.00000000000E+00 -0.00000000000E+00 -0.23138283000E+00  0.23138283000E+00  0.00000000000E+00 0. -1.
          5    1    1    2  501    0 -0.12011345293E+01  0.21111616652E+01  0.23840739188E+03  0.23846608612E+03  0.47000000000E+01 0. -1.
         -5    1    1    2    0  503  0.12011345293E+01 -0.21111616652E+01  0.34432593899E+02  0.34836665316E+02  0.47000000000E+01 0. -1.
<mgrwt>
<rscale>  2 0.52905319E+01</rscale>
<asrwt>0</asrwt>
<pdfrwt beam="1">  1       21 0.42010722E-01 0.52905319E+01</pdfrwt>
<pdfrwt beam="2">  1       21 0.35597577E-04 0.52905319E+01</pdfrwt>
<totfact> 0.90378270E+08</totfact>
</mgrwt>
</event>
<event>
 4    1  0.4084348E+006  0.6186948E+01  0.7546771E-02  0.2391709E+00
         21   -1    0    0  501  502  0.00000000000E+00  0.00000000000E+00  0.22546606727E+01  0.22546606727E+01  0.00000000000E+00 0.  1.
         21   -1    0    0  502  503 -0.00000000000E+00 -0.00000000000E+00 -0.17409494851E+02  0.17409494851E+02  0.00000000000E+00 0.  1.
          5    1    1    2  501    0  0.33834493240E+01 -0.21772915843E+01 -0.60284927495E+01  0.86383478051E+01  0.47000000000E+01 0.  1.
         -5    1    1    2    0  503 -0.33834493240E+01  0.21772915843E+01 -0.91263414290E+01  0.11025807719E+02  0.47000000000E+01 0.  1.
<mgrwt>
<rscale>  2 0.61869482E+01</rscale>
<asrwt>0</asrwt>
<pdfrwt beam="1">  1       21 0.34687089E-03 0.61869482E+01</pdfrwt>
<pdfrwt beam="2">  1       21 0.26783837E-02 0.61869482E+01</pdfrwt>
<totfact> 0.34730106E+09</totfact>
</mgrwt>
</event>
<event>
 4    1  0.4084348E+006  0.6951075E+01  0.7546771E-02  0.2305954E+00
         21   -1    0    0  503  502  0.00000000000E+00  0.00000000000E+00  0.55581003895E+02  0.55581003895E+02  0.00000000000E+00 0.  1.
         21   -1    0    0  501  503 -0.00000000000E+00 -0.00000000000E+00 -0.14288545090E+01  0.14288545090E+01  0.00000000000E+00 0. -1.
          5    1    1    2  501    0  0.21275921998E+01 -0.46584118730E+01  0.92382867779E+01  0.11561288524E+02  0.47000000000E+01 0. -1.
         -5    1    1    2    0  502 -0.21275921998E+01  0.46584118730E+01  0.44913862608E+02  0.45448569880E+02  0.47000000000E+01 0.  1.
<mgrwt>
<rscale>  2 0.69510754E+01</rscale>
<asrwt>0</asrwt>
<pdfrwt beam="1">  1       21 0.85509220E-02 0.69510754E+01</pdfrwt>
<pdfrwt beam="2">  1       21 0.21982381E-03 0.69510754E+01</pdfrwt>
<totfact> 0.12667874E+09</totfact>
</mgrwt>
</event>
<event>
 4    1  0.4084348E+006  0.6396360E+01  0.7546771E-02  0.2366525E+00
         21   -1    0    0  501  502  0.00000000000E+00  0.00000000000E+00  0.29635677365E+03  0.29635677365E+03  0.00000000000E+00 0.  1.
         21   -1    0    0  502  503 -0.00000000000E+00 -0.00000000000E+00 -0.14951877593E+00  0.14951877593E+00  0.00000000000E+00 0.  1.
          5    1    1    2  501    0 -0.16554694452E+01 -0.40103411081E+01  0.18915498601E+03  0.18926310297E+03  0.47000000000E+01 0.  1.
         -5    1    1    2    0  503  0.16554694452E+01  0.40103411081E+01  0.10705226887E+03  0.10724318945E+03  0.47000000000E+01 0.  1.
<mgrwt>
<rscale>  2 0.63963595E+01</rscale>
<asrwt>0</asrwt>
<pdfrwt beam="1">  1       21 0.45592880E-01 0.63963595E+01</pdfrwt>
<pdfrwt beam="2">  1       21 0.23003126E-04 0.63963595E+01</pdfrwt>
<totfact> 0.16188818E+09</totfact>
</mgrwt>
</event>
<event>
 4    1  0.4084348E+006  0.5066307E+01  0.7546771E-02  0.2555524E+00
         21   -1    0    0  503  502  0.00000000000E+00  0.00000000000E+00  0.19391597121E+02  0.19391597121E+02  0.00000000000E+00 0.  1.
         21   -1    0    0  501  503 -0.00000000000E+00 -0.00000000000E+00 -0.28398265951E+01  0.28398265951E+01  0.00000000000E+00 0.  1.
          5    1    1    2  501    0 -0.16089213797E+01 -0.99440291226E+00  0.15379323654E+00  0.50686405986E+01  0.47000000000E+01 0.  1.
         -5    1    1    2    0  502  0.16089213797E+01  0.99440291226E+00  0.16397977289E+02  0.17162783117E+02  0.47000000000E+01 0.  1.
<mgrwt>
<rscale>  2 0.50663069E+01</rscale>
<asrwt>0</asrwt>
<pdfrwt beam="1">  1       21 0.29833225E-02 0.50663069E+01</pdfrwt>
<pdfrwt beam="2">  1       21 0.43689641E-03 0.50663069E+01</pdfrwt>
<totfact> 0.18001550E+09</totfact>
</mgrwt>
</event>
<event>
 4    1  0.4084348E+006  0.5713972E+01  0.7546771E-02  0.2454207E+00
         21   -1    0    0  501  502  0.00000000000E+00  0.00000000000E+00  0.13225311750E+02  0.13225311750E+02  0.00000000000E+00 0. -1.
         21   -1    0    0  502  503 -0.00000000000E+00 -0.00000000000E+00 -0.40110565163E+01  0.40110565163E+01  0.00000000000E+00 0. -1.
          5    1    1    2  501    0  0.29960540401E+01  0.12582284531E+01  0.99512593058E+01  0.11475061674E+02  0.47000000000E+01 0. -1.
         -5    1    1    2    0  503 -0.29960540401E+01 -0.12582284531E+01 -0.73700407180E+00  0.57613065926E+01  0.47000000000E+01 0. -1.
<mgrwt>
<rscale>  2 0.57139722E+01</rscale>
<asrwt>0</asrwt>
<pdfrwt beam="1">  1       21 0.20346633E-02 0.57139722E+01</pdfrwt>
<pdfrwt beam="2">  1       21 0.61708562E-03 0.57139722E+01</pdfrwt>
<totfact> 0.21655294E+09</totfact>
</mgrwt>
</event>
<event>
 4    1  0.4084348E+006  0.4926516E+01  0.7546771E-02  0.2580357E+00
         21   -1    0    0  501  502  0.00000000000E+00  0.00000000000E+00  0.59407197722E+00  0.59407197722E+00  0.00000000000E+00 0. -1.
         21   -1    0    0  502  503 -0.00000000000E+00 -0.00000000000E+00 -0.94912714396E+02  0.94912714396E+02  0.00000000000E+00 0. -1.
          5    1    1    2  501    0  0.95591127475E+00 -0.11255185346E+01 -0.11120333380E+02  0.12162745283E+02  0.47000000000E+01 0. -1.
         -5    1    1    2    0  503 -0.95591127475E+00  0.11255185346E+01 -0.83198309038E+02  0.83344041090E+02  0.47000000000E+01 0. -1.
<mgrwt>
<rscale>  2 0.49265158E+01</rscale>
<asrwt>0</asrwt>
<pdfrwt beam="1">  1       21 0.91395598E-04 0.49265158E+01</pdfrwt>
<pdfrwt beam="2">  1       21 0.14601971E-01 0.49265158E+01</pdfrwt>
<totfact> 0.13642112E+09</totfact>
</mgrwt>
</event>
<event>
 4    1  0.4084348E+006  0.6429447E+01  0.7546771E-02  0.2362671E+00
         21   -1    0    0  501  502  0.00000000000E+00  0.00000000000E+00  0.73392386305E+02  0.73392386305E+02  0.00000000000E+00 0.  1.
         21   -1    0    0  502  503 -0.00000000000E+00 -0.00000000000E+00 -0.33963820654E+01  0.33963820654E+01  0.00000000000E+00 0.  1.
          5    1    1    2  501    0 -0.41010303944E+01 -0.15586337480E+01  0.70064576293E+02  0.70358955652E+02  0.47000000000E+01 0.  1.
         -5    1    1    2    0  503  0.41010303944E+01  0.15586337480E+01 -0.68572053297E-01  0.64298127175E+01  0.47000000000E+01 0.  1.
<mgrwt>
<rscale>  2 0.64294471E+01</rscale>
<asrwt>0</asrwt>
<pdfrwt beam="1">  1       21 0.11291135E-01 0.64294471E+01</pdfrwt>
<pdfrwt beam="2">  1       21 0.52252037E-03 0.64294471E+01</pdfrwt>
<totfact> 0.23518727E+08</totfact>
</mgrwt>
</event>
<event>
 4    1  0.4084348E+006  0.1873226E+02  0.7546771E-02  0.1771781E+00
         21   -1    0    0  501  502  0.00000000000E+00  0.00000000000E+00  0.18595667465E+02  0.18595667465E+02  0.00000000000E+00 0.  1.
         21   -1    0    0  502  503 -0.00000000000E+00 -0.00000000000E+00 -0.30383285032E+02  0.30383285032E+02  0.00000000000E+00 0. -1.
          5    1    1    2  501    0  0.66214168115E+00 -0.18120955803E+02  0.91814430270E+01  0.20861360619E+02  0.47000000000E+01 0.  1.
         -5    1    1    2    0  503 -0.66214168115E+00  0.18120955803E+02 -0.20969060594E+02  0.28117591878E+02  0.47000000000E+01 0. -1.
<mgrwt>
<rscale>  2 0.18732257E+02</rscale>
<asrwt>0</asrwt>
<pdfrwt beam="1">  1       21 0.28608719E-02 0.18732257E+02</pdfrwt>
<pdfrwt beam="2">  1       21 0.46743515E-02 0.18732257E+02</pdfrwt>
<totfact> 0.12878586E+08</totfact>
</mgrwt>
</event>
<event>
 4    1  0.4084348E+006  0.5981773E+01  0.7546771E-02  0.2417802E+00
         21   -1    0    0  501  502  0.00000000000E+00  0.00000000000E+00  0.18200600876E+01  0.18200600876E+01  0.00000000000E+00 0.  1.
         21   -1    0    0  502  503 -0.00000000000E+00 -0.00000000000E+00 -0.29182098030E+02  0.29182098030E+02  0.00000000000E+00 0.  1.
          5    1    1    2  501    0  0.36948071057E+01 -0.20001781246E+00 -0.48261996267E+01  0.76859488360E+01  0.47000000000E+01 0.  1.
         -5    1    1    2    0  503 -0.36948071057E+01  0.20001781246E+00 -0.22535838316E+02  0.23316209282E+02  0.47000000000E+01 0.  1.
<mgrwt>
<rscale>  2 0.59817729E+01</rscale>
<asrwt>0</asrwt>
<pdfrwt beam="1">  1       21 0.28000929E-03 0.59817729E+01</pdfrwt>
<pdfrwt beam="2">  1       21 0.44895529E-02 0.59817729E+01</pdfrwt>
<totfact> 0.21267994E+09</totfact>
</mgrwt>
</event>
<event>
 4    1  0.4084348E+006  0.8421846E+01  0.7546771E-02  0.2177770E+00
         21   -1    0    0  501  502  0.00000000000E+00  0.00000000000E+00  0.16046377783E+03  0.16046377783E+03  0.00000000000E+00 0. -1.
         21   -1    0    0  502  503 -0.00000000000E+00 -0.00000000000E+00 -0.47378261998E+00  0.47378261998E+00  0.00000000000E+00 0.  1.
          5    1    1    2  501    0  0.60214374155E+01  0.35467995038E+01  0.10083155652E+03  0.10118265803E+03  0.47000000000E+01 0. -1.
         -5    1    1    2    0  503 -0.60214374155E+01 -0.35467995038E+01  0.59158438683E+02  0.59754902416E+02  0.47000000000E+01 0.  1.
<mgrwt>
<rscale>  2 0.84218463E+01</rscale>
<asrwt>0</asrwt>
<pdfrwt beam="1">  1       21 0.24686692E-01 0.84218463E+01</pdfrwt>
<pdfrwt beam="2">  1       21 0.72889762E-04 0.84218463E+01</pdfrwt>
<totfact> 0.11897777E+09</totfact>
</mgrwt>
</event>
<event>
 4    1  0.4084348E+006  0.5585417E+01  0.7546771E-02  0.2472722E+00
         21   -1    0    0  501  502  0.00000000000E+00  0.00000000000E+00  0.30320665728E+00  0.30320665728E+00  0.00000000000E+00 0.  1.
         21   -1    0    0  502  503 -0.00000000000E+00 -0.00000000000E+00 -0.14716844005E+03  0.14716844005E+03  0.00000000000E+00 0.  1.
          5    1    1    2  501    0 -0.28542809962E+01  0.97977844473E+00 -0.32987312175E+02  0.33456832641E+02  0.47000000000E+01 0. -1.
         -5    1    1    2    0  503  0.28542809962E+01 -0.97977844473E+00 -0.11387792122E+03  0.11401481407E+03  0.47000000000E+01 0. -1.
<mgrwt>
<rscale>  2 0.55854172E+01</rscale>
<asrwt>0</asrwt>
<pdfrwt beam="1">  1       21 0.46647160E-04 0.55854172E+01</pdfrwt>
<pdfrwt beam="2">  1       21 0.22641307E-01 0.55854172E+01</pdfrwt>
<totfact> 0.18617130E+09</totfact>
</mgrwt>
</event>
<event>
 4    1  0.4084348E+006  0.7955764E+01  0.7546771E-02  0.2214220E+00
         21   -1    0    0  503  502  0.00000000000E+00  0.00000000000E+00  0.62111860027E+00  0.62111860027E+00  0.00000000000E+00 0. -1.
         21   -1    0    0  501  503 -0.00000000000E+00 -0.00000000000E+00 -0.10251374038E+03  0.10251374038E+03  0.00000000000E+00 0. -1.
          5    1    1    2  501    0 -0.25962204597E+01 -0.58705888564E+01 -0.54924875100E+02  0.55498072750E+02  0.47000000000E+01 0. -1.
         -5    1    1    2    0  502  0.25962204597E+01  0.58705888564E+01 -0.46967746683E+02  0.47636786234E+02  0.47000000000E+01 0. -1.
<mgrwt>
<rscale>  2 0.79557636E+01</rscale>
<asrwt>0</asrwt>
<pdfrwt beam="1">  1       21 0.95556600E-04 0.79557636E+01</pdfrwt>
<pdfrwt beam="2">  1       21 0.15771362E-01 0.79557636E+01</pdfrwt>
<totfact> 0.16617095E+09</totfact>
</mgrwt>
</event>
<event>
 4    1  0.4084348E+006  0.1651836E+02  0.7546771E-02  0.1824986E+00
         21   -1    0    0  503  502  0.00000000000E+00  0.00000000000E+00  0.12870896792E+02  0.12870896792E+02  0.00000000000E+00 0.  1.
         21   -1    0    0  501  503 -0.00000000000E+00 -0.00000000000E+00 -0.24989072738E+02  0.24989072738E+02  0.00000000000E+00 0.  1.
          5    1    1    2  501    0 -0.69330081690E-01  0.15835452314E+02  0.13126738754E+01  0.16570439625E+02  0.47000000000E+01 0.  1.
         -5    1    1    2    0  502  0.69330081690E-01 -0.15835452314E+02 -0.13430849822E+02  0.21289529905E+02  0.47000000000E+01 0.  1.
<mgrwt>
<rscale>  2 0.16518364E+02</rscale>
<asrwt>0</asrwt>
<pdfrwt beam="1">  1       21 0.19801380E-02 0.16518364E+02</pdfrwt>
<pdfrwt beam="2">  1       21 0.38444727E-02 0.16518364E+02</pdfrwt>
<totfact> 0.29317443E+08</totfact>
</mgrwt>
</event>
<event>
 4    1  0.4084348E+006  0.7927559E+01  0.7546771E-02  0.2216536E+00
         21   -1    0    0  501  502  0.00000000000E+00  0.00000000000E+00  0.24067983511E+00  0.24067983511E+00  0.00000000000E+00 0.  1.
         21   -1    0    0  502  503 -0.00000000000E+00 -0.00000000000E+00 -0.23753902223E+04  0.23753902223E+04  0.00000000000E+00 0. -1.
          5    1    1    2  501    0  0.24660121412E+01  0.58885466161E+01 -0.66945953574E+02  0.67413699625E+02  0.47000000000E+01 0.  1.
         -5    1    1    2    0  503 -0.24660121412E+01 -0.58885466161E+01 -0.23082035889E+04  0.23082172025E+04  0.47000000000E+01 0. -1.
<mgrwt>
<rscale>  2 0.79275593E+01</rscale>
<asrwt>0</asrwt>
<pdfrwt beam="1">  1       21 0.37028170E-04 0.79275593E+01</pdfrwt>
<pdfrwt beam="2">  1       21 0.36543968E+00 0.79275593E+01</pdfrwt>
<totfact> 0.92186979E+06</totfact>
</mgrwt>
</event>
<event>
 4    1  0.4084348E+006  0.4765270E+01  0.7546771E-02  0.2610559E+00
         21   -1    0    0  503  502  0.00000000000E+00  0.00000000000E+00  0.37938892246E+03  0.37938892246E+03  0.00000000000E+00 0.  1.
         21   -1    0    0  501  503 -0.00000000000E+00 -0.00000000000E+00 -0.10973048610E+00  0.10973048610E+00  0.00000000000E+00 0.  1.
          5    1    1    2  501    0  0.78590878705E+00 -0.12086419725E-01  0.61711425283E+02  0.61895135586E+02  0.47000000000E+01 0. -1.
         -5    1    1    2    0  502 -0.78590878705E+00  0.12086419725E-01  0.31756776669E+03  0.31760351736E+03  0.47000000000E+01 0. -1.
<mgrwt>
<rscale>  2 0.47652701E+01</rscale>
<asrwt>0</asrwt>
<pdfrwt beam="1">  1       21 0.58366476E-01 0.47652701E+01</pdfrwt>
<pdfrwt beam="2">  1       21 0.16881917E-04 0.47652701E+01</pdfrwt>
<totfact> 0.12397897E+09</totfact>
</mgrwt>
</event>
<event>
 4    1  0.4084348E+006  0.4953379E+01  0.7546771E-02  0.2575491E+00
         21   -1    0    0  503  502  0.00000000000E+00  0.00000000000E+00  0.14798486962E+01  0.14798486962E+01  0.00000000000E+00 0. -1.
         21   -1    0    0  501  503 -0.00000000000E+00 -0.00000000000E+00 -0.29858047432E+02  0.29858047432E+02  0.00000000000E+00 0. -1.
          5    1    1    2  501    0  0.68938152186E+00  0.14038220980E+01 -0.24638116749E+02  0.25131111402E+02  0.47000000000E+01 0. -1.
         -5    1    1    2    0  502 -0.68938152186E+00 -0.14038220980E+01 -0.37400819863E+01  0.62067847256E+01  0.47000000000E+01 0. -1.
<mgrwt>
<rscale>  2 0.49533790E+01</rscale>
<asrwt>0</asrwt>
<pdfrwt beam="1">  1       21 0.22766904E-03 0.49533790E+01</pdfrwt>
<pdfrwt beam="2">  1       21 0.45935455E-02 0.49533790E+01</pdfrwt>
<totfact> 0.22882515E+09</totfact>
</mgrwt>
</event>
<event>
 4    1  0.4084348E+006  0.6175448E+01  0.7546771E-02  0.2393133E+00
         21   -1    0    0  501  502  0.00000000000E+00  0.00000000000E+00  0.12145406727E+01  0.12145406727E+01  0.00000000000E+00 0. -1.
         21   -1    0    0  502  503 -0.00000000000E+00 -0.00000000000E+00 -0.31412317580E+02  0.31412317580E+02  0.00000000000E+00 0.  1.
          5    1    1    2  501    0 -0.55595221754E+00 -0.39669979521E+01 -0.15426448924E+02  0.16616602602E+02  0.47000000000E+01 0. -1.
         -5    1    1    2    0  503  0.55595221754E+00  0.39669979521E+01 -0.14771327983E+02  0.16010255650E+02  0.47000000000E+01 0. -1.
<mgrwt>
<rscale>  2 0.61754478E+01</rscale>
<asrwt>0</asrwt>
<pdfrwt beam="1">  1       21 0.18685243E-03 0.61754478E+01</pdfrwt>
<pdfrwt beam="2">  1       21 0.48326638E-02 0.61754478E+01</pdfrwt>
<totfact> 0.34067593E+09</totfact>
</mgrwt>
</event>
<event>
 4    1  0.4084348E+006  0.4721990E+01  0.7546771E-02  0.2618969E+00
         21   -1    0    0  501  502  0.00000000000E+00  0.00000000000E+00  0.66398079280E+02  0.66398079280E+02  0.00000000000E+00 0. -1.
         21   -1    0    0  502  503 -0.00000000000E+00 -0.00000000000E+00 -0.16970971213E+01  0.16970971213E+01  0.00000000000E+00 0. -1.
          5    1    1    2  501    0  0.24380492754E+00  0.38438346311E+00  0.62844024227E+02  0.63021175589E+02  0.47000000000E+01 0. -1.
         -5    1    1    2    0  503 -0.24380492754E+00 -0.38438346311E+00  0.18569579316E+01  0.50740008129E+01  0.47000000000E+01 0. -1.
<mgrwt>
<rscale>  2 0.47219902E+01</rscale>
<asrwt>0</asrwt>
<pdfrwt beam="1">  1       21 0.10215087E-01 0.47219902E+01</pdfrwt>
<pdfrwt beam="2">  1       21 0.26109191E-03 0.47219902E+01</pdfrwt>
<totfact> 0.55697556E+08</totfact>
</mgrwt>
</event>
<event>
 4    1  0.4084348E+006  0.5835000E+01  0.7546771E-02  0.2437406E+00
         21   -1    0    0  503  502  0.00000000000E+00  0.00000000000E+00  0.10553951950E+01  0.10553951950E+01  0.00000000000E+00 0.  1.
         21   -1    0    0  501  503 -0.00000000000E+00 -0.00000000000E+00 -0.41427343998E+02  0.41427343998E+02  0.00000000000E+00 0.  1.
          5    1    1    2  501    0 -0.28284147253E+01 -0.19892956687E+01 -0.30178073593E+02  0.30737002992E+02  0.47000000000E+01 0.  1.
         -5    1    1    2    0  502  0.28284147253E+01  0.19892956687E+01 -0.10193875210E+02  0.11745736201E+02  0.47000000000E+01 0.  1.
<mgrwt>
<rscale>  2 0.58350002E+01</rscale>
<asrwt>0</asrwt>
<pdfrwt beam="1">  1       21 0.16236850E-03 0.58350002E+01</pdfrwt>
<pdfrwt beam="2">  1       21 0.63734373E-02 0.58350002E+01</pdfrwt>
<totfact> 0.25983242E+09</totfact>
</mgrwt>
</event>
<event>
 4    1  0.4084348E+006  0.6494467E+01  0.7546771E-02  0.2355192E+00
         21   -1    0    0  503  502  0.00000000000E+00  0.00000000000E+00  0.45966910708E+01  0.45966910708E+01  0.00000000000E+00 0.  1.
         21   -1    0    0  501  503 -0.00000000000E+00 -0.00000000000E+00 -0.14130543722E+02  0.14130543722E+02  0.00000000000E+00 0.  1.
          5    1    1    2  501    0  0.22613067432E+01 -0.38697013178E+01 -0.10311612018E+02  0.12186362824E+02  0.47000000000E+01 0.  1.
         -5    1    1    2    0  502 -0.22613067432E+01  0.38697013178E+01  0.77775936685E+00  0.65408719685E+01  0.47000000000E+01 0.  1.
<mgrwt>
<rscale>  2 0.64944666E+01</rscale>
<asrwt>0</asrwt>
<pdfrwt beam="1">  1       21 0.70718325E-03 0.64944666E+01</pdfrwt>
<pdfrwt beam="2">  1       21 0.21739298E-02 0.64944666E+01</pdfrwt>
<totfact> 0.18152720E+09</totfact>
</mgrwt>
</event>
<event>
 4    1  0.4084348E+006  0.6077090E+01  0.7546771E-02  0.2405497E+00
         21   -1    0    0  503  502  0.00000000000E+00  0.00000000000E+00  0.16345678210E+01  0.16345678210E+01  0.00000000000E+00 0.  1.
         21   -1    0    0  501  503 -0.00000000000E+00 -0.00000000000E+00 -0.23066887069E+02  0.23066887069E+02  0.00000000000E+00 0.  1.
          5    1    1    2  501    0  0.33832107828E+01  0.18425283831E+01 -0.89473181651E+01  0.10815984855E+02  0.47000000000E+01 0.  1.
         -5    1    1    2    0  502 -0.33832107828E+01 -0.18425283831E+01 -0.12485001083E+02  0.13885470034E+02  0.47000000000E+01 0.  1.
<mgrwt>
<rscale>  2 0.60770903E+01</rscale>
<asrwt>0</asrwt>
<pdfrwt beam="1">  1       21 0.25147198E-03 0.60770903E+01</pdfrwt>
<pdfrwt beam="2">  1       21 0.35487517E-02 0.60770903E+01</pdfrwt>
<totfact> 0.35297175E+09</totfact>
</mgrwt>
</event>
<event>
 4    1  0.4084348E+006  0.1084933E+02  0.7546771E-02  0.2029646E+00
         21   -1    0    0  501  502  0.00000000000E+00  0.00000000000E+00  0.57665032386E+01  0.57665032386E+01  0.00000000000E+00 0. -1.
         21   -1    0    0  502  503 -0.00000000000E+00 -0.00000000000E+00 -0.30664133789E+02  0.30664133789E+02  0.00000000000E+00 0.  1.
          5    1    1    2  501    0  0.64218013944E+01  0.73741659346E+01 -0.19165634658E+01  0.11017307834E+02  0.47000000000E+01 0. -1.
         -5    1    1    2    0  503 -0.64218013944E+01 -0.73741659346E+01 -0.22981067085E+02  0.25413329194E+02  0.47000000000E+01 0.  1.
<mgrwt>
<rscale>  2 0.10849325E+02</rscale>
<asrwt>0</asrwt>
<pdfrwt beam="1">  1       21 0.88715436E-03 0.10849325E+02</pdfrwt>
<pdfrwt beam="2">  1       21 0.47175589E-02 0.10849325E+02</pdfrwt>
<totfact> 0.58019517E+08</totfact>
</mgrwt>
</event>
<event>
 4    1  0.4084348E+006  0.5347671E+01  0.7546771E-02  0.2508942E+00
         21   -1    0    0  503  502  0.00000000000E+00  0.00000000000E+00  0.18791824399E+01  0.18791824399E+01  0.00000000000E+00 0.  1.
         21   -1    0    0  501  503 -0.00000000000E+00 -0.00000000000E+00 -0.16111050460E+02  0.16111050460E+02  0.00000000000E+00 0.  1.
          5    1    1    2  501    0  0.22655064419E+01  0.11726301731E+01 -0.92336086369E+01  0.10670384689E+02  0.47000000000E+01 0.  1.
         -5    1    1    2    0  502 -0.22655064419E+01 -0.11726301731E+01 -0.49982593831E+01  0.73198482103E+01  0.47000000000E+01 0.  1.
<mgrwt>
<rscale>  2 0.53476706E+01</rscale>
<asrwt>0</asrwt>
<pdfrwt beam="1">  1       21 0.28910499E-03 0.53476706E+01</pdfrwt>
<pdfrwt beam="2">  1       21 0.24786231E-02 0.53476706E+01</pdfrwt>
<totfact> 0.43573215E+09</totfact>
</mgrwt>
</event>
<event>
 4    1  0.4084348E+006  0.5876929E+01  0.7546771E-02  0.2431722E+00
         21   -1    0    0  503  502  0.00000000000E+00  0.00000000000E+00  0.89322940907E+01  0.89322940907E+01  0.00000000000E+00 0.  1.
         21   -1    0    0  501  503 -0.00000000000E+00 -0.00000000000E+00 -0.43736572750E+01  0.43736572750E+01  0.00000000000E+00 0.  1.
          5    1    1    2  501    0  0.71721368787E+00  0.34545469125E+01  0.14207903611E-01  0.58769457807E+01  0.47000000000E+01 0.  1.
         -5    1    1    2    0  502 -0.71721368787E+00 -0.34545469125E+01  0.45444289121E+01  0.74290055850E+01  0.47000000000E+01 0.  1.
<mgrwt>
<rscale>  2 0.58769286E+01</rscale>
<asrwt>0</asrwt>
<pdfrwt beam="1">  1       21 0.13741991E-02 0.58769286E+01</pdfrwt>
<pdfrwt beam="2">  1       21 0.67287035E-03 0.58769286E+01</pdfrwt>
<totfact> 0.34450489E+09</totfact>
</mgrwt>
</event>
<event>
 4    1  0.4084348E+006  0.5371665E+01  0.7546771E-02  0.2505163E+00
         21   -1    0    0  503  502  0.00000000000E+00  0.00000000000E+00  0.62875725807E+00  0.62875725807E+00  0.00000000000E+00 0.  1.
         21   -1    0    0  501  503 -0.00000000000E+00 -0.00000000000E+00 -0.93432161309E+02  0.93432161309E+02  0.00000000000E+00 0.  1.
          5    1    1    2  501    0 -0.20558712500E+01  0.15931667131E+01 -0.79949372960E+02  0.80129626378E+02  0.47000000000E+01 0.  1.
         -5    1    1    2    0  502  0.20558712500E+01 -0.15931667131E+01 -0.12854031091E+02  0.13931292189E+02  0.47000000000E+01 0.  1.
<mgrwt>
<rscale>  2 0.53716652E+01</rscale>
<asrwt>0</asrwt>
<pdfrwt beam="1">  1       21 0.96731851E-04 0.53716652E+01</pdfrwt>
<pdfrwt beam="2">  1       21 0.14374184E-01 0.53716652E+01</pdfrwt>
<totfact> 0.14031646E+09</totfact>
</mgrwt>
</event>
<event>
 4    1  0.4084348E+006  0.8123644E+01  0.7546771E-02  0.2200704E+00
         21   -1    0    0  501  502  0.00000000000E+00  0.00000000000E+00  0.98256499635E+00  0.98256499635E+00  0.00000000000E+00 0.  1.
         21   -1    0    0  502  503 -0.00000000000E+00 -0.00000000000E+00 -0.75394860073E+02  0.75394860073E+02  0.00000000000E+00 0. -1.
          5    1    1    2  501    0  0.34095140755E+01 -0.56814439297E+01 -0.49823573208E+02  0.50481501944E+02  0.47000000000E+01 0.  1.
         -5    1    1    2    0  503 -0.34095140755E+01  0.56814439297E+01 -0.24588721869E+02  0.25895923125E+02  0.47000000000E+01 0.  1.
<mgrwt>
<rscale>  2 0.81236440E+01</rscale>
<asrwt>0</asrwt>
<pdfrwt beam="1">  1       21 0.15116380E-03 0.81236440E+01</pdfrwt>
<pdfrwt beam="2">  1       21 0.11599212E-01 0.81236440E+01</pdfrwt>
<totfact> 0.14692913E+09</totfact>
</mgrwt>
</event>
<event>
 4    1  0.4084348E+006  0.6096386E+01  0.7546771E-02  0.2403045E+00
         21   -1    0    0  501  502  0.00000000000E+00  0.00000000000E+00  0.14941964089E+02  0.14941964089E+02  0.00000000000E+00 0.  1.
         21   -1    0    0  502  503 -0.00000000000E+00 -0.00000000000E+00 -0.25098761420E+01  0.25098761420E+01  0.00000000000E+00 0.  1.
          5    1    1    2  501    0  0.36134129022E+00 -0.38659227719E+01  0.70426676320E+01  0.93147782464E+01  0.47000000000E+01 0.  1.
         -5    1    1    2    0  503 -0.36134129022E+00  0.38659227719E+01  0.53894203147E+01  0.81370619842E+01  0.47000000000E+01 0.  1.
<mgrwt>
<rscale>  2 0.60963863E+01</rscale>
<asrwt>0</asrwt>
<pdfrwt beam="1">  1       21 0.22987637E-02 0.60963863E+01</pdfrwt>
<pdfrwt beam="2">  1       21 0.38613480E-03 0.60963863E+01</pdfrwt>
<totfact> 0.36880783E+09</totfact>
</mgrwt>
</event>
<event>
 4    1  0.4084348E+006  0.4738836E+01  0.7546771E-02  0.2615680E+00
         21   -1    0    0  501  502  0.00000000000E+00  0.00000000000E+00  0.19726334234E+03  0.19726334234E+03  0.00000000000E+00 0.  1.
         21   -1    0    0  502  503 -0.00000000000E+00 -0.00000000000E+00 -0.11509495993E+00  0.11509495993E+00  0.00000000000E+00 0.  1.
          5    1    1    2  501    0 -0.60088226693E+00  0.74213170868E-01  0.88271174542E+02  0.88398285176E+02  0.47000000000E+01 0.  1.
         -5    1    1    2    0  503  0.60088226693E+00 -0.74213170868E-01  0.10887707284E+03  0.10898015213E+03  0.47000000000E+01 0.  1.
<mgrwt>
<rscale>  2 0.47388360E+01</rscale>
<asrwt>0</asrwt>
<pdfrwt beam="1">  1       21 0.30347936E-01 0.47388360E+01</pdfrwt>
<pdfrwt beam="2">  1       21 0.17707075E-04 0.47388360E+01</pdfrwt>
<totfact> 0.35825815E+09</totfact>
</mgrwt>
</event>
<event>
 4    1  0.4084348E+006  0.9002984E+01  0.7546771E-02  0.2136605E+00
         21   -1    0    0  503  502  0.00000000000E+00  0.00000000000E+00  0.47434753148E+01  0.47434753148E+01  0.00000000000E+00 0.  1.
         21   -1    0    0  501  503 -0.00000000000E+00 -0.00000000000E+00 -0.19619534357E+02  0.19619534357E+02  0.00000000000E+00 0.  1.
          5    1    1    2  501    0  0.28883133385E+00  0.76733499947E+01 -0.11814246205E+02  0.14853623702E+02  0.47000000000E+01 0.  1.
         -5    1    1    2    0  502 -0.28883133385E+00 -0.76733499947E+01 -0.30618128373E+01  0.95093859702E+01  0.47000000000E+01 0.  1.
<mgrwt>
<rscale>  2 0.90029842E+01</rscale>
<asrwt>0</asrwt>
<pdfrwt beam="1">  1       21 0.72976543E-03 0.90029842E+01</pdfrwt>
<pdfrwt beam="2">  1       21 0.30183899E-02 0.90029842E+01</pdfrwt>
<totfact> 0.13552877E+09</totfact>
</mgrwt>
</event>
<event>
 4    1  0.4084348E+006  0.5227428E+01  0.7546771E-02  0.2528324E+00
         21   -1    0    0  501  502  0.00000000000E+00  0.00000000000E+00  0.13385307740E+02  0.13385307740E+02  0.00000000000E+00 0.  1.
         21   -1    0    0  502  503 -0.00000000000E+00 -0.00000000000E+00 -0.25139822001E+01  0.25139822001E+01  0.00000000000E+00 0. -1.
          5    1    1    2  501    0 -0.11023634059E+00 -0.22855746562E+01  0.88820404512E+01  0.10306146037E+02  0.47000000000E+01 0.  1.
         -5    1    1    2    0  503  0.11023634059E+00  0.22855746562E+01  0.19892850892E+01  0.55931439036E+01  0.47000000000E+01 0. -1.
<mgrwt>
<rscale>  2 0.52274280E+01</rscale>
<asrwt>0</asrwt>
<pdfrwt beam="1">  1       21 0.20592781E-02 0.52274280E+01</pdfrwt>
<pdfrwt beam="2">  1       21 0.38676650E-03 0.52274280E+01</pdfrwt>
<totfact> 0.37288429E+09</totfact>
</mgrwt>
</event>
<event>
 4    1  0.4084348E+006  0.6209532E+01  0.7546771E-02  0.2388925E+00
         21   -1    0    0  503  502  0.00000000000E+00  0.00000000000E+00  0.10510624588E+01  0.10510624588E+01  0.00000000000E+00 0. -1.
         21   -1    0    0  501  503 -0.00000000000E+00 -0.00000000000E+00 -0.76278575373E+02  0.76278575373E+02  0.00000000000E+00 0. -1.
          5    1    1    2  501    0 -0.34889437545E+01 -0.20725739709E+01 -0.65470267090E+02  0.65764079589E+02  0.47000000000E+01 0. -1.
         -5    1    1    2    0  502  0.34889437545E+01  0.20725739709E+01 -0.97572458244E+01  0.11565558243E+02  0.47000000000E+01 0. -1.
<mgrwt>
<rscale>  2 0.62095323E+01</rscale>
<asrwt>0</asrwt>
<pdfrwt beam="1">  1       21 0.16170197E-03 0.62095323E+01</pdfrwt>
<pdfrwt beam="2">  1       21 0.11735162E-01 0.62095323E+01</pdfrwt>
<totfact> 0.10853591E+09</totfact>
</mgrwt>
</event>
<event>
 4    1  0.4084348E+006  0.1157966E+02  0.7546771E-02  0.1994862E+00
         21   -1    0    0  501  502  0.00000000000E+00  0.00000000000E+00  0.69250360694E+01  0.69250360694E+01  0.00000000000E+00 0. -1.
         21   -1    0    0  502  503 -0.00000000000E+00 -0.00000000000E+00 -0.23072312544E+02  0.23072312544E+02  0.00000000000E+00 0.  1.
          5    1    1    2  501    0 -0.14696464326E+01  0.10480392045E+02 -0.14087624611E+02  0.18235943771E+02  0.47000000000E+01 0.  1.
         -5    1    1    2    0  503  0.14696464326E+01 -0.10480392045E+02 -0.20596518637E+01  0.11761404842E+02  0.47000000000E+01 0. -1.
<mgrwt>
<rscale>  2 0.11579658E+02</rscale>
<asrwt>0</asrwt>
<pdfrwt beam="1">  1       21 0.10653901E-02 0.11579658E+02</pdfrwt>
<pdfrwt beam="2">  1       21 0.35495866E-02 0.11579658E+02</pdfrwt>
<totfact> 0.71013343E+08</totfact>
</mgrwt>
</event>
<event>
 4    1  0.4084348E+006  0.4724534E+01  0.7546771E-02  0.2618471E+00
         21   -1    0    0  503  502  0.00000000000E+00  0.00000000000E+00  0.55277409523E+02  0.55277409523E+02  0.00000000000E+00 0.  1.
         21   -1    0    0  501  503 -0.00000000000E+00 -0.00000000000E+00 -0.10380343503E+01  0.10380343503E+01  0.00000000000E+00 0.  1.
          5    1    1    2  501    0 -0.89081915070E-01 -0.47253123620E+00  0.51099292864E+01  0.69593533226E+01  0.47000000000E+01 0.  1.
         -5    1    1    2    0  502  0.89081915070E-01  0.47253123620E+00  0.49129445886E+02  0.49356090551E+02  0.47000000000E+01 0.  1.
<mgrwt>
<rscale>  2 0.47245340E+01</rscale>
<asrwt>0</asrwt>
<pdfrwt beam="1">  1       21 0.85042145E-02 0.47245340E+01</pdfrwt>
<pdfrwt beam="2">  1       21 0.15969764E-03 0.47245340E+01</pdfrwt>
<totfact> 0.14180032E+09</totfact>
</mgrwt>
</event>
<event>
 4    1  0.4084348E+006  0.1299829E+02  0.7546771E-02  0.1936103E+00
         21   -1    0    0  503  502  0.00000000000E+00  0.00000000000E+00  0.76700851538E+00  0.76700851538E+00  0.00000000000E+00 0.  1.
         21   -1    0    0  501  503 -0.00000000000E+00 -0.00000000000E+00 -0.22557256718E+03  0.22557256718E+03  0.00000000000E+00 0. -1.
          5    1    1    2  501    0 -0.42252943139E+01 -0.11358367619E+02 -0.12973980150E+03  0.13038930830E+03  0.47000000000E+01 0.  1.
         -5    1    1    2    0  502  0.42252943139E+01  0.11358367619E+02 -0.95065757163E+02  0.95950267388E+02  0.47000000000E+01 0. -1.
<mgrwt>
<rscale>  2 0.12998293E+02</rscale>
<asrwt>0</asrwt>
<pdfrwt beam="1">  1       21 0.11800143E-03 0.12998293E+02</pdfrwt>
<pdfrwt beam="2">  1       21 0.34703436E-01 0.12998293E+02</pdfrwt>
<totfact> 0.42275317E+08</totfact>
</mgrwt>
</event>
<event>
 4    1  0.4084348E+006  0.9229773E+01  0.7546771E-02  0.2121669E+00
         21   -1    0    0  501  502  0.00000000000E+00  0.00000000000E+00  0.87003236258E+01  0.87003236258E+01  0.00000000000E+00 0. -1.
         21   -1    0    0  502  503 -0.00000000000E+00 -0.00000000000E+00 -0.10177222795E+02  0.10177222795E+02  0.00000000000E+00 0. -1.
          5    1    1    2  501    0  0.78373653434E+01  0.12939942886E+01  0.10992353079E+01  0.92950005383E+01  0.47000000000E+01 0. -1.
         -5    1    1    2    0  503 -0.78373653434E+01 -0.12939942886E+01 -0.25761344769E+01  0.95825458824E+01  0.47000000000E+01 0. -1.
<mgrwt>
<rscale>  2 0.92297734E+01</rscale>
<asrwt>0</asrwt>
<pdfrwt beam="1">  1       21 0.13385113E-02 0.92297734E+01</pdfrwt>
<pdfrwt beam="2">  1       21 0.15657266E-02 0.92297734E+01</pdfrwt>
<totfact> 0.15116668E+09</totfact>
</mgrwt>
</event>
<event>
 4    1  0.4084348E+006  0.5027194E+01  0.7546771E-02  0.2562352E+00
         21   -1    0    0  503  502  0.00000000000E+00  0.00000000000E+00  0.12068098032E+00  0.12068098032E+00  0.00000000000E+00 0.  1.
         21   -1    0    0  501  503 -0.00000000000E+00 -0.00000000000E+00 -0.34592158816E+03  0.34592158816E+03  0.00000000000E+00 0. -1.
          5    1    1    2  501    0 -0.55176826553E+00 -0.16965338281E+01 -0.28158895457E+03  0.28163382612E+03  0.47000000000E+01 0. -1.
         -5    1    1    2    0  502  0.55176826553E+00  0.16965338281E+01 -0.64211952607E+02  0.64408443024E+02  0.47000000000E+01 0.  1.
<mgrwt>
<rscale>  2 0.50271936E+01</rscale>
<asrwt>0</asrwt>
<pdfrwt beam="1">  1       21 0.18566326E-04 0.50271936E+01</pdfrwt>
<pdfrwt beam="2">  1       21 0.53218645E-01 0.50271936E+01</pdfrwt>
<totfact> 0.13522784E+09</totfact>
</mgrwt>
</event>
<event>
 4    1  0.4084348E+006  0.7183160E+01  0.7546771E-02  0.2282915E+00
         21   -1    0    0  503  502  0.00000000000E+00  0.00000000000E+00  0.48113411116E+03  0.48113411116E+03  0.00000000000E+00 0. -1.
         21   -1    0    0  501  503 -0.00000000000E+00 -0.00000000000E+00 -0.10954237252E+00  0.10954237252E+00  0.00000000000E+00 0.  1.
          5    1    1    2  501    0  0.54234729200E+01  0.30614226136E+00  0.20564295673E+03  0.20576837326E+03  0.47000000000E+01 0. -1.
         -5    1    1    2    0  502 -0.54234729200E+01 -0.30614226136E+00  0.27538161205E+03  0.27547528027E+03  0.47000000000E+01 0.  1.
<mgrwt>
<rscale>  2 0.71831596E+01</rscale>
<asrwt>0</asrwt>
<pdfrwt beam="1">  1       21 0.74018941E-01 0.71831596E+01</pdfrwt>
<pdfrwt beam="2">  1       21 0.16853058E-04 0.71831596E+01</pdfrwt>
<totfact> 0.10777397E+09</totfact>
</mgrwt>
</event>
<event>
 4    1  0.4084348E+006  0.5801188E+01  0.7546771E-02  0.2442040E+00
         21   -1    0    0  503  502  0.00000000000E+00  0.00000000000E+00  0.54027640678E+02  0.54027640678E+02  0.00000000000E+00 0. -1.
         21   -1    0    0  501  503 -0.00000000000E+00 -0.00000000000E+00 -0.63187256688E+00  0.63187256688E+00  0.00000000000E+00 0. -1.
          5    1    1    2  501    0 -0.14241199908E+01 -0.30879873466E+01  0.23441058510E+02  0.24148229907E+02  0.47000000000E+01 0. -1.
         -5    1    1    2    0  502  0.14241199908E+01  0.30879873466E+01  0.29954709602E+02  0.30511283338E+02  0.47000000000E+01 0. -1.
<mgrwt>
<rscale>  2 0.58011881E+01</rscale>
<asrwt>0</asrwt>
<pdfrwt beam="1">  1       21 0.83119410E-02 0.58011881E+01</pdfrwt>
<pdfrwt beam="2">  1       21 0.97211207E-04 0.58011881E+01</pdfrwt>
<totfact> 0.34582944E+09</totfact>
</mgrwt>
</event>
<event>
 4    1  0.4084348E+006  0.6469612E+01  0.7546771E-02  0.2358036E+00
         21   -1    0    0  501  502  0.00000000000E+00  0.00000000000E+00  0.40347026180E+02  0.40347026180E+02  0.00000000000E+00 0.  1.
         21   -1    0    0  502  503 -0.00000000000E+00 -0.00000000000E+00 -0.10420466758E+01  0.10420466758E+01  0.00000000000E+00 0. -1.
          5    1    1    2  501    0  0.11255907348E+01 -0.43010376339E+01  0.21034874325E+02  0.22007312809E+02  0.47000000000E+01 0.  1.
         -5    1    1    2    0  503 -0.11255907348E+01  0.43010376339E+01  0.18270105179E+02  0.19381760047E+02  0.47000000000E+01 0. -1.
<mgrwt>
<rscale>  2 0.64696120E+01</rscale>
<asrwt>0</asrwt>
<pdfrwt beam="1">  1       21 0.62072336E-02 0.64696120E+01</pdfrwt>
<pdfrwt beam="2">  1       21 0.16031490E-03 0.64696120E+01</pdfrwt>
<totfact> 0.30039212E+09</totfact>
</mgrwt>
</event>
<event>
 4    1  0.4084348E+006  0.5942311E+01  0.7546771E-02  0.2422993E+00
         21   -1    0    0  503  502  0.00000000000E+00  0.00000000000E+00  0.14875156204E+01  0.14875156204E+01  0.00000000000E+00 0.  1.
         21   -1    0    0  501  503 -0.00000000000E+00 -0.00000000000E+00 -0.50412250987E+02  0.50412250987E+02  0.00000000000E+00 0. -1.
          5    1    1    2  501    0 -0.35731939375E+01 -0.67330745289E+00 -0.43338422328E+02  0.43743912807E+02  0.47000000000E+01 0. -1.
         -5    1    1    2    0  502  0.35731939375E+01  0.67330745289E+00 -0.55863130393E+01  0.81558538004E+01  0.47000000000E+01 0.  1.
<mgrwt>
<rscale>  2 0.59423108E+01</rscale>
<asrwt>0</asrwt>
<pdfrwt beam="1">  1       21 0.22884857E-03 0.59423108E+01</pdfrwt>
<pdfrwt beam="2">  1       21 0.77557306E-02 0.59423108E+01</pdfrwt>
<totfact> 0.12323370E+09</totfact>
</mgrwt>
</event>
<event>
 4    1  0.4084348E+006  0.5358898E+01  0.7546771E-02  0.2507170E+00
         21   -1    0    0  503  502  0.00000000000E+00  0.00000000000E+00  0.14028278992E+01  0.14028278992E+01  0.00000000000E+00 0.  1.
         21   -1    0    0  501  503 -0.00000000000E+00 -0.00000000000E+00 -0.42164078268E+02  0.42164078268E+02  0.00000000000E+00 0.  1.
          5    1    1    2  501    0 -0.13519332280E+01 -0.21909057505E+01 -0.36005351971E+02  0.36401966458E+02  0.47000000000E+01 0.  1.
         -5    1    1    2    0  502  0.13519332280E+01  0.21909057505E+01 -0.47558983972E+01  0.71649397084E+01  0.47000000000E+01 0.  1.
<mgrwt>
<rscale>  2 0.53588983E+01</rscale>
<asrwt>0</asrwt>
<pdfrwt beam="1">  1       21 0.21581973E-03 0.53588983E+01</pdfrwt>
<pdfrwt beam="2">  1       21 0.64867796E-02 0.53588983E+01</pdfrwt>
<totfact> 0.15970921E+09</totfact>
</mgrwt>
</event>
<event>
 4    1  0.4084348E+006  0.8217270E+01  0.7546771E-02  0.2193360E+00
         21   -1    0    0  503  502  0.00000000000E+00  0.00000000000E+00  0.27920260245E+02  0.27920260245E+02  0.00000000000E+00 0. -1.
         21   -1    0    0  501  503 -0.00000000000E+00 -0.00000000000E+00 -0.42558793229E+01  0.42558793229E+01  0.00000000000E+00 0. -1.
          5    1    1    2  501    0 -0.64140856011E+01  0.20719639354E+01  0.12612029030E+01  0.83134927323E+01  0.47000000000E+01 0. -1.
         -5    1    1    2    0  502  0.64140856011E+01 -0.20719639354E+01  0.22403178019E+02  0.23862646836E+02  0.47000000000E+01 0. -1.
<mgrwt>
<rscale>  2 0.82172701E+01</rscale>
<asrwt>0</asrwt>
<pdfrwt beam="1">  1       21 0.42954245E-02 0.82172701E+01</pdfrwt>
<pdfrwt beam="2">  1       21 0.65475068E-03 0.82172701E+01</pdfrwt>
<totfact> 0.87968956E+08</totfact>
</mgrwt>
</event>
<event>
 4    1  0.4084348E+006  0.4701714E+01  0.7546771E-02  0.2622955E+00
         21   -1    0    0  503  502  0.00000000000E+00  0.00000000000E+00  0.45749011011E+02  0.45749011011E+02  0.00000000000E+00 0. -1.
         21   -1    0    0  501  503 -0.00000000000E+00 -0.00000000000E+00 -0.56284012392E+00  0.56284012392E+00  0.00000000000E+00 0. -1.
          5    1    1    2  501    0  0.39609203908E-01  0.12061533238E+00  0.13882968788E+02  0.14657521595E+02  0.47000000000E+01 0.  1.
         -5    1    1    2    0  502 -0.39609203908E-01 -0.12061533238E+00  0.31303202099E+02  0.31654329539E+02  0.47000000000E+01 0.  1.
<mgrwt>
<rscale>  2 0.47017143E+01</rscale>
<asrwt>0</asrwt>
<pdfrwt beam="1">  1       21 0.70383064E-02 0.47017143E+01</pdfrwt>
<pdfrwt beam="2">  1       21 0.86590825E-04 0.47017143E+01</pdfrwt>
<totfact> 0.42094348E+09</totfact>
</mgrwt>
</event>
<event>
 4    1  0.4084348E+006  0.6161028E+01  0.7546771E-02  0.2394925E+00
         21   -1    0    0  503  502  0.00000000000E+00  0.00000000000E+00  0.17625178297E+00  0.17625178297E+00  0.00000000000E+00 0. -1.
         21   -1    0    0  501  503 -0.00000000000E+00 -0.00000000000E+00 -0.21699721883E+03  0.21699721883E+03  0.00000000000E+00 0. -1.
          5    1    1    2  501    0  0.30788326965E+01  0.25276570019E+01 -0.11783140156E+03  0.11799236184E+03  0.47000000000E+01 0. -1.
         -5    1    1    2    0  502 -0.30788326965E+01 -0.25276570019E+01 -0.98989565489E+02  0.99181108767E+02  0.47000000000E+01 0. -1.
<mgrwt>
<rscale>  2 0.61610276E+01</rscale>
<asrwt>0</asrwt>
<pdfrwt beam="1">  1       21 0.27115463E-04 0.61610276E+01</pdfrwt>
<pdfrwt beam="2">  1       21 0.33384428E-01 0.61610276E+01</pdfrwt>
<totfact> 0.21770922E+09</totfact>
</mgrwt>
</event>
<event>
 4    1  0.4084348E+006  0.5147848E+01  0.7546771E-02  0.2541576E+00
         21   -1    0    0  503  502  0.00000000000E+00  0.00000000000E+00  0.43470694613E+00  0.43470694613E+00  0.00000000000E+00 0. -1.
         21   -1    0    0  501  503 -0.00000000000E+00 -0.00000000000E+00 -0.61158055574E+02  0.61158055574E+02  0.00000000000E+00 0.  1.
          5    1    1    2  501    0  0.20981927211E+01 -0.89058627835E-01 -0.32108001877E+02  0.32518058501E+02  0.47000000000E+01 0. -1.
         -5    1    1    2    0  502 -0.20981927211E+01  0.89058627835E-01 -0.28615346751E+02  0.29074704019E+02  0.47000000000E+01 0. -1.
<mgrwt>
<rscale>  2 0.51478485E+01</rscale>
<asrwt>0</asrwt>
<pdfrwt beam="1">  1       21 0.66878051E-04 0.51478485E+01</pdfrwt>
<pdfrwt beam="2">  1       21 0.94089232E-02 0.51478485E+01</pdfrwt>
<totfact> 0.42191800E+09</totfact>
</mgrwt>
</event>
<event>
 4    1  0.4084348E+006  0.5587039E+01  0.7546771E-02  0.2472484E+00
         21   -1    0    0  501  502  0.00000000000E+00  0.00000000000E+00  0.12771963421E+01  0.12771963421E+01  0.00000000000E+00 0. -1.
         21   -1    0    0  502  503 -0.00000000000E+00 -0.00000000000E+00 -0.43814297831E+02  0.43814297831E+02  0.00000000000E+00 0. -1.
          5    1    1    2  501    0  0.72458925339E+00 -0.29325721252E+01 -0.62763016108E+01  0.84027954138E+01  0.47000000000E+01 0. -1.
         -5    1    1    2    0  503 -0.72458925339E+00  0.29325721252E+01 -0.36260799878E+02  0.36688698760E+02  0.47000000000E+01 0. -1.
<mgrwt>
<rscale>  2 0.55870394E+01</rscale>
<asrwt>0</asrwt>
<pdfrwt beam="1">  1       21 0.19649171E-03 0.55870394E+01</pdfrwt>
<pdfrwt beam="2">  1       21 0.67406623E-02 0.55870394E+01</pdfrwt>
<totfact> 0.17772540E+09</totfact>
</mgrwt>
</event>
<event>
 4    1  0.4084348E+006  0.5636034E+01  0.7546771E-02  0.2465347E+00
         21   -1    0    0  501  502  0.00000000000E+00  0.00000000000E+00  0.85420030063E+01  0.85420030063E+01  0.00000000000E+00 0. -1.
         21   -1    0    0  502  503 -0.00000000000E+00 -0.00000000000E+00 -0.16487778865E+02  0.16487778865E+02  0.00000000000E+00 0.  1.
          5    1    1    2  501    0  0.19403335965E+01 -0.24310463125E+01  0.70406361654E+01  0.90186162050E+01  0.47000000000E+01 0. -1.
         -5    1    1    2    0  503 -0.19403335965E+01  0.24310463125E+01 -0.14986412024E+02  0.16011165666E+02  0.47000000000E+01 0.  1.
<mgrwt>
<rscale>  2 0.56360341E+01</rscale>
<asrwt>0</asrwt>
<pdfrwt beam="1">  1       21 0.13141543E-02 0.56360341E+01</pdfrwt>
<pdfrwt beam="2">  1       21 0.25365813E-02 0.56360341E+01</pdfrwt>
<totfact> 0.54004047E+08</totfact>
</mgrwt>
</event>
<event>
 4    1  0.4084348E+006  0.2206537E+02  0.7546771E-02  0.1707124E+00
         21   -1    0    0  501  502  0.00000000000E+00  0.00000000000E+00  0.95461694457E+01  0.95461694457E+01  0.00000000000E+00 0. -1.
         21   -1    0    0  502  503 -0.00000000000E+00 -0.00000000000E+00 -0.68195847471E+02  0.68195847471E+02  0.00000000000E+00 0.  1.
          5    1    1    2  501    0 -0.19957324390E+02  0.81544815117E+01 -0.98073203181E+01  0.24146716078E+02  0.47000000000E+01 0. -1.
         -5    1    1    2    0  503  0.19957324390E+02 -0.81544815117E+01 -0.48842357707E+02  0.53595300838E+02  0.47000000000E+01 0.  1.
<mgrwt>
<rscale>  2 0.22065366E+02</rscale>
<asrwt>0</asrwt>
<pdfrwt beam="1">  1       21 0.14686415E-02 0.22065366E+02</pdfrwt>
<pdfrwt beam="2">  1       21 0.10491668E-01 0.22065366E+02</pdfrwt>
<totfact> 0.10195191E+08</totfact>
</mgrwt>
</event>
<event>
 4    1  0.4084348E+006  0.5038634E+01  0.7546771E-02  0.2560345E+00
         21   -1    0    0  503  502  0.00000000000E+00  0.00000000000E+00  0.66757069870E+02  0.66757069870E+02  0.00000000000E+00 0.  1.
         21   -1    0    0  501  503 -0.00000000000E+00 -0.00000000000E+00 -0.41451323124E+00  0.41451323124E+00  0.00000000000E+00 0.  1.
          5    1    1    2  501    0  0.69895865820E+00 -0.16760934888E+01  0.23522504425E+02  0.24056102075E+02  0.47000000000E+01 0. -1.
         -5    1    1    2    0  502 -0.69895865820E+00  0.16760934888E+01  0.42820052214E+02  0.43115481027E+02  0.47000000000E+01 0. -1.
<mgrwt>
<rscale>  2 0.50386340E+01</rscale>
<asrwt>0</asrwt>
<pdfrwt beam="1">  1       21 0.10270310E-01 0.50386340E+01</pdfrwt>
<pdfrwt beam="2">  1       21 0.63771319E-04 0.50386340E+01</pdfrwt>
<totfact> 0.38524313E+09</totfact>
</mgrwt>
</event>
<event>
 4    1  0.4084348E+006  0.5228041E+01  0.7546771E-02  0.2528223E+00
         21   -1    0    0  503  502  0.00000000000E+00  0.00000000000E+00  0.51800604358E+01  0.51800604358E+01  0.00000000000E+00 0. -1.
         21   -1    0    0  501  503 -0.00000000000E+00 -0.00000000000E+00 -0.10775660487E+02  0.10775660487E+02  0.00000000000E+00 0. -1.
          5    1    1    2  501    0 -0.22011016788E+01 -0.63052722152E+00 -0.84970016662E+01  0.99765450178E+01  0.47000000000E+01 0. -1.
         -5    1    1    2    0  502  0.22011016788E+01  0.63052722152E+00  0.29014016147E+01  0.59791759054E+01  0.47000000000E+01 0. -1.
<mgrwt>
<rscale>  2 0.52280410E+01</rscale>
<asrwt>0</asrwt>
<pdfrwt beam="1">  1       21 0.79693238E-03 0.52280410E+01</pdfrwt>
<pdfrwt beam="2">  1       21 0.16577939E-02 0.52280410E+01</pdfrwt>
<totfact> 0.18702167E+09</totfact>
</mgrwt>
</event>
<event>
 4    1  0.4084348E+006  0.6871559E+01  0.7546771E-02  0.2314140E+00
         21   -1    0    0  501  502  0.00000000000E+00  0.00000000000E+00  0.26242200881E+02  0.26242200881E+02  0.00000000000E+00 0. -1.
         21   -1    0    0  502  503 -0.00000000000E+00 -0.00000000000E+00 -0.22855850138E+01  0.22855850138E+01  0.00000000000E+00 0. -1.
          5    1    1    2  501    0 -0.45339206918E+01 -0.21381981386E+01  0.18557495959E+02  0.19788860108E+02  0.47000000000E+01 0. -1.
         -5    1    1    2    0  503  0.45339206918E+01  0.21381981386E+01  0.53991199084E+01  0.87389257867E+01  0.47000000000E+01 0. -1.
<mgrwt>
<rscale>  2 0.68715594E+01</rscale>
<asrwt>0</asrwt>
<pdfrwt beam="1">  1       21 0.40372615E-02 0.68715594E+01</pdfrwt>
<pdfrwt beam="2">  1       21 0.35162848E-03 0.68715594E+01</pdfrwt>
<totfact> 0.20354570E+09</totfact>
</mgrwt>
</event>
<event>
 4    1  0.4084348E+006  0.4779350E+01  0.7546771E-02  0.2607851E+00
         21   -1    0    0  501  502  0.00000000000E+00  0.00000000000E+00  0.35392065580E+00  0.35392065580E+00  0.00000000000E+00 0.  1.
         21   -1    0    0  502  503 -0.00000000000E+00 -0.00000000000E+00 -0.68390413650E+02  0.68390413650E+02  0.00000000000E+00 0.  1.
          5    1    1    2  501    0  0.30908853315E+00  0.81033956135E+00 -0.25862952899E+02  0.26300846347E+02  0.47000000000E+01 0.  1.
         -5    1    1    2    0  503 -0.30908853315E+00 -0.81033956135E+00 -0.42173540095E+02  0.42443487958E+02  0.47000000000E+01 0.  1.
<mgrwt>
<rscale>  2 0.47793499E+01</rscale>
<asrwt>0</asrwt>
<pdfrwt beam="1">  1       21 0.54449403E-04 0.47793499E+01</pdfrwt>
<pdfrwt beam="2">  1       21 0.10521588E-01 0.47793499E+01</pdfrwt>
<totfact> 0.43368155E+09</totfact>
</mgrwt>
</event>
<event>
 4    1  0.4084348E+006  0.4987363E+01  0.7546771E-02  0.2569401E+00
         21   -1    0    0  503  502  0.00000000000E+00  0.00000000000E+00  0.70631571495E+02  0.70631571495E+02  0.00000000000E+00 0.  1.
         21   -1    0    0  501  503 -0.00000000000E+00 -0.00000000000E+00 -0.58725888138E+00  0.58725888138E+00  0.00000000000E+00 0. -1.
          5    1    1    2  501    0  0.13590471322E-01  0.16684127706E+01  0.12491539506E+02  0.13450365984E+02  0.47000000000E+01 0. -1.
         -5    1    1    2    0  502 -0.13590471322E-01 -0.16684127706E+01  0.57552773108E+02  0.57768464392E+02  0.47000000000E+01 0.  1.
<mgrwt>
<rscale>  2 0.49873626E+01</rscale>
<asrwt>0</asrwt>
<pdfrwt beam="1">  1       21 0.10866389E-01 0.49873626E+01</pdfrwt>
<pdfrwt beam="2">  1       21 0.90347576E-04 0.49873626E+01</pdfrwt>
<totfact> 0.22054370E+09</totfact>
</mgrwt>
</event>
<event>
 4    1  0.4084348E+006  0.6246023E+01  0.7546771E-02  0.2384463E+00
         21   -1    0    0  503  502  0.00000000000E+00  0.00000000000E+00  0.26318034990E+01  0.26318034990E+01  0.00000000000E+00 0. -1.
         21   -1    0    0  501  503 -0.00000000000E+00 -0.00000000000E+00 -0.16212876996E+02  0.16212876996E+02  0.00000000000E+00 0. -1.
          5    1    1    2  501    0  0.25796066513E+01  0.32044393117E+01 -0.95487204964E+01  0.11410121160E+02  0.47000000000E+01 0. -1.
         -5    1    1    2    0  502 -0.25796066513E+01 -0.32044393117E+01 -0.40323530007E+01  0.74345593346E+01  0.47000000000E+01 0. -1.
<mgrwt>
<rscale>  2 0.62460229E+01</rscale>
<asrwt>0</asrwt>
<pdfrwt beam="1">  1       21 0.40489285E-03 0.62460229E+01</pdfrwt>
<pdfrwt beam="2">  1       21 0.24942887E-02 0.62460229E+01</pdfrwt>
<totfact> 0.31351938E+09</totfact>
</mgrwt>
</event>
<event>
 4    1  0.4084348E+006  0.7602707E+01  0.7546771E-02  0.2244205E+00
         21   -1    0    0  503  502  0.00000000000E+00  0.00000000000E+00  0.31375086833E+02  0.31375086833E+02  0.00000000000E+00 0.  1.
         21   -1    0    0  501  503 -0.00000000000E+00 -0.00000000000E+00 -0.58765886441E+01  0.58765886441E+01  0.00000000000E+00 0. -1.
          5    1    1    2  501    0  0.42740336200E+01  0.41765763556E+01 -0.26833352369E+01  0.80623471417E+01  0.47000000000E+01 0. -1.
         -5    1    1    2    0  502 -0.42740336200E+01 -0.41765763556E+01  0.28181833425E+02  0.29189328335E+02  0.47000000000E+01 0.  1.
<mgrwt>
<rscale>  2 0.76027070E+01</rscale>
<asrwt>0</asrwt>
<pdfrwt beam="1">  1       21 0.48269363E-02 0.76027070E+01</pdfrwt>
<pdfrwt beam="2">  1       21 0.90409058E-03 0.76027070E+01</pdfrwt>
<totfact> 0.44323213E+08</totfact>
</mgrwt>
</event>
<event>
 4    1  0.4084348E+006  0.9404264E+01  0.7546771E-02  0.2110566E+00
         21   -1    0    0  503  502  0.00000000000E+00  0.00000000000E+00  0.49081394355E-01  0.49081394355E-01  0.00000000000E+00 0. -1.
         21   -1    0    0  501  503 -0.00000000000E+00 -0.00000000000E+00 -0.18859234442E+04  0.18859234442E+04  0.00000000000E+00 0.  1.
          5    1    1    2  501    0 -0.73906304847E+01 -0.34247270879E+01 -0.11419687572E+04  0.11420074792E+04  0.47000000000E+01 0.  1.
         -5    1    1    2    0  502  0.73906304847E+01  0.34247270879E+01 -0.74390560557E+03  0.74396504633E+03  0.47000000000E+01 0. -1.
<mgrwt>
<rscale>  2 0.94042636E+01</rscale>
<asrwt>0</asrwt>
<pdfrwt beam="1">  1       21 0.75502503E-05 0.94042636E+01</pdfrwt>
<pdfrwt beam="2">  1       21 0.29017025E+00 0.94042636E+01</pdfrwt>
<totfact> 0.17019763E+08</totfact>
</mgrwt>
</event>
<event>
 4    1  0.4084348E+006  0.5785794E+01  0.7546771E-02  0.2444165E+00
         21   -1    0    0  501  502  0.00000000000E+00  0.00000000000E+00  0.37753150265E+00  0.37753150265E+00  0.00000000000E+00 0. -1.
         21   -1    0    0  502  503 -0.00000000000E+00 -0.00000000000E+00 -0.73040222457E+03  0.73040222457E+03  0.00000000000E+00 0.  1.
          5    1    1    2  501    0  0.19590366236E+01 -0.27472878017E+01 -0.22518585337E+02  0.23249991405E+02  0.47000000000E+01 0. -1.
         -5    1    1    2    0  503 -0.19590366236E+01  0.27472878017E+01 -0.70750610773E+03  0.70752976467E+03  0.47000000000E+01 0.  1.
<mgrwt>
<rscale>  2 0.57857942E+01</rscale>
<asrwt>0</asrwt>
<pdfrwt beam="1">  1       21 0.58081660E-04 0.57857942E+01</pdfrwt>
<pdfrwt beam="2">  1       21 0.11236979E+00 0.57857942E+01</pdfrwt>
<totfact> 0.78189942E+07</totfact>
</mgrwt>
</event>
<event>
 4    1  0.4084348E+006  0.8041784E+01  0.7546771E-02  0.2207238E+00
         21   -1    0    0  501  502  0.00000000000E+00  0.00000000000E+00  0.56455500755E+00  0.56455500755E+00  0.00000000000E+00 0. -1.
         21   -1    0    0  502  503 -0.00000000000E+00 -0.00000000000E+00 -0.14598783729E+03  0.14598783729E+03  0.00000000000E+00 0. -1.
          5    1    1    2  501    0 -0.35732378691E+01 -0.54600598295E+01 -0.38708055292E+02  0.39534590255E+02  0.47000000000E+01 0. -1.
         -5    1    1    2    0  503  0.35732378691E+01  0.54600598295E+01 -0.10671522699E+03  0.10701780205E+03  0.47000000000E+01 0. -1.
<mgrwt>
<rscale>  2 0.80417835E+01</rscale>
<asrwt>0</asrwt>
<pdfrwt beam="1">  1       21 0.86854507E-04 0.80417835E+01</pdfrwt>
<pdfrwt beam="2">  1       21 0.22459695E-01 0.80417835E+01</pdfrwt>
<totfact> 0.10669976E+09</totfact>
</mgrwt>
</event>
<event>
 4    1  0.4084348E+006  0.5361882E+01  0.7546771E-02  0.2506700E+00
         21   -1    0    0  503  502  0.00000000000E+00  0.00000000000E+00  0.31887340488E+02  0.31887340488E+02  0.00000000000E+00 0.  1.
         21   -1    0    0  501  503 -0.00000000000E+00 -0.00000000000E+00 -0.14449722483E+01  0.14449722483E+01  0.00000000000E+00 0. -1.
          5    1    1    2  501    0  0.19453723634E+01 -0.16956720699E+01  0.50011456419E+01  0.73322053389E+01  0.47000000000E+01 0. -1.
         -5    1    1    2    0  502 -0.19453723634E+01  0.16956720699E+01  0.25441222598E+02  0.26000107397E+02  0.47000000000E+01 0.  1.
<mgrwt>
<rscale>  2 0.53618819E+01</rscale>
<asrwt>0</asrwt>
<pdfrwt beam="1">  1       21 0.49057442E-02 0.53618819E+01</pdfrwt>
<pdfrwt beam="2">  1       21 0.22230345E-03 0.53618819E+01</pdfrwt>
<totfact> 0.23196136E+09</totfact>
</mgrwt>
</event>
<event>
 4    1  0.4084348E+006  0.5491809E+01  0.7546771E-02  0.2486665E+00
         21   -1    0    0  503  502  0.00000000000E+00  0.00000000000E+00  0.10133505649E+01  0.10133505649E+01  0.00000000000E+00 0.  1.
         21   -1    0    0  501  503 -0.00000000000E+00 -0.00000000000E+00 -0.35862394640E+02  0.35862394640E+02  0.00000000000E+00 0.  1.
          5    1    1    2  501    0  0.27313270432E+01 -0.78090908959E+00 -0.25028627128E+02  0.25624053979E+02  0.47000000000E+01 0.  1.
         -5    1    1    2    0  502 -0.27313270432E+01  0.78090908959E+00 -0.98204169473E+01  0.11251691226E+02  0.47000000000E+01 0.  1.
<mgrwt>
<rscale>  2 0.54918090E+01</rscale>
<asrwt>0</asrwt>
<pdfrwt beam="1">  1       21 0.15590010E-03 0.54918090E+01</pdfrwt>
<pdfrwt beam="2">  1       21 0.55172910E-02 0.54918090E+01</pdfrwt>
<totfact> 0.32215126E+09</totfact>
</mgrwt>
</event>
<event>
 4    1  0.4084348E+006  0.7044430E+01  0.7546771E-02  0.2296538E+00
         21   -1    0    0  501  502  0.00000000000E+00  0.00000000000E+00  0.11803212665E+02  0.11803212665E+02  0.00000000000E+00 0. -1.
         21   -1    0    0  502  503 -0.00000000000E+00 -0.00000000000E+00 -0.52299509566E+01  0.52299509566E+01  0.00000000000E+00 0.  1.
          5    1    1    2  501    0 -0.51585074448E+01  0.96114089222E+00  0.70581898332E+01  0.99720627051E+01  0.47000000000E+01 0. -1.
         -5    1    1    2    0  503  0.51585074448E+01 -0.96114089222E+00 -0.48492812450E+00  0.70611009169E+01  0.47000000000E+01 0.  1.
<mgrwt>
<rscale>  2 0.70444298E+01</rscale>
<asrwt>0</asrwt>
<pdfrwt beam="1">  1       21 0.18158789E-02 0.70444298E+01</pdfrwt>
<pdfrwt beam="2">  1       21 0.80460784E-03 0.70444298E+01</pdfrwt>
<totfact> 0.20922614E+09</totfact>
</mgrwt>
</event>
<event>
 4    1  0.4084348E+006  0.1292395E+02  0.7546771E-02  0.1938935E+00
         21   -1    0    0  503  502  0.00000000000E+00  0.00000000000E+00  0.14645811636E+01  0.14645811636E+01  0.00000000000E+00 0.  1.
         21   -1    0    0  501  503 -0.00000000000E+00 -0.00000000000E+00 -0.11455993951E+03  0.11455993951E+03  0.00000000000E+00 0. -1.
          5    1    1    2  501    0 -0.11138191291E+02 -0.45693698269E+01 -0.60436329054E+02  0.61802737118E+02  0.47000000000E+01 0. -1.
         -5    1    1    2    0  502  0.11138191291E+02  0.45693698269E+01 -0.52659029294E+02  0.54221783556E+02  0.47000000000E+01 0.  1.
<mgrwt>
<rscale>  2 0.12923949E+02</rscale>
<asrwt>0</asrwt>
<pdfrwt beam="1">  1       21 0.22532015E-03 0.12923949E+02</pdfrwt>
<pdfrwt beam="2">  1       21 0.17624608E-01 0.12923949E+02</pdfrwt>
<totfact> 0.54953349E+08</totfact>
</mgrwt>
</event>
<event>
 4    1  0.4084348E+006  0.5318235E+01  0.7546771E-02  0.2513617E+00
         21   -1    0    0  503  502  0.00000000000E+00  0.00000000000E+00  0.91994680903E+02  0.91994680903E+02  0.00000000000E+00 0. -1.
         21   -1    0    0  501  503 -0.00000000000E+00 -0.00000000000E+00 -0.97414406713E+00  0.97414406713E+00  0.00000000000E+00 0. -1.
          5    1    1    2  501    0  0.24800281619E+01  0.20756308876E+00  0.70546720151E+01  0.88347053918E+01  0.47000000000E+01 0. -1.
         -5    1    1    2    0  502 -0.24800281619E+01 -0.20756308876E+00  0.83965864820E+02  0.84134119578E+02  0.47000000000E+01 0. -1.
<mgrwt>
<rscale>  2 0.53182349E+01</rscale>
<asrwt>0</asrwt>
<pdfrwt beam="1">  1       21 0.14153021E-01 0.53182349E+01</pdfrwt>
<pdfrwt beam="2">  1       21 0.14986839E-03 0.53182349E+01</pdfrwt>
<totfact> 0.79311095E+08</totfact>
</mgrwt>
</event>
<event>
 4    1  0.4084348E+006  0.7517613E+01  0.7546771E-02  0.2251772E+00
         21   -1    0    0  503  502  0.00000000000E+00  0.00000000000E+00  0.18028612582E+01  0.18028612582E+01  0.00000000000E+00 0.  1.
         21   -1    0    0  501  503 -0.00000000000E+00 -0.00000000000E+00 -0.54406538420E+02  0.54406538420E+02  0.00000000000E+00 0.  1.
          5    1    1    2  501    0  0.54800795193E+01 -0.20960052872E+01 -0.44598740956E+02  0.45227891887E+02  0.47000000000E+01 0.  1.
         -5    1    1    2    0  502 -0.54800795193E+01  0.20960052872E+01 -0.80049362058E+01  0.10981507791E+02  0.47000000000E+01 0.  1.
<mgrwt>
<rscale>  2 0.75176133E+01</rscale>
<asrwt>0</asrwt>
<pdfrwt beam="1">  1       21 0.27736323E-03 0.75176133E+01</pdfrwt>
<pdfrwt beam="2">  1       21 0.83702378E-02 0.75176133E+01</pdfrwt>
<totfact> 0.10035371E+09</totfact>
</mgrwt>
</event>
<event>
 4    1  0.4084348E+006  0.1007496E+02  0.7546771E-02  0.2070746E+00
         21   -1    0    0  503  502  0.00000000000E+00  0.00000000000E+00  0.75621912915E+02  0.75621912915E+02  0.00000000000E+00 0. -1.
         21   -1    0    0  501  503 -0.00000000000E+00 -0.00000000000E+00 -0.41032638559E+01  0.41032638559E+01  0.00000000000E+00 0.  1.
          5    1    1    2  501    0 -0.86669580073E+01 -0.20733434557E+01  0.30603895097E+01  0.10529525067E+02  0.47000000000E+01 0.  1.
         -5    1    1    2    0  502  0.86669580073E+01  0.20733434557E+01  0.68458259550E+02  0.69195651704E+02  0.47000000000E+01 0. -1.
<mgrwt>
<rscale>  2 0.10074965E+02</rscale>
<asrwt>0</asrwt>
<pdfrwt beam="1">  1       21 0.11634139E-01 0.10074965E+02</pdfrwt>
<pdfrwt beam="2">  1       21 0.63127142E-03 0.10074965E+02</pdfrwt>
<totfact> 0.22212511E+08</totfact>
</mgrwt>
</event>
<event>
 4    1  0.4084348E+006  0.5715206E+01  0.7546771E-02  0.2454032E+00
         21   -1    0    0  503  502  0.00000000000E+00  0.00000000000E+00  0.70424725426E+00  0.70424725426E+00  0.00000000000E+00 0. -1.
         21   -1    0    0  501  503 -0.00000000000E+00 -0.00000000000E+00 -0.67100167615E+02  0.67100167615E+02  0.00000000000E+00 0. -1.
          5    1    1    2  501    0 -0.51368202786E+00  0.32108739227E+01 -0.52036792603E+02  0.52349702626E+02  0.47000000000E+01 0. -1.
         -5    1    1    2    0  502  0.51368202786E+00 -0.32108739227E+01 -0.14359127757E+02  0.15454712243E+02  0.47000000000E+01 0. -1.
<mgrwt>
<rscale>  2 0.57152061E+01</rscale>
<asrwt>0</asrwt>
<pdfrwt beam="1">  1       21 0.10834570E-03 0.57152061E+01</pdfrwt>
<pdfrwt beam="2">  1       21 0.10323105E-01 0.57152061E+01</pdfrwt>
<totfact> 0.21215630E+09</totfact>
</mgrwt>
</event>
<event>
 4    1  0.4084348E+006  0.4896958E+01  0.7546771E-02  0.2585764E+00
         21   -1    0    0  503  502  0.00000000000E+00  0.00000000000E+00  0.38320949176E+02  0.38320949176E+02  0.00000000000E+00 0.  1.
         21   -1    0    0  501  503 -0.00000000000E+00 -0.00000000000E+00 -0.15404213464E+01  0.15404213464E+01  0.00000000000E+00 0.  1.
          5    1    1    2  501    0 -0.13745998121E+01  0.25959736688E-01  0.30324412842E+01  0.57598523153E+01  0.47000000000E+01 0.  1.
         -5    1    1    2    0  502  0.13745998121E+01 -0.25959736688E-01  0.33748086545E+02  0.34101518207E+02  0.47000000000E+01 0.  1.
<mgrwt>
<rscale>  2 0.48969581E+01</rscale>
<asrwt>0</asrwt>
<pdfrwt beam="1">  1       21 0.58955299E-02 0.48969581E+01</pdfrwt>
<pdfrwt beam="2">  1       21 0.23698793E-03 0.48969581E+01</pdfrwt>
<totfact> 0.14879220E+09</totfact>
</mgrwt>
</event>
<event>
 4    1  0.4084348E+006  0.7382086E+01  0.7546771E-02  0.2264115E+00
         21   -1    0    0  503  502  0.00000000000E+00  0.00000000000E+00  0.15347798928E+00  0.15347798928E+00  0.00000000000E+00 0. -1.
         21   -1    0    0  501  503 -0.00000000000E+00 -0.00000000000E+00 -0.36674983379E+03  0.36674983379E+03  0.00000000000E+00 0. -1.
          5    1    1    2  501    0  0.41380749538E+01  0.39091590534E+01 -0.21603859255E+03  0.21616467949E+03  0.47000000000E+01 0. -1.
         -5    1    1    2    0  502 -0.41380749538E+01 -0.39091590534E+01 -0.15055776325E+03  0.15073863229E+03  0.47000000000E+01 0. -1.
<mgrwt>
<rscale>  2 0.73820857E+01</rscale>
<asrwt>0</asrwt>
<pdfrwt beam="1">  1       21 0.23612147E-04 0.73820857E+01</pdfrwt>
<pdfrwt beam="2">  1       21 0.56422695E-01 0.73820857E+01</pdfrwt>
<totfact> 0.11681182E+09</totfact>
</mgrwt>
</event>
<event>
 4    1  0.4084348E+006  0.7031513E+01  0.7546771E-02  0.2297828E+00
         21   -1    0    0  501  502  0.00000000000E+00  0.00000000000E+00  0.23629080772E+01  0.23629080772E+01  0.00000000000E+00 0. -1.
         21   -1    0    0  502  503 -0.00000000000E+00 -0.00000000000E+00 -0.23509961728E+02  0.23509961728E+02  0.00000000000E+00 0.  1.
          5    1    1    2  501    0  0.51738627190E+01 -0.76375533698E+00 -0.62833498799E+01  0.94298814077E+01  0.47000000000E+01 0. -1.
         -5    1    1    2    0  503 -0.51738627190E+01  0.76375533698E+00 -0.14863703771E+02  0.16442988397E+02  0.47000000000E+01 0.  1.
<mgrwt>
<rscale>  2 0.70315132E+01</rscale>
<asrwt>0</asrwt>
<pdfrwt beam="1">  1       21 0.36352432E-03 0.70315132E+01</pdfrwt>
<pdfrwt beam="2">  1       21 0.36169172E-02 0.70315132E+01</pdfrwt>
<totfact> 0.23281205E+09</totfact>
</mgrwt>
</event>
<event>
 4    1  0.4084348E+006  0.6074585E+01  0.7546771E-02  0.2405816E+00
         21   -1    0    0  501  502  0.00000000000E+00  0.00000000000E+00  0.17588580660E+03  0.17588580660E+03  0.00000000000E+00 0. -1.
         21   -1    0    0  502  503 -0.00000000000E+00 -0.00000000000E+00 -0.24369683883E+00  0.24369683883E+00  0.00000000000E+00 0. -1.
          5    1    1    2  501    0  0.10659999740E+01  0.36978676818E+01  0.12066582815E+03  0.12081863542E+03  0.47000000000E+01 0. -1.
         -5    1    1    2    0  503 -0.10659999740E+01 -0.36978676818E+01  0.54976281609E+02  0.55310868018E+02  0.47000000000E+01 0. -1.
<mgrwt>
<rscale>  2 0.60745849E+01</rscale>
<asrwt>0</asrwt>
<pdfrwt beam="1">  1       21 0.27059253E-01 0.60745849E+01</pdfrwt>
<pdfrwt beam="2">  1       21 0.37491962E-04 0.60745849E+01</pdfrwt>
<totfact> 0.19902290E+09</totfact>
</mgrwt>
</event>
<event>
 4    1  0.4084348E+006  0.1123072E+02  0.7546771E-02  0.2011044E+00
         21   -1    0    0  501  502  0.00000000000E+00  0.00000000000E+00  0.81863243050E+01  0.81863243050E+01  0.00000000000E+00 0.  1.
         21   -1    0    0  502  503 -0.00000000000E+00 -0.00000000000E+00 -0.16151820691E+02  0.16151820691E+02  0.00000000000E+00 0. -1.
          5    1    1    2  501    0 -0.24843889531E+01  0.98927654710E+01 -0.13700410817E+01  0.11313974090E+02  0.47000000000E+01 0.  1.
         -5    1    1    2    0  503  0.24843889531E+01 -0.98927654710E+01 -0.65954553045E+01  0.13024170907E+02  0.47000000000E+01 0. -1.
<mgrwt>
<rscale>  2 0.11230717E+02</rscale>
<asrwt>0</asrwt>
<pdfrwt beam="1">  1       21 0.12594345E-02 0.11230717E+02</pdfrwt>
<pdfrwt beam="2">  1       21 0.24848955E-02 0.11230717E+02</pdfrwt>
<totfact> 0.93637942E+08</totfact>
</mgrwt>
</event>
<event>
 4    1  0.4084348E+006  0.5593178E+01  0.7546771E-02  0.2471584E+00
         21   -1    0    0  503  502  0.00000000000E+00  0.00000000000E+00  0.55487504791E+01  0.55487504791E+01  0.00000000000E+00 0. -1.
         21   -1    0    0  501  503 -0.00000000000E+00 -0.00000000000E+00 -0.56863575174E+01  0.56863575174E+01  0.00000000000E+00 0.  1.
          5    1    1    2  501    0 -0.90087626909E+00 -0.28951784835E+01 -0.58705325252E+00  0.56239014950E+01  0.47000000000E+01 0. -1.
         -5    1    1    2    0  502  0.90087626909E+00  0.28951784835E+01  0.44944621422E+00  0.56112065016E+01  0.47000000000E+01 0.  1.
<mgrwt>
<rscale>  2 0.55931777E+01</rscale>
<asrwt>0</asrwt>
<pdfrwt beam="1">  1       21 0.85365392E-03 0.55931777E+01</pdfrwt>
<pdfrwt beam="2">  1       21 0.87482423E-03 0.55931777E+01</pdfrwt>
<totfact> 0.44598859E+09</totfact>
</mgrwt>
</event>
<event>
 4    1  0.4084348E+006  0.5038167E+01  0.7546771E-02  0.2560427E+00
         21   -1    0    0  501  502  0.00000000000E+00  0.00000000000E+00  0.18516800553E+03  0.18516800553E+03  0.00000000000E+00 0.  1.
         21   -1    0    0  502  503 -0.00000000000E+00 -0.00000000000E+00 -0.16181486477E+00  0.16181486477E+00  0.00000000000E+00 0.  1.
          5    1    1    2  501    0 -0.17805917123E+01 -0.35017201366E+00  0.12873129781E+03  0.12882984966E+03  0.47000000000E+01 0.  1.
         -5    1    1    2    0  503  0.17805917123E+01  0.35017201366E+00  0.56274892847E+02  0.56499970727E+02  0.47000000000E+01 0.  1.
<mgrwt>
<rscale>  2 0.50381671E+01</rscale>
<asrwt>0</asrwt>
<pdfrwt beam="1">  1       21 0.28487216E-01 0.50381671E+01</pdfrwt>
<pdfrwt beam="2">  1       21 0.24894743E-04 0.50381671E+01</pdfrwt>
<totfact> 0.26863026E+09</totfact>
</mgrwt>
</event>
<event>
 4    1  0.4084348E+006  0.4786991E+01  0.7546771E-02  0.2606388E+00
         21   -1    0    0  503  502  0.00000000000E+00  0.00000000000E+00  0.74370544522E+02  0.74370544522E+02  0.00000000000E+00 0.  1.
         21   -1    0    0  501  503 -0.00000000000E+00 -0.00000000000E+00 -0.87641408768E+00  0.87641408768E+00  0.00000000000E+00 0.  1.
          5    1    1    2  501    0 -0.16760990097E+00 -0.89285248249E+00  0.64507587177E+01  0.80329052446E+01  0.47000000000E+01 0.  1.
         -5    1    1    2    0  502  0.16760990097E+00  0.89285248249E+00  0.67043371717E+02  0.67214053366E+02  0.47000000000E+01 0.  1.
<mgrwt>
<rscale>  2 0.47869906E+01</rscale>
<asrwt>0</asrwt>
<pdfrwt beam="1">  1       21 0.11441617E-01 0.47869906E+01</pdfrwt>
<pdfrwt beam="2">  1       21 0.13483300E-03 0.47869906E+01</pdfrwt>
<totfact> 0.11512822E+09</totfact>
</mgrwt>
</event>
<event>
 4    1  0.4084348E+006  0.5112053E+01  0.7546771E-02  0.2547652E+00
         21   -1    0    0  503  502  0.00000000000E+00  0.00000000000E+00  0.63016954617E-01  0.63016954617E-01  0.00000000000E+00 0. -1.
         21   -1    0    0  501  503 -0.00000000000E+00 -0.00000000000E+00 -0.45553045832E+03  0.45553045832E+03  0.00000000000E+00 0. -1.
          5    1    1    2  501    0 -0.19612951634E+01  0.44317956127E+00 -0.29593376402E+03  0.29597791433E+03  0.47000000000E+01 0. -1.
         -5    1    1    2    0  502  0.19612951634E+01 -0.44317956127E+00 -0.15953367735E+03  0.15961556094E+03  0.47000000000E+01 0. -1.
<mgrwt>
<rscale>  2 0.51120531E+01</rscale>
<asrwt>0</asrwt>
<pdfrwt beam="1">  1       21 0.96950462E-05 0.51120531E+01</pdfrwt>
<pdfrwt beam="2">  1       21 0.70080669E-01 0.51120531E+01</pdfrwt>
<totfact> 0.19565986E+09</totfact>
</mgrwt>
</event>
<event>
 4    1  0.4084348E+006  0.6731284E+01  0.7546771E-02  0.2328968E+00
         21   -1    0    0  503  502  0.00000000000E+00  0.00000000000E+00  0.18588182161E+02  0.18588182161E+02  0.00000000000E+00 0.  1.
         21   -1    0    0  501  503 -0.00000000000E+00 -0.00000000000E+00 -0.26781135321E+01  0.26781135321E+01  0.00000000000E+00 0.  1.
          5    1    1    2  501    0 -0.33620105846E+01 -0.34521104047E+01  0.11141690126E+02  0.13017197866E+02  0.47000000000E+01 0.  1.
         -5    1    1    2    0  502  0.33620105846E+01  0.34521104047E+01  0.47683785033E+01  0.82490978276E+01  0.47000000000E+01 0.  1.
<mgrwt>
<rscale>  2 0.67312838E+01</rscale>
<asrwt>0</asrwt>
<pdfrwt beam="1">  1       21 0.28597202E-02 0.67312838E+01</pdfrwt>
<pdfrwt beam="2">  1       21 0.41201748E-03 0.67312838E+01</pdfrwt>
<totfact> 0.26698725E+09</totfact>
</mgrwt>
</event>
<event>
 4    1  0.4084348E+006  0.5049004E+01  0.7546771E-02  0.2558533E+00
         21   -1    0    0  503  502  0.00000000000E+00  0.00000000000E+00  0.39787381284E+02  0.39787381284E+02  0.00000000000E+00 0. -1.
         21   -1    0    0  501  503 -0.00000000000E+00 -0.00000000000E+00 -0.89272721551E+00  0.89272721551E+00  0.00000000000E+00 0.  1.
          5    1    1    2  501    0  0.12458188071E+01 -0.13602864481E+01  0.86404063893E+01  0.10007450539E+02  0.47000000000E+01 0.  1.
         -5    1    1    2    0  502 -0.12458188071E+01  0.13602864481E+01  0.30254247679E+02  0.30672657961E+02  0.47000000000E+01 0. -1.
<mgrwt>
<rscale>  2 0.50490042E+01</rscale>
<asrwt>0</asrwt>
<pdfrwt beam="1">  1       21 0.61211342E-02 0.50490042E+01</pdfrwt>
<pdfrwt beam="2">  1       21 0.13734268E-03 0.50490042E+01</pdfrwt>
<totfact> 0.30175177E+09</totfact>
</mgrwt>
</event>
<event>
 4    1  0.4084348E+006  0.6520644E+01  0.7546771E-02  0.2352216E+00
         21   -1    0    0  501  502  0.00000000000E+00  0.00000000000E+00  0.68046776347E+00  0.68046776347E+00  0.00000000000E+00 0. -1.
         21   -1    0    0  502  503 -0.00000000000E+00 -0.00000000000E+00 -0.64984144117E+02  0.64984144117E+02  0.00000000000E+00 0. -1.
          5    1    1    2  501    0 -0.24820660336E+00  0.45130023502E+01 -0.25712771991E+02  0.26526692975E+02  0.47000000000E+01 0. -1.
         -5    1    1    2    0  503  0.24820660336E+00 -0.45130023502E+01 -0.38590904362E+02  0.39137918905E+02  0.47000000000E+01 0. -1.
<mgrwt>
<rscale>  2 0.65206439E+01</rscale>
<asrwt>0</asrwt>
<pdfrwt beam="1">  1       21 0.10468736E-03 0.65206439E+01</pdfrwt>
<pdfrwt beam="2">  1       21 0.99975598E-02 0.65206439E+01</pdfrwt>
<totfact> 0.26059859E+09</totfact>
</mgrwt>
</event>
<event>
 4    1  0.4084348E+006  0.5818282E+01  0.7546771E-02  0.2439692E+00
         21   -1    0    0  503  502  0.00000000000E+00  0.00000000000E+00  0.90037113024E-01  0.90037113024E-01  0.00000000000E+00 0. -1.
         21   -1    0    0  501  503 -0.00000000000E+00 -0.00000000000E+00 -0.40667383077E+03  0.40667383077E+03  0.00000000000E+00 0.  1.
          5    1    1    2  501    0 -0.21766649799E+01  0.26503831668E+01 -0.25916404246E+03  0.25922934500E+03  0.47000000000E+01 0.  1.
         -5    1    1    2    0  502  0.21766649799E+01 -0.26503831668E+01 -0.14741975119E+03  0.14753452289E+03  0.47000000000E+01 0. -1.
<mgrwt>
<rscale>  2 0.58182817E+01</rscale>
<asrwt>0</asrwt>
<pdfrwt beam="1">  1       21 0.13851921E-04 0.58182817E+01</pdfrwt>
<pdfrwt beam="2">  1       21 0.62564944E-01 0.58182817E+01</pdfrwt>
<totfact> 0.16681539E+09</totfact>
</mgrwt>
</event>
<event>
 4    1  0.4084348E+006  0.1295327E+02  0.7546771E-02  0.1937815E+00
         21   -1    0    0  501  502  0.00000000000E+00  0.00000000000E+00  0.37456212191E+00  0.37456212191E+00  0.00000000000E+00 0. -1.
         21   -1    0    0  502  503 -0.00000000000E+00 -0.00000000000E+00 -0.46513459939E+03  0.46513459939E+03  0.00000000000E+00 0.  1.
          5    1    1    2  501    0  0.11073205262E+02  0.48043093889E+01 -0.18764931751E+03  0.18809586286E+03  0.47000000000E+01 0. -1.
         -5    1    1    2    0  503 -0.11073205262E+02 -0.48043093889E+01 -0.27711071976E+03  0.27741329865E+03  0.47000000000E+01 0. -1.
<mgrwt>
<rscale>  2 0.12953272E+02</rscale>
<asrwt>0</asrwt>
<pdfrwt beam="1">  1       21 0.57624977E-04 0.12953272E+02</pdfrwt>
<pdfrwt beam="2">  1       21 0.71559126E-01 0.12953272E+02</pdfrwt>
<totfact> 0.29056447E+08</totfact>
</mgrwt>
</event>
<event>
 4    1  0.4084348E+006  0.8681472E+01  0.7546771E-02  0.2158837E+00
         21   -1    0    0  503  502  0.00000000000E+00  0.00000000000E+00  0.27600389493E+01  0.27600389493E+01  0.00000000000E+00 0. -1.
         21   -1    0    0  501  503 -0.00000000000E+00 -0.00000000000E+00 -0.65632405232E+02  0.65632405232E+02  0.00000000000E+00 0.  1.
          5    1    1    2  501    0 -0.52333596920E+01  0.50882115727E+01 -0.57567616688E+02  0.58218540361E+02  0.47000000000E+01 0.  1.
         -5    1    1    2    0  502  0.52333596920E+01 -0.50882115727E+01 -0.53047495949E+01  0.10173903820E+02  0.47000000000E+01 0. -1.
<mgrwt>
<rscale>  2 0.86814717E+01</rscale>
<asrwt>0</asrwt>
<pdfrwt beam="1">  1       21 0.42462143E-03 0.86814717E+01</pdfrwt>
<pdfrwt beam="2">  1       21 0.10097292E-01 0.86814717E+01</pdfrwt>
<totfact> 0.45173666E+08</totfact>
</mgrwt>
</event>
<event>
 4    1  0.4084348E+006  0.5238481E+01  0.7546771E-02  0.2526510E+00
         21   -1    0    0  503  502  0.00000000000E+00  0.00000000000E+00  0.18425587039E+01  0.18425587039E+01  0.00000000000E+00 0.  1.
         21   -1    0    0  501  503 -0.00000000000E+00 -0.00000000000E+00 -0.54113656917E+02  0.54113656917E+02  0.00000000000E+00 0.  1.
          5    1    1    2  501    0 -0.12437244363E+01  0.19505989785E+01 -0.49954407732E+02  0.50228324069E+02  0.47000000000E+01 0.  1.
         -5    1    1    2    0  502  0.12437244363E+01 -0.19505989785E+01 -0.23166904803E+01  0.57278915518E+01  0.47000000000E+01 0.  1.
<mgrwt>
<rscale>  2 0.52384813E+01</rscale>
<asrwt>0</asrwt>
<pdfrwt beam="1">  1       21 0.28347058E-03 0.52384813E+01</pdfrwt>
<pdfrwt beam="2">  1       21 0.83251777E-02 0.52384813E+01</pdfrwt>
<totfact> 0.74424583E+08</totfact>
</mgrwt>
</event>
<event>
 4    1  0.4084348E+006  0.4967241E+01  0.7546771E-02  0.2572998E+00
         21   -1    0    0  501  502  0.00000000000E+00  0.00000000000E+00  0.47143842223E+01  0.47143842223E+01  0.00000000000E+00 0.  1.
         21   -1    0    0  502  503 -0.00000000000E+00 -0.00000000000E+00 -0.18665332460E+02  0.18665332460E+02  0.00000000000E+00 0.  1.
          5    1    1    2  501    0  0.15967869971E+01  0.18372284000E+00  0.29409806288E+01  0.57725947247E+01  0.47000000000E+01 0.  1.
         -5    1    1    2    0  503 -0.15967869971E+01 -0.18372284000E+00 -0.16891928867E+02  0.17607121958E+02  0.47000000000E+01 0.  1.
<mgrwt>
<rscale>  2 0.49672410E+01</rscale>
<asrwt>0</asrwt>
<pdfrwt beam="1">  1       21 0.72528988E-03 0.49672410E+01</pdfrwt>
<pdfrwt beam="2">  1       21 0.28715896E-02 0.49672410E+01</pdfrwt>
<totfact> 0.92815893E+08</totfact>
</mgrwt>
</event>
<event>
 4    1  0.4084348E+006  0.6801840E+01  0.7546771E-02  0.2321447E+00
         21   -1    0    0  503  502  0.00000000000E+00  0.00000000000E+00  0.33987046575E+02  0.33987046575E+02  0.00000000000E+00 0. -1.
         21   -1    0    0  501  503 -0.00000000000E+00 -0.00000000000E+00 -0.86724288179E+01  0.86724288179E+01  0.00000000000E+00 0.  1.
          5    1    1    2  501    0  0.14495755974E+01  0.46982725106E+01 -0.69270202884E+01  0.97081740854E+01  0.47000000000E+01 0.  1.
         -5    1    1    2    0  502 -0.14495755974E+01 -0.46982725106E+01  0.32241638045E+02  0.32951301307E+02  0.47000000000E+01 0. -1.
<mgrwt>
<rscale>  2 0.68018405E+01</rscale>
<asrwt>0</asrwt>
<pdfrwt beam="1">  1       21 0.52287763E-02 0.68018405E+01</pdfrwt>
<pdfrwt beam="2">  1       21 0.13342198E-02 0.68018405E+01</pdfrwt>
<totfact> 0.20969912E+08</totfact>
</mgrwt>
</event>
<event>
 4    1  0.4084348E+006  0.5123092E+01  0.7546771E-02  0.2545770E+00
         21   -1    0    0  503  502  0.00000000000E+00  0.00000000000E+00  0.16012951221E+01  0.16012951221E+01  0.00000000000E+00 0.  1.
         21   -1    0    0  501  503 -0.00000000000E+00 -0.00000000000E+00 -0.50850481034E+02  0.50850481034E+02  0.00000000000E+00 0.  1.
          5    1    1    2  501    0 -0.19258681011E+01  0.66865899226E+00 -0.46213964989E+02  0.46497060475E+02  0.47000000000E+01 0.  1.
         -5    1    1    2    0  502  0.19258681011E+01 -0.66865899226E+00 -0.30352209222E+01  0.59547156806E+01  0.47000000000E+01 0.  1.
<mgrwt>
<rscale>  2 0.51230921E+01</rscale>
<asrwt>0</asrwt>
<pdfrwt beam="1">  1       21 0.24635308E-03 0.51230921E+01</pdfrwt>
<pdfrwt beam="2">  1       21 0.78231514E-02 0.51230921E+01</pdfrwt>
<totfact> 0.96879849E+08</totfact>
</mgrwt>
</event>
<event>
 4    1  0.4084348E+006  0.5220807E+01  0.7546771E-02  0.2529413E+00
         21   -1    0    0  501  502  0.00000000000E+00  0.00000000000E+00  0.32592548002E+01  0.32592548002E+01  0.00000000000E+00 0.  1.
         21   -1    0    0  502  503 -0.00000000000E+00 -0.00000000000E+00 -0.83909678762E+01  0.83909678762E+01  0.00000000000E+00 0.  1.
          5    1    1    2  501    0  0.64772207245E+00 -0.21788263571E+01 -0.22289664455E+01  0.56767173254E+01  0.47000000000E+01 0.  1.
         -5    1    1    2    0  503 -0.64772207245E+00  0.21788263571E+01 -0.29027466305E+01  0.59735053510E+01  0.47000000000E+01 0.  1.
<mgrwt>
<rscale>  2 0.52208072E+01</rscale>
<asrwt>0</asrwt>
<pdfrwt beam="1">  1       21 0.50142381E-03 0.52208072E+01</pdfrwt>
<pdfrwt beam="2">  1       21 0.12909181E-02 0.52208072E+01</pdfrwt>
<totfact> 0.50484182E+09</totfact>
</mgrwt>
</event>
<event>
 4    1  0.4084348E+006  0.5826595E+01  0.7546771E-02  0.2438554E+00
         21   -1    0    0  503  502  0.00000000000E+00  0.00000000000E+00  0.62934657652E+00  0.62934657652E+00  0.00000000000E+00 0.  1.
         21   -1    0    0  501  503 -0.00000000000E+00 -0.00000000000E+00 -0.93211970485E+02  0.93211970485E+02  0.00000000000E+00 0.  1.
          5    1    1    2  501    0  0.78360780582E+00 -0.33533817183E+01 -0.76745693235E+02  0.76966555336E+02  0.47000000000E+01 0.  1.
         -5    1    1    2    0  502 -0.78360780582E+00  0.33533817183E+01 -0.15836930673E+02  0.16874761725E+02  0.47000000000E+01 0.  1.
<mgrwt>
<rscale>  2 0.58265951E+01</rscale>
<asrwt>0</asrwt>
<pdfrwt beam="1">  1       21 0.96822631E-04 0.58265951E+01</pdfrwt>
<pdfrwt beam="2">  1       21 0.14340291E-01 0.58265951E+01</pdfrwt>
<totfact> 0.15065775E+09</totfact>
</mgrwt>
</event>
<event>
 4    1  0.4084348E+006  0.8347780E+01  0.7546771E-02  0.2183344E+00
         21   -1    0    0  503  502  0.00000000000E+00  0.00000000000E+00  0.22315926442E+01  0.22315926442E+01  0.00000000000E+00 0. -1.
         21   -1    0    0  501  503 -0.00000000000E+00 -0.00000000000E+00 -0.33266712527E+02  0.33266712527E+02  0.00000000000E+00 0. -1.
          5    1    1    2  501    0 -0.42927775995E+01 -0.54006940064E+01 -0.19912787914E+02  0.21591770603E+02  0.47000000000E+01 0. -1.
         -5    1    1    2    0  502  0.42927775995E+01  0.54006940064E+01 -0.11122331968E+02  0.13906534568E+02  0.47000000000E+01 0. -1.
<mgrwt>
<rscale>  2 0.83477803E+01</rscale>
<asrwt>0</asrwt>
<pdfrwt beam="1">  1       21 0.34332199E-03 0.83477803E+01</pdfrwt>
<pdfrwt beam="2">  1       21 0.51179551E-02 0.83477803E+01</pdfrwt>
<totfact> 0.16976920E+09</totfact>
</mgrwt>
</event>
<event>
 4    1  0.4084348E+006  0.4816049E+01  0.7546771E-02  0.2600859E+00
         21   -1    0    0  501  502  0.00000000000E+00  0.00000000000E+00  0.88690193648E+00  0.88690193648E+00  0.00000000000E+00 0.  1.
         21   -1    0    0  502  503 -0.00000000000E+00 -0.00000000000E+00 -0.64513980329E+02  0.64513980329E+02  0.00000000000E+00 0.  1.
          5    1    1    2  501    0 -0.75436077900E+00 -0.73161767296E+00 -0.65975049329E+01  0.81683165918E+01  0.47000000000E+01 0.  1.
         -5    1    1    2    0  503  0.75436077900E+00  0.73161767296E+00 -0.57029573459E+02  0.57232565673E+02  0.47000000000E+01 0.  1.
<mgrwt>
<rscale>  2 0.48160487E+01</rscale>
<asrwt>0</asrwt>
<pdfrwt beam="1">  1       21 0.13644641E-03 0.48160487E+01</pdfrwt>
<pdfrwt beam="2">  1       21 0.99252309E-02 0.48160487E+01</pdfrwt>
<totfact> 0.14134395E+09</totfact>
</mgrwt>
</event>
<event>
 4    1  0.4084348E+006  0.5058893E+01  0.7546771E-02  0.2556811E+00
         21   -1    0    0  503  502  0.00000000000E+00  0.00000000000E+00  0.34937292279E+00  0.34937292279E+00  0.00000000000E+00 0.  1.
         21   -1    0    0  501  503 -0.00000000000E+00 -0.00000000000E+00 -0.91142144682E+02  0.91142144682E+02  0.00000000000E+00 0.  1.
          5    1    1    2  501    0  0.91756400035E+00  0.16310956785E+01 -0.65663577464E+02  0.65858164279E+02  0.47000000000E+01 0.  1.
         -5    1    1    2    0  502 -0.91756400035E+00 -0.16310956785E+01 -0.25129194295E+02  0.25633353326E+02  0.47000000000E+01 0.  1.
<mgrwt>
<rscale>  2 0.50588928E+01</rscale>
<asrwt>0</asrwt>
<pdfrwt beam="1">  1       21 0.53749624E-04 0.50588928E+01</pdfrwt>
<pdfrwt beam="2">  1       21 0.14021883E-01 0.50588928E+01</pdfrwt>
<totfact> 0.30114192E+09</totfact>
</mgrwt>
</event>
<event>
 4    1  0.4084348E+006  0.5242266E+01  0.7546771E-02  0.2525891E+00
         21   -1    0    0  501  502  0.00000000000E+00  0.00000000000E+00  0.28358266513E+00  0.28358266513E+00  0.00000000000E+00 0. -1.
         21   -1    0    0  502  503 -0.00000000000E+00 -0.00000000000E+00 -0.12842598109E+03  0.12842598109E+03  0.00000000000E+00 0. -1.
          5    1    1    2  501    0 -0.12414368402E+01 -0.19621886201E+01 -0.32189937636E+02  0.32614006725E+02  0.47000000000E+01 0. -1.
         -5    1    1    2    0  503  0.12414368402E+01  0.19621886201E+01 -0.95952460784E+02  0.96095557026E+02  0.47000000000E+01 0. -1.
<mgrwt>
<rscale>  2 0.52422657E+01</rscale>
<asrwt>0</asrwt>
<pdfrwt beam="1">  1       21 0.43628086E-04 0.52422657E+01</pdfrwt>
<pdfrwt beam="2">  1       21 0.19757851E-01 0.52422657E+01</pdfrwt>
<totfact> 0.23966179E+09</totfact>
</mgrwt>
</event>
<event>
 4    1  0.4084348E+006  0.4920476E+01  0.7546771E-02  0.2581458E+00
         21   -1    0    0  503  502  0.00000000000E+00  0.00000000000E+00  0.24016277776E+03  0.24016277776E+03  0.00000000000E+00 0. -1.
         21   -1    0    0  501  503 -0.00000000000E+00 -0.00000000000E+00 -0.31624280548E+00  0.31624280548E+00  0.00000000000E+00 0. -1.
          5    1    1    2  501    0 -0.86558559537E+00 -0.11712568464E+01  0.20682148781E+02  0.21259406371E+02  0.47000000000E+01 0. -1.
         -5    1    1    2    0  502  0.86558559537E+00  0.11712568464E+01  0.21916438618E+03  0.21921961420E+03  0.47000000000E+01 0. -1.
<mgrwt>
<rscale>  2 0.49204757E+01</rscale>
<asrwt>0</asrwt>
<pdfrwt beam="1">  1       21 0.36947974E-01 0.49204757E+01</pdfrwt>
<pdfrwt beam="2">  1       21 0.48652931E-04 0.49204757E+01</pdfrwt>
<totfact> 0.70077579E+08</totfact>
</mgrwt>
</event>
<event>
 4    1  0.4084348E+006  0.6135333E+01  0.7546771E-02  0.2398136E+00
         21   -1    0    0  501  502  0.00000000000E+00  0.00000000000E+00  0.33160481398E+00  0.33160481398E+00  0.00000000000E+00 0.  1.
         21   -1    0    0  502  503 -0.00000000000E+00 -0.00000000000E+00 -0.21141981408E+03  0.21141981408E+03  0.00000000000E+00 0. -1.
          5    1    1    2  501    0  0.39422183210E+01  0.10596860276E+00 -0.33495725508E+02  0.34052987269E+02  0.47000000000E+01 0.  1.
         -5    1    1    2    0  503 -0.39422183210E+01 -0.10596860276E+00 -0.17759248376E+03  0.17769843163E+03  0.47000000000E+01 0. -1.
<mgrwt>
<rscale>  2 0.61353333E+01</rscale>
<asrwt>0</asrwt>
<pdfrwt beam="1">  1       21 0.51015936E-04 0.61353333E+01</pdfrwt>
<pdfrwt beam="2">  1       21 0.32526246E-01 0.61353333E+01</pdfrwt>
<totfact> 0.97431045E+08</totfact>
</mgrwt>
</event>
<event>
 4    1  0.4084348E+006  0.5609529E+01  0.7546771E-02  0.2469195E+00
         21   -1    0    0  503  502  0.00000000000E+00  0.00000000000E+00  0.40774164212E+02  0.40774164212E+02  0.00000000000E+00 0. -1.
         21   -1    0    0  501  503 -0.00000000000E+00 -0.00000000000E+00 -0.14725366552E+01  0.14725366552E+01  0.00000000000E+00 0. -1.
          5    1    1    2  501    0 -0.85136141237E+00  0.29414289606E+01  0.50785331241E+01  0.75669227086E+01  0.47000000000E+01 0. -1.
         -5    1    1    2    0  502  0.85136141237E+00 -0.29414289606E+01  0.34223094433E+02  0.34679778159E+02  0.47000000000E+01 0. -1.
<mgrwt>
<rscale>  2 0.56095294E+01</rscale>
<asrwt>0</asrwt>
<pdfrwt beam="1">  1       21 0.62729475E-02 0.56095294E+01</pdfrwt>
<pdfrwt beam="2">  1       21 0.22654413E-03 0.56095294E+01</pdfrwt>
<totfact> 0.16368601E+09</totfact>
</mgrwt>
</event>
<event>
 4    1  0.4084348E+006  0.5793715E+01  0.7546771E-02  0.2443071E+00
         21   -1    0    0  503  502  0.00000000000E+00  0.00000000000E+00  0.54219763426E+02  0.54219763426E+02  0.00000000000E+00 0. -1.
         21   -1    0    0  501  503 -0.00000000000E+00 -0.00000000000E+00 -0.93772995507E+00  0.93772995507E+00  0.00000000000E+00 0. -1.
          5    1    1    2  501    0 -0.32001435231E+01  0.11118541154E+01  0.10564834459E+02  0.12049185254E+02  0.47000000000E+01 0. -1.
         -5    1    1    2    0  502  0.32001435231E+01 -0.11118541154E+01  0.42717199012E+02  0.43108308127E+02  0.47000000000E+01 0. -1.
<mgrwt>
<rscale>  2 0.57937154E+01</rscale>
<asrwt>0</asrwt>
<pdfrwt beam="1">  1       21 0.83414996E-02 0.57937154E+01</pdfrwt>
<pdfrwt beam="2">  1       21 0.14426619E-03 0.57937154E+01</pdfrwt>
<totfact> 0.20206197E+09</totfact>
</mgrwt>
</event>
<event>
 4    1  0.4084348E+006  0.6805819E+01  0.7546771E-02  0.2321027E+00
         21   -1    0    0  501  502  0.00000000000E+00  0.00000000000E+00  0.14115865876E+02  0.14115865876E+02  0.00000000000E+00 0.  1.
         21   -1    0    0  502  503 -0.00000000000E+00 -0.00000000000E+00 -0.32861586868E+01  0.32861586868E+01  0.00000000000E+00 0. -1.
          5    1    1    2  501    0  0.35706968291E+01  0.33881101284E+01  0.50821817814E+01  0.84939824433E+01  0.47000000000E+01 0. -1.
         -5    1    1    2    0  503 -0.35706968291E+01 -0.33881101284E+01  0.57475254076E+01  0.89080421193E+01  0.47000000000E+01 0.  1.
<mgrwt>
<rscale>  2 0.68058185E+01</rscale>
<asrwt>0</asrwt>
<pdfrwt beam="1">  1       21 0.21716716E-02 0.68058185E+01</pdfrwt>
<pdfrwt beam="2">  1       21 0.50556288E-03 0.68058185E+01</pdfrwt>
<totfact> 0.30229990E+09</totfact>
</mgrwt>
</event>
<event>
 4    1  0.4084348E+006  0.5251235E+01  0.7546771E-02  0.2524426E+00
         21   -1    0    0  501  502  0.00000000000E+00  0.00000000000E+00  0.45413832084E+03  0.45413832084E+03  0.00000000000E+00 0.  1.
         21   -1    0    0  502  503 -0.00000000000E+00 -0.00000000000E+00 -0.68458577437E-01  0.68458577437E-01  0.00000000000E+00 0.  1.
          5    1    1    2  501    0 -0.96084051692E+00  0.21359423745E+01  0.15068145979E+03  0.15077293453E+03  0.47000000000E+01 0.  1.
         -5    1    1    2    0  503  0.96084051692E+00 -0.21359423745E+01  0.30338840247E+03  0.30343384488E+03  0.47000000000E+01 0.  1.
<mgrwt>
<rscale>  2 0.52512346E+01</rscale>
<asrwt>0</asrwt>
<pdfrwt beam="1">  1       21 0.69865022E-01 0.52512346E+01</pdfrwt>
<pdfrwt beam="2">  1       21 0.10532452E-04 0.52512346E+01</pdfrwt>
<totfact> 0.18021418E+09</totfact>
</mgrwt>
</event>
<event>
 4    1  0.4084348E+006  0.6127535E+01  0.7546771E-02  0.2399115E+00
         21   -1    0    0  501  502  0.00000000000E+00  0.00000000000E+00  0.41006016305E+01  0.41006016305E+01  0.00000000000E+00 0. -1.
         21   -1    0    0  502  503 -0.00000000000E+00 -0.00000000000E+00 -0.75951479985E+02  0.75951479985E+02  0.00000000000E+00 0.  1.
          5    1    1    2  501    0  0.81100259552E+00  0.38469421773E+01  0.16104577268E+01  0.63356344130E+01  0.47000000000E+01 0. -1.
         -5    1    1    2    0  503 -0.81100259552E+00 -0.38469421773E+01 -0.73461336081E+02  0.73716447202E+02  0.47000000000E+01 0.  1.
<mgrwt>
<rscale>  2 0.61275353E+01</rscale>
<asrwt>0</asrwt>
<pdfrwt beam="1">  1       21 0.63086185E-03 0.61275353E+01</pdfrwt>
<pdfrwt beam="2">  1       21 0.11684842E-01 0.61275353E+01</pdfrwt>
<totfact> 0.16587574E+08</totfact>
</mgrwt>
</event>
<event>
 4    1  0.4084348E+006  0.8424552E+01  0.7546771E-02  0.2177568E+00
         21   -1    0    0  501  502  0.00000000000E+00  0.00000000000E+00  0.64307569107E+02  0.64307569107E+02  0.00000000000E+00 0. -1.
         21   -1    0    0  502  503 -0.00000000000E+00 -0.00000000000E+00 -0.16740978630E+01  0.16740978630E+01  0.00000000000E+00 0.  1.
          5    1    1    2  501    0 -0.27476708361E+01 -0.64291047545E+01  0.50574711676E+02  0.51271576376E+02  0.47000000000E+01 0. -1.
         -5    1    1    2    0  503  0.27476708361E+01  0.64291047545E+01  0.12058759568E+02  0.14710090594E+02  0.47000000000E+01 0.  1.
<mgrwt>
<rscale>  2 0.84245524E+01</rscale>
<asrwt>0</asrwt>
<pdfrwt beam="1">  1       21 0.98934703E-02 0.84245524E+01</pdfrwt>
<pdfrwt beam="2">  1       21 0.25755357E-03 0.84245524E+01</pdfrwt>
<totfact> 0.92389562E+08</totfact>
</mgrwt>
</event>
<event>
 4    1  0.4084348E+006  0.5601506E+01  0.7546771E-02  0.2470366E+00
         21   -1    0    0  503  502  0.00000000000E+00  0.00000000000E+00  0.19141886182E+00  0.19141886182E+00  0.00000000000E+00 0. -1.
         21   -1    0    0  501  503 -0.00000000000E+00 -0.00000000000E+00 -0.16396530724E+03  0.16396530724E+03  0.00000000000E+00 0.  1.
          5    1    1    2  501    0 -0.30462439112E+01 -0.85224134429E-01 -0.83291231314E+02  0.83479375171E+02  0.47000000000E+01 0.  1.
         -5    1    1    2    0  502  0.30462439112E+01  0.85224134429E-01 -0.80482657059E+02  0.80677350926E+02  0.47000000000E+01 0.  1.
<mgrwt>
<rscale>  2 0.56015056E+01</rscale>
<asrwt>0</asrwt>
<pdfrwt beam="1">  1       21 0.29449145E-04 0.56015056E+01</pdfrwt>
<pdfrwt beam="2">  1       21 0.25225355E-01 0.56015056E+01</pdfrwt>
<totfact> 0.28858046E+09</totfact>
</mgrwt>
</event>
<event>
 4    1  0.4084348E+006  0.7078108E+01  0.7546771E-02  0.2293191E+00
         21   -1    0    0  503  502  0.00000000000E+00  0.00000000000E+00  0.59226325061E+02  0.59226325061E+02  0.00000000000E+00 0.  1.
         21   -1    0    0  501  503 -0.00000000000E+00 -0.00000000000E+00 -0.10686603663E+01  0.10686603663E+01  0.00000000000E+00 0.  1.
          5    1    1    2  501    0  0.48075427818E+01 -0.22129508460E+01  0.15314690303E+02  0.16871258345E+02  0.47000000000E+01 0.  1.
         -5    1    1    2    0  502 -0.48075427818E+01  0.22129508460E+01  0.42842974391E+02  0.43423727083E+02  0.47000000000E+01 0.  1.
<mgrwt>
<rscale>  2 0.70781084E+01</rscale>
<asrwt>0</asrwt>
<pdfrwt beam="1">  1       21 0.91117398E-02 0.70781084E+01</pdfrwt>
<pdfrwt beam="2">  1       21 0.16440933E-03 0.70781084E+01</pdfrwt>
<totfact> 0.17337261E+09</totfact>
</mgrwt>
</event>
<event>
 4    1  0.4084348E+006  0.4719206E+01  0.7546771E-02  0.2619514E+00
         21   -1    0    0  503  502  0.00000000000E+00  0.00000000000E+00  0.12841117262E+02  0.12841117262E+02  0.00000000000E+00 0.  1.
         21   -1    0    0  501  503 -0.00000000000E+00 -0.00000000000E+00 -0.30174739795E+01  0.30174739795E+01  0.00000000000E+00 0.  1.
          5    1    1    2  501    0 -0.26341463968E+00  0.33394854441E+00 -0.25886530698E+00  0.47263008950E+01  0.47000000000E+01 0.  1.
         -5    1    1    2    0  502  0.26341463968E+00 -0.33394854441E+00  0.10082508590E+02  0.11132290347E+02  0.47000000000E+01 0.  1.
<mgrwt>
<rscale>  2 0.47192064E+01</rscale>
<asrwt>0</asrwt>
<pdfrwt beam="1">  1       21 0.19755565E-02 0.47192064E+01</pdfrwt>
<pdfrwt beam="2">  1       21 0.46422677E-03 0.47192064E+01</pdfrwt>
<totfact> 0.27711885E+09</totfact>
</mgrwt>
</event>
<event>
 4    1  0.4084348E+006  0.6931880E+01  0.7546771E-02  0.2307917E+00
         21   -1    0    0  503  502  0.00000000000E+00  0.00000000000E+00  0.10597466830E+03  0.10597466830E+03  0.00000000000E+00 0. -1.
         21   -1    0    0  501  503 -0.00000000000E+00 -0.00000000000E+00 -0.22579324037E+01  0.22579324037E+01  0.00000000000E+00 0. -1.
          5    1    1    2  501    0 -0.49437237118E+01 -0.12331068465E+01  0.34798394907E+01  0.77563032119E+01  0.47000000000E+01 0. -1.
         -5    1    1    2    0  502  0.49437237118E+01  0.12331068465E+01  0.10023689641E+03  0.10047629749E+03  0.47000000000E+01 0. -1.
<mgrwt>
<rscale>  2 0.69318797E+01</rscale>
<asrwt>0</asrwt>
<pdfrwt beam="1">  1       21 0.16303791E-01 0.69318797E+01</pdfrwt>
<pdfrwt beam="2">  1       21 0.34737430E-03 0.69318797E+01</pdfrwt>
<totfact> 0.24404306E+08</totfact>
</mgrwt>
</event>
<event>
 4    1  0.4084348E+006  0.7978068E+01  0.7546771E-02  0.2212398E+00
         21   -1    0    0  503  502  0.00000000000E+00  0.00000000000E+00  0.43552988656E+02  0.43552988656E+02  0.00000000000E+00 0. -1.
         21   -1    0    0  501  503 -0.00000000000E+00 -0.00000000000E+00 -0.17418261931E+01  0.17418261931E+01  0.00000000000E+00 0. -1.
          5    1    1    2  501    0  0.64466056825E+01 -0.29164268160E-01  0.11818940338E+02  0.14259625735E+02  0.47000000000E+01 0. -1.
         -5    1    1    2    0  502 -0.64466056825E+01  0.29164268160E-01  0.29992222124E+02  0.31035189114E+02  0.47000000000E+01 0. -1.
<mgrwt>
<rscale>  2 0.79780684E+01</rscale>
<asrwt>0</asrwt>
<pdfrwt beam="1">  1       21 0.67004590E-02 0.79780684E+01</pdfrwt>
<pdfrwt beam="2">  1       21 0.26797329E-03 0.79780684E+01</pdfrwt>
<totfact> 0.15441924E+09</totfact>
</mgrwt>
</event>
<event>
 4    1  0.4084348E+006  0.5811350E+01  0.7546771E-02  0.2440643E+00
         21   -1    0    0  503  502  0.00000000000E+00  0.00000000000E+00  0.67923754749E+01  0.67923754749E+01  0.00000000000E+00 0.  1.
         21   -1    0    0  501  503 -0.00000000000E+00 -0.00000000000E+00 -0.94910869750E+01  0.94910869750E+01  0.00000000000E+00 0.  1.
          5    1    1    2  501    0  0.31111041401E+01  0.14152115444E+01 -0.69673774757E+01  0.90728243438E+01  0.47000000000E+01 0.  1.
         -5    1    1    2    0  502 -0.31111041401E+01 -0.14152115444E+01  0.42686659755E+01  0.72106381060E+01  0.47000000000E+01 0.  1.
<mgrwt>
<rscale>  2 0.58113503E+01</rscale>
<asrwt>0</asrwt>
<pdfrwt beam="1">  1       21 0.10449808E-02 0.58113503E+01</pdfrwt>
<pdfrwt beam="2">  1       21 0.14601672E-02 0.58113503E+01</pdfrwt>
<totfact> 0.16872346E+09</totfact>
</mgrwt>
</event>
<event>
 4    1  0.4084348E+006  0.6955539E+01  0.7546771E-02  0.2305500E+00
         21   -1    0    0  503  502  0.00000000000E+00  0.00000000000E+00  0.66921509321E+02  0.66921509321E+02  0.00000000000E+00 0.  1.
         21   -1    0    0  501  503 -0.00000000000E+00 -0.00000000000E+00 -0.14758379568E+02  0.14758379568E+02  0.00000000000E+00 0. -1.
          5    1    1    2  501    0  0.45658522486E+00 -0.51069605563E+01 -0.13745562266E+02  0.15405193871E+02  0.47000000000E+01 0. -1.
         -5    1    1    2    0  502 -0.45658522486E+00  0.51069605563E+01  0.65908692018E+02  0.66274695018E+02  0.47000000000E+01 0.  1.
<mgrwt>
<rscale>  2 0.69555385E+01</rscale>
<asrwt>0</asrwt>
<pdfrwt beam="1">  1       21 0.10295617E-01 0.69555385E+01</pdfrwt>
<pdfrwt beam="2">  1       21 0.22705200E-02 0.69555385E+01</pdfrwt>
<totfact> 0.35104061E+07</totfact>
</mgrwt>
</event>
<event>
 4    1  0.4084348E+006  0.5659937E+01  0.7546771E-02  0.2461903E+00
         21   -1    0    0  503  502  0.00000000000E+00  0.00000000000E+00  0.79301254381E+00  0.79301254381E+00  0.00000000000E+00 0.  1.
         21   -1    0    0  501  503 -0.00000000000E+00 -0.00000000000E+00 -0.40856134170E+02  0.40856134170E+02  0.00000000000E+00 0.  1.
          5    1    1    2  501    0  0.12648209453E+01  0.28887905945E+01 -0.22240492507E+02  0.22949387575E+02  0.47000000000E+01 0.  1.
         -5    1    1    2    0  502 -0.12648209453E+01 -0.28887905945E+01 -0.17822629119E+02  0.18699759139E+02  0.47000000000E+01 0.  1.
<mgrwt>
<rscale>  2 0.56599367E+01</rscale>
<asrwt>0</asrwt>
<pdfrwt beam="1">  1       21 0.12200194E-03 0.56599367E+01</pdfrwt>
<pdfrwt beam="2">  1       21 0.62855588E-02 0.56599367E+01</pdfrwt>
<totfact> 0.37948353E+09</totfact>
</mgrwt>
</event>
<event>
 4    1  0.4084348E+006  0.7530061E+01  0.7546771E-02  0.2250657E+00
         21   -1    0    0  503  502  0.00000000000E+00  0.00000000000E+00  0.72688433738E+01  0.72688433738E+01  0.00000000000E+00 0.  1.
         21   -1    0    0  501  503 -0.00000000000E+00 -0.00000000000E+00 -0.25512156506E+02  0.25512156506E+02  0.00000000000E+00 0.  1.
          5    1    1    2  501    0  0.33082790624E+01 -0.48648851361E+01 -0.22778369274E+02  0.23990746644E+02  0.47000000000E+01 0.  1.
         -5    1    1    2    0  502 -0.33082790624E+01  0.48648851361E+01  0.45350561419E+01  0.87902532359E+01  0.47000000000E+01 0.  1.
<mgrwt>
<rscale>  2 0.75300609E+01</rscale>
<asrwt>0</asrwt>
<pdfrwt beam="1">  1       21 0.11182836E-02 0.75300609E+01</pdfrwt>
<pdfrwt beam="2">  1       21 0.39249472E-02 0.75300609E+01</pdfrwt>
<totfact> 0.44288057E+08</totfact>
</mgrwt>
</event>
<event>
 4    1  0.4084348E+006  0.6996525E+01  0.7546771E-02  0.2301344E+00
         21   -1    0    0  501  502  0.00000000000E+00  0.00000000000E+00  0.26984171045E+00  0.26984171045E+00  0.00000000000E+00 0.  1.
         21   -1    0    0  502  503 -0.00000000000E+00 -0.00000000000E+00 -0.23315015872E+03  0.23315015872E+03  0.00000000000E+00 0.  1.
          5    1    1    2  501    0  0.17538925897E+01 -0.48770090736E+01 -0.61459003727E+02  0.61855965726E+02  0.47000000000E+01 0.  1.
         -5    1    1    2    0  503 -0.17538925897E+01  0.48770090736E+01 -0.17142131328E+03  0.17156403470E+03  0.47000000000E+01 0.  1.
<mgrwt>
<rscale>  2 0.69965246E+01</rscale>
<asrwt>0</asrwt>
<pdfrwt beam="1">  1       21 0.41514051E-04 0.69965246E+01</pdfrwt>
<pdfrwt beam="2">  1       21 0.35869306E-01 0.69965246E+01</pdfrwt>
<totfact> 0.11918506E+09</totfact>
</mgrwt>
</event>
<event>
 4    1  0.4084348E+006  0.5701783E+01  0.7546771E-02  0.2455932E+00
         21   -1    0    0  501  502  0.00000000000E+00  0.00000000000E+00  0.12617845715E+03  0.12617845715E+03  0.00000000000E+00 0. -1.
         21   -1    0    0  502  503 -0.00000000000E+00 -0.00000000000E+00 -0.43174038673E+00  0.43174038673E+00  0.00000000000E+00 0.  1.
          5    1    1    2  501    0 -0.17505977155E+01 -0.27121467038E+01  0.10307189777E+03  0.10322948436E+03  0.47000000000E+01 0. -1.
         -5    1    1    2    0  503  0.17505977155E+01  0.27121467038E+01  0.22674818998E+02  0.23380713178E+02  0.47000000000E+01 0.  1.
<mgrwt>
<rscale>  2 0.57017832E+01</rscale>
<asrwt>0</asrwt>
<pdfrwt beam="1">  1       21 0.19412041E-01 0.57017832E+01</pdfrwt>
<pdfrwt beam="2">  1       21 0.66421698E-04 0.57017832E+01</pdfrwt>
<totfact> 0.15157700E+09</totfact>
</mgrwt>
</event>
<event>
 4    1  0.4084348E+006  0.4733010E+01  0.7546771E-02  0.2616815E+00
         21   -1    0    0  503  502  0.00000000000E+00  0.00000000000E+00  0.88254148017E+00  0.88254148017E+00  0.00000000000E+00 0. -1.
         21   -1    0    0  501  503 -0.00000000000E+00 -0.00000000000E+00 -0.45296565834E+02  0.45296565834E+02  0.00000000000E+00 0. -1.
          5    1    1    2  501    0  0.16412493757E+00 -0.53333183276E+00 -0.37516459877E+02  0.37813835319E+02  0.47000000000E+01 0. -1.
         -5    1    1    2    0  502 -0.16412493757E+00  0.53333183276E+00 -0.68975644768E+01  0.83652719950E+01  0.47000000000E+01 0. -1.
<mgrwt>
<rscale>  2 0.47330096E+01</rscale>
<asrwt>0</asrwt>
<pdfrwt beam="1">  1       21 0.13577565E-03 0.47330096E+01</pdfrwt>
<pdfrwt beam="2">  1       21 0.69687008E-02 0.47330096E+01</pdfrwt>
<totfact> 0.23696276E+09</totfact>
</mgrwt>
</event>
<event>
 4    1  0.4084348E+006  0.7437676E+01  0.7546771E-02  0.2259008E+00
         21   -1    0    0  503  502  0.00000000000E+00  0.00000000000E+00  0.77064841342E+02  0.77064841342E+02  0.00000000000E+00 0. -1.
         21   -1    0    0  501  503 -0.00000000000E+00 -0.00000000000E+00 -0.18568012833E+01  0.18568012833E+01  0.00000000000E+00 0. -1.
          5    1    1    2  501    0  0.32827456247E+00 -0.57551067192E+01  0.66981569709E+01  0.10009211974E+02  0.47000000000E+01 0. -1.
         -5    1    1    2    0  502 -0.32827456247E+00  0.57551067192E+01  0.68509883088E+02  0.68912430651E+02  0.47000000000E+01 0. -1.
<mgrwt>
<rscale>  2 0.74376755E+01</rscale>
<asrwt>0</asrwt>
<pdfrwt beam="1">  1       21 0.11856127E-01 0.74376755E+01</pdfrwt>
<pdfrwt beam="2">  1       21 0.28566180E-03 0.74376755E+01</pdfrwt>
<totfact> 0.55575840E+08</totfact>
</mgrwt>
</event>
<event>
 4    1  0.4084348E+006  0.1187561E+02  0.7546771E-02  0.1981717E+00
         21   -1    0    0  501  502  0.00000000000E+00  0.00000000000E+00  0.18017401381E+00  0.18017401381E+00  0.00000000000E+00 0.  1.
         21   -1    0    0  502  503 -0.00000000000E+00 -0.00000000000E+00 -0.79464462203E+03  0.79464462203E+03  0.00000000000E+00 0. -1.
          5    1    1    2  501    0  0.62288239866E+01  0.89521979677E+01 -0.34859789105E+03  0.34880011431E+03  0.47000000000E+01 0. -1.
         -5    1    1    2    0  503 -0.62288239866E+01 -0.89521979677E+01 -0.44586655696E+03  0.44602468173E+03  0.47000000000E+01 0.  1.
<mgrwt>
<rscale>  2 0.11875609E+02</rscale>
<asrwt>0</asrwt>
<pdfrwt beam="1">  1       21 0.27719106E-04 0.11875609E+02</pdfrwt>
<pdfrwt beam="2">  1       21 0.12225290E+00 0.11875609E+02</pdfrwt>
<totfact> 0.25065326E+08</totfact>
</mgrwt>
</event>
<event>
 4    1  0.4084348E+006  0.5350579E+01  0.7546771E-02  0.2508482E+00
         21   -1    0    0  503  502  0.00000000000E+00  0.00000000000E+00  0.51899617192E+01  0.51899617192E+01  0.00000000000E+00 0. -1.
         21   -1    0    0  501  503 -0.00000000000E+00 -0.00000000000E+00 -0.61053282659E+01  0.61053282659E+01  0.00000000000E+00 0. -1.
          5    1    1    2  501    0 -0.46291024979E+00 -0.25148389228E+01 -0.22120872694E+01  0.57898213094E+01  0.47000000000E+01 0. -1.
         -5    1    1    2    0  502  0.46291024979E+00  0.25148389228E+01  0.12967207227E+01  0.55054686758E+01  0.47000000000E+01 0. -1.
<mgrwt>
<rscale>  2 0.53505795E+01</rscale>
<asrwt>0</asrwt>
<pdfrwt beam="1">  1       21 0.79845565E-03 0.53505795E+01</pdfrwt>
<pdfrwt beam="2">  1       21 0.93928128E-03 0.53505795E+01</pdfrwt>
<totfact> 0.42452768E+09</totfact>
</mgrwt>
</event>
<event>
 4    1  0.4084348E+006  0.7828583E+01  0.7546771E-02  0.2224770E+00
         21   -1    0    0  501  502  0.00000000000E+00  0.00000000000E+00  0.42969959956E+00  0.42969959956E+00  0.00000000000E+00 0. -1.
         21   -1    0    0  502  503 -0.00000000000E+00 -0.00000000000E+00 -0.14533487438E+03  0.14533487438E+03  0.00000000000E+00 0.  1.
          5    1    1    2  501    0 -0.57378959379E+01  0.25046482249E+01 -0.62504007733E+02  0.62992362197E+02  0.47000000000E+01 0. -1.
         -5    1    1    2    0  503  0.57378959379E+01 -0.25046482249E+01 -0.82401167045E+02  0.82772211780E+02  0.47000000000E+01 0.  1.
<mgrwt>
<rscale>  2 0.78285830E+01</rscale>
<asrwt>0</asrwt>
<pdfrwt beam="1">  1       21 0.66107492E-04 0.78285830E+01</pdfrwt>
<pdfrwt beam="2">  1       21 0.22359258E-01 0.78285830E+01</pdfrwt>
<totfact> 0.15311189E+09</totfact>
</mgrwt>
</event>
<event>
 4    1  0.4084348E+006  0.7806572E+01  0.7546771E-02  0.2226624E+00
         21   -1    0    0  503  502  0.00000000000E+00  0.00000000000E+00  0.77788302823E-01  0.77788302823E-01  0.00000000000E+00 0. -1.
         21   -1    0    0  501  503 -0.00000000000E+00 -0.00000000000E+00 -0.16472815408E+04  0.16472815408E+04  0.00000000000E+00 0.  1.
          5    1    1    2  501    0  0.51774540552E+01 -0.34708114224E+01 -0.14200753922E+04  0.14200968495E+04  0.47000000000E+01 0.  1.
         -5    1    1    2    0  502 -0.51774540552E+01  0.34708114224E+01 -0.22712836038E+03  0.22726247964E+03  0.47000000000E+01 0. -1.
<mgrwt>
<rscale>  2 0.78065717E+01</rscale>
<asrwt>0</asrwt>
<pdfrwt beam="1">  1       21 0.11967144E-04 0.78065717E+01</pdfrwt>
<pdfrwt beam="2">  1       21 0.25343402E+00 0.78065717E+01</pdfrwt>
<totfact> 0.12331597E+08</totfact>
</mgrwt>
</event>
<event>
 4    1  0.4084348E+006  0.1015419E+02  0.7546771E-02  0.2066317E+00
         21   -1    0    0  501  502  0.00000000000E+00  0.00000000000E+00  0.29384312683E+03  0.29384312683E+03  0.00000000000E+00 0. -1.
         21   -1    0    0  502  503 -0.00000000000E+00 -0.00000000000E+00 -0.64177449289E+01  0.64177449289E+01  0.00000000000E+00 0. -1.
          5    1    1    2  501    0  0.90004847165E+01  0.94233691536E-01  0.28968121069E+03  0.28985912342E+03  0.47000000000E+01 0. -1.
         -5    1    1    2    0  503 -0.90004847165E+01 -0.94233691536E-01 -0.22558287803E+01  0.10401748344E+02  0.47000000000E+01 0. -1.
<mgrwt>
<rscale>  2 0.10154192E+02</rscale>
<asrwt>0</asrwt>
<pdfrwt beam="1">  1       21 0.45206624E-01 0.10154192E+02</pdfrwt>
<pdfrwt beam="2">  1       21 0.98734560E-03 0.10154192E+02</pdfrwt>
<totfact> 0.11564879E+07</totfact>
</mgrwt>
</event>
<event>
 4    1  0.4084348E+006  0.5267534E+01  0.7546771E-02  0.2521775E+00
         21   -1    0    0  501  502  0.00000000000E+00  0.00000000000E+00  0.20607534026E+01  0.20607534026E+01  0.00000000000E+00 0.  1.
         21   -1    0    0  502  503 -0.00000000000E+00 -0.00000000000E+00 -0.99857919263E+02  0.99857919263E+02  0.00000000000E+00 0. -1.
          5    1    1    2  501    0  0.23090881195E+01  0.57011012468E+00 -0.14991701513E+01  0.54767165930E+01  0.47000000000E+01 0.  1.
         -5    1    1    2    0  503 -0.23090881195E+01 -0.57011012468E+00 -0.96297995709E+02  0.96441956072E+02  0.47000000000E+01 0. -1.
<mgrwt>
<rscale>  2 0.52675339E+01</rscale>
<asrwt>0</asrwt>
<pdfrwt beam="1">  1       21 0.31703902E-03 0.52675339E+01</pdfrwt>
<pdfrwt beam="2">  1       21 0.15362755E-01 0.52675339E+01</pdfrwt>
<totfact> 0.25120423E+08</totfact>
</mgrwt>
</event>
<event>
 4    1  0.4084348E+006  0.5403782E+01  0.7546771E-02  0.2500150E+00
         21   -1    0    0  501  502  0.00000000000E+00  0.00000000000E+00  0.16833634690E+01  0.16833634690E+01  0.00000000000E+00 0. -1.
         21   -1    0    0  502  503 -0.00000000000E+00 -0.00000000000E+00 -0.27877249558E+02  0.27877249558E+02  0.00000000000E+00 0.  1.
          5    1    1    2  501    0  0.22863470659E+01  0.13723993914E+01 -0.40128151731E+01  0.67307910834E+01  0.47000000000E+01 0. -1.
         -5    1    1    2    0  503 -0.22863470659E+01 -0.13723993914E+01 -0.22181070916E+02  0.22829821943E+02  0.47000000000E+01 0.  1.
<mgrwt>
<rscale>  2 0.54037823E+01</rscale>
<asrwt>0</asrwt>
<pdfrwt beam="1">  1       21 0.25897902E-03 0.54037823E+01</pdfrwt>
<pdfrwt beam="2">  1       21 0.42888072E-02 0.54037823E+01</pdfrwt>
<totfact> 0.23128435E+09</totfact>
</mgrwt>
</event>
<event>
 4    1  0.4084348E+006  0.6438404E+01  0.7546771E-02  0.2361633E+00
         21   -1    0    0  501  502  0.00000000000E+00  0.00000000000E+00  0.47700088491E+00  0.47700088491E+00  0.00000000000E+00 0.  1.
         21   -1    0    0  502  503 -0.00000000000E+00 -0.00000000000E+00 -0.93241719469E+02  0.93241719469E+02  0.00000000000E+00 0. -1.
          5    1    1    2  501    0  0.40548976047E+01 -0.17090504111E+01 -0.34165073112E+02  0.34766438826E+02  0.47000000000E+01 0.  1.
         -5    1    1    2    0  503 -0.40548976047E+01  0.17090504111E+01 -0.58599645473E+02  0.58952281528E+02  0.47000000000E+01 0. -1.
<mgrwt>
<rscale>  2 0.64384041E+01</rscale>
<asrwt>0</asrwt>
<pdfrwt beam="1">  1       21 0.73384754E-04 0.64384041E+01</pdfrwt>
<pdfrwt beam="2">  1       21 0.14344879E-01 0.64384041E+01</pdfrwt>
<totfact> 0.23688969E+09</totfact>
</mgrwt>
</event>
<event>
 4    1  0.4084348E+006  0.1330134E+02  0.7546771E-02  0.1924812E+00
         21   -1    0    0  503  502  0.00000000000E+00  0.00000000000E+00  0.17661542460E+03  0.17661542460E+03  0.00000000000E+00 0. -1.
         21   -1    0    0  501  503 -0.00000000000E+00 -0.00000000000E+00 -0.51337290526E+01  0.51337290526E+01  0.00000000000E+00 0.  1.
          5    1    1    2  501    0  0.94808125576E+01  0.80591412800E+01  0.42132457113E+01  0.13952670151E+02  0.47000000000E+01 0.  1.
         -5    1    1    2    0  502 -0.94808125576E+01 -0.80591412800E+01  0.16726844984E+03  0.16779648351E+03  0.47000000000E+01 0. -1.
<mgrwt>
<rscale>  2 0.13301337E+02</rscale>
<asrwt>0</asrwt>
<pdfrwt beam="1">  1       21 0.27171599E-01 0.13301337E+02</pdfrwt>
<pdfrwt beam="2">  1       21 0.78980460E-03 0.13301337E+02</pdfrwt>
<totfact> 0.43570655E+07</totfact>
</mgrwt>
</event>
<event>
 4    1  0.4084348E+006  0.5860800E+01  0.7546771E-02  0.2433901E+00
         21   -1    0    0  503  502  0.00000000000E+00  0.00000000000E+00  0.15549578749E+03  0.15549578749E+03  0.00000000000E+00 0. -1.
         21   -1    0    0  501  503 -0.00000000000E+00 -0.00000000000E+00 -0.39526449567E+00  0.39526449567E+00  0.00000000000E+00 0. -1.
          5    1    1    2  501    0 -0.19511219296E+01  0.29072486176E+01  0.25780435683E+02  0.26438226781E+02  0.47000000000E+01 0. -1.
         -5    1    1    2    0  502  0.19511219296E+01 -0.29072486176E+01  0.12932008731E+03  0.12945282520E+03  0.47000000000E+01 0. -1.
<mgrwt>
<rscale>  2 0.58607995E+01</rscale>
<asrwt>0</asrwt>
<pdfrwt beam="1">  1       21 0.23922380E-01 0.58607995E+01</pdfrwt>
<pdfrwt beam="2">  1       21 0.60810046E-04 0.58607995E+01</pdfrwt>
<totfact> 0.12425604E+09</totfact>
</mgrwt>
</event>
<event>
 4    1  0.4084348E+006  0.1301494E+02  0.7546771E-02  0.1935473E+00
         21   -1    0    0  501  502  0.00000000000E+00  0.00000000000E+00  0.28515449353E+01  0.28515449353E+01  0.00000000000E+00 0. -1.
         21   -1    0    0  502  503 -0.00000000000E+00 -0.00000000000E+00 -0.82088177417E+02  0.82088177417E+02  0.00000000000E+00 0. -1.
          5    1    1    2  501    0 -0.84550045286E+01  0.87069813425E+01 -0.17291986990E+02  0.21642583943E+02  0.47000000000E+01 0. -1.
         -5    1    1    2    0  503  0.84550045286E+01 -0.87069813425E+01 -0.61944645492E+02  0.63297138409E+02  0.47000000000E+01 0. -1.
<mgrwt>
<rscale>  2 0.13014939E+02</rscale>
<asrwt>0</asrwt>
<pdfrwt beam="1">  1       21 0.43869929E-03 0.13014939E+02</pdfrwt>
<pdfrwt beam="2">  1       21 0.12628949E-01 0.13014939E+02</pdfrwt>
<totfact> 0.36975729E+08</totfact>
</mgrwt>
</event>
<event>
 4    1  0.4084348E+006  0.6111874E+01  0.7546771E-02  0.2401087E+00
         21   -1    0    0  501  502  0.00000000000E+00  0.00000000000E+00  0.12042013233E+03  0.12042013233E+03  0.00000000000E+00 0.  1.
         21   -1    0    0  502  503 -0.00000000000E+00 -0.00000000000E+00 -0.11520337775E+01  0.11520337775E+01  0.00000000000E+00 0. -1.
          5    1    1    2  501    0  0.29914833121E+01 -0.25131710685E+01  0.11159574052E+03  0.11176298271E+03  0.47000000000E+01 0.  1.
         -5    1    1    2    0  503 -0.29914833121E+01  0.25131710685E+01  0.76723580345E+01  0.98091834031E+01  0.47000000000E+01 0. -1.
<mgrwt>
<rscale>  2 0.61118738E+01</rscale>
<asrwt>0</asrwt>
<pdfrwt beam="1">  1       21 0.18526164E-01 0.61118738E+01</pdfrwt>
<pdfrwt beam="2">  1       21 0.17723606E-03 0.61118738E+01</pdfrwt>
<totfact> 0.46039931E+08</totfact>
</mgrwt>
</event>
<event>
 4    1  0.4084348E+006  0.4864297E+01  0.7546771E-02  0.2591805E+00
         21   -1    0    0  501  502  0.00000000000E+00  0.00000000000E+00  0.15633763597E+01  0.15633763597E+01  0.00000000000E+00 0. -1.
         21   -1    0    0  502  503 -0.00000000000E+00 -0.00000000000E+00 -0.15899148975E+02  0.15899148975E+02  0.00000000000E+00 0. -1.
          5    1    1    2  501    0  0.62935436024E-01 -0.12519662912E+01 -0.52534654221E+01  0.71596284404E+01  0.47000000000E+01 0. -1.
         -5    1    1    2    0  503 -0.62935436024E-01  0.12519662912E+01 -0.90823071934E+01  0.10302896895E+02  0.47000000000E+01 0. -1.
<mgrwt>
<rscale>  2 0.48642965E+01</rscale>
<asrwt>0</asrwt>
<pdfrwt beam="1">  1       21 0.24051945E-03 0.48642965E+01</pdfrwt>
<pdfrwt beam="2">  1       21 0.24460228E-02 0.48642965E+01</pdfrwt>
<totfact> 0.51625784E+09</totfact>
</mgrwt>
</event>
<event>
 4    1  0.4084348E+006  0.5568087E+01  0.7546771E-02  0.2475274E+00
         21   -1    0    0  501  502  0.00000000000E+00  0.00000000000E+00  0.19392941830E+03  0.19392941830E+03  0.00000000000E+00 0. -1.
         21   -1    0    0  502  503 -0.00000000000E+00 -0.00000000000E+00 -0.21466016906E+00  0.21466016906E+00  0.00000000000E+00 0.  1.
          5    1    1    2  501    0  0.83032666059E-01 -0.29844090887E+01  0.14589933462E+03  0.14600554590E+03  0.47000000000E+01 0. -1.
         -5    1    1    2    0  503 -0.83032666059E-01  0.29844090887E+01  0.47815423515E+02  0.48138532569E+02  0.47000000000E+01 0.  1.
<mgrwt>
<rscale>  2 0.55680869E+01</rscale>
<asrwt>0</asrwt>
<pdfrwt beam="1">  1       21 0.29835155E-01 0.55680869E+01</pdfrwt>
<pdfrwt beam="2">  1       21 0.33024796E-04 0.55680869E+01</pdfrwt>
<totfact> 0.18665032E+09</totfact>
</mgrwt>
</event>
<event>
 4    1  0.4084348E+006  0.7527694E+01  0.7546771E-02  0.2250868E+00
         21   -1    0    0  501  502  0.00000000000E+00  0.00000000000E+00  0.42259730557E+03  0.42259730557E+03  0.00000000000E+00 0.  1.
         21   -1    0    0  502  503 -0.00000000000E+00 -0.00000000000E+00 -0.21588555308E+00  0.21588555308E+00  0.00000000000E+00 0.  1.
          5    1    1    2  501    0  0.21636013224E+01 -0.54676327059E+01  0.34131876152E+03  0.34140176206E+03  0.47000000000E+01 0.  1.
         -5    1    1    2    0  503 -0.21636013224E+01  0.54676327059E+01  0.81062658506E+02  0.81411429063E+02  0.47000000000E+01 0.  1.
<mgrwt>
<rscale>  2 0.75276941E+01</rscale>
<asrwt>0</asrwt>
<pdfrwt beam="1">  1       21 0.65014308E-01 0.75276941E+01</pdfrwt>
<pdfrwt beam="2">  1       21 0.33213500E-04 0.75276941E+01</pdfrwt>
<totfact> 0.57166086E+08</totfact>
</mgrwt>
</event>
<event>
 4    1  0.4084348E+006  0.5184848E+01  0.7546771E-02  0.2535371E+00
         21   -1    0    0  503  502  0.00000000000E+00  0.00000000000E+00  0.61672769704E+02  0.61672769704E+02  0.00000000000E+00 0.  1.
         21   -1    0    0  501  503 -0.00000000000E+00 -0.00000000000E+00 -0.57793658060E+00  0.57793658060E+00  0.00000000000E+00 0.  1.
          5    1    1    2  501    0  0.10267004084E+01  0.19335288395E+01  0.15116667400E+02  0.15981122638E+02  0.47000000000E+01 0.  1.
         -5    1    1    2    0  502 -0.10267004084E+01 -0.19335288395E+01  0.45978165723E+02  0.46269583646E+02  0.47000000000E+01 0.  1.
<mgrwt>
<rscale>  2 0.51848479E+01</rscale>
<asrwt>0</asrwt>
<pdfrwt beam="1">  1       21 0.94881132E-02 0.51848479E+01</pdfrwt>
<pdfrwt beam="2">  1       21 0.88913369E-04 0.51848479E+01</pdfrwt>
<totfact> 0.28737087E+09</totfact>
</mgrwt>
</event>
<event>
 4    1  0.4084348E+006  0.7314763E+01  0.7546771E-02  0.2270384E+00
         21   -1    0    0  503  502  0.00000000000E+00  0.00000000000E+00  0.16799658741E+02  0.16799658741E+02  0.00000000000E+00 0. -1.
         21   -1    0    0  501  503 -0.00000000000E+00 -0.00000000000E+00 -0.96314298696E+01  0.96314298696E+01  0.00000000000E+00 0. -1.
          5    1    1    2  501    0 -0.24214621485E+01  0.50549265487E+01 -0.72277754057E+01  0.10283311658E+02  0.47000000000E+01 0. -1.
         -5    1    1    2    0  502  0.24214621485E+01 -0.50549265487E+01  0.14396004277E+02  0.16147776952E+02  0.47000000000E+01 0. -1.
<mgrwt>
<rscale>  2 0.73147632E+01</rscale>
<asrwt>0</asrwt>
<pdfrwt beam="1">  1       21 0.25845629E-02 0.73147632E+01</pdfrwt>
<pdfrwt beam="2">  1       21 0.14817584E-02 0.73147632E+01</pdfrwt>
<totfact> 0.53728874E+08</totfact>
</mgrwt>
</event>
<event>
 4    1  0.4084348E+006  0.6043445E+01  0.7546771E-02  0.2409803E+00
         21   -1    0    0  501  502  0.00000000000E+00  0.00000000000E+00  0.18914117768E+03  0.18914117768E+03  0.00000000000E+00 0.  1.
         21   -1    0    0  502  503 -0.00000000000E+00 -0.00000000000E+00 -0.76303588017E+00  0.76303588017E+00  0.00000000000E+00 0.  1.
          5    1    1    2  501    0 -0.37834401132E+01 -0.34468181865E+00  0.17625161883E+03  0.17635519943E+03  0.47000000000E+01 0.  1.
         -5    1    1    2    0  503  0.37834401132E+01  0.34468181865E+00  0.12126522968E+02  0.13549014132E+02  0.47000000000E+01 0.  1.
<mgrwt>
<rscale>  2 0.60434448E+01</rscale>
<asrwt>0</asrwt>
<pdfrwt beam="1">  1       21 0.29098605E-01 0.60434448E+01</pdfrwt>
<pdfrwt beam="2">  1       21 0.11739029E-03 0.60434448E+01</pdfrwt>
<totfact> 0.38021225E+08</totfact>
</mgrwt>
</event>
<event>
 4    1  0.4084348E+006  0.6634334E+01  0.7546771E-02  0.2339517E+00
         21   -1    0    0  501  502  0.00000000000E+00  0.00000000000E+00  0.76935114154E+02  0.76935114154E+02  0.00000000000E+00 0. -1.
         21   -1    0    0  502  503 -0.00000000000E+00 -0.00000000000E+00 -0.57232499436E+00  0.57232499436E+00  0.00000000000E+00 0. -1.
          5    1    1    2  501    0 -0.38190496682E+01  0.27091038991E+01  0.38954082663E+02  0.39514996399E+02  0.47000000000E+01 0. -1.
         -5    1    1    2    0  503  0.38190496682E+01 -0.27091038991E+01  0.37408706497E+02  0.37992442749E+02  0.47000000000E+01 0. -1.
<mgrwt>
<rscale>  2 0.66343337E+01</rscale>
<asrwt>0</asrwt>
<pdfrwt beam="1">  1       21 0.11836163E-01 0.66343337E+01</pdfrwt>
<pdfrwt beam="2">  1       21 0.88050060E-04 0.66343337E+01</pdfrwt>
<totfact> 0.25673267E+09</totfact>
</mgrwt>
</event>
<event>
 4    1  0.4084348E+006  0.7015628E+01  0.7546771E-02  0.2299421E+00
         21   -1    0    0  501  502  0.00000000000E+00  0.00000000000E+00  0.19167008840E+01  0.19167008840E+01  0.00000000000E+00 0. -1.
         21   -1    0    0  502  503 -0.00000000000E+00 -0.00000000000E+00 -0.28112518679E+02  0.28112518679E+02  0.00000000000E+00 0.  1.
          5    1    1    2  501    0 -0.41138274490E+01 -0.31945994546E+01 -0.17515421437E+02  0.18868201559E+02  0.47000000000E+01 0.  1.
         -5    1    1    2    0  503  0.41138274490E+01  0.31945994546E+01 -0.86803963583E+01  0.11161018004E+02  0.47000000000E+01 0. -1.
<mgrwt>
<rscale>  2 0.70156284E+01</rscale>
<asrwt>0</asrwt>
<pdfrwt beam="1">  1       21 0.29487708E-03 0.70156284E+01</pdfrwt>
<pdfrwt beam="2">  1       21 0.43250026E-02 0.70156284E+01</pdfrwt>
<totfact> 0.23834482E+09</totfact>
</mgrwt>
</event>
<event>
 4    1  0.4084348E+006  0.5526067E+01  0.7546771E-02  0.2481516E+00
         21   -1    0    0  503  502  0.00000000000E+00  0.00000000000E+00  0.64761257993E+00  0.64761257993E+00  0.00000000000E+00 0.  1.
         21   -1    0    0  501  503 -0.00000000000E+00 -0.00000000000E+00 -0.85827510225E+02  0.85827510225E+02  0.00000000000E+00 0.  1.
          5    1    1    2  501    0  0.21511070600E+00  0.28984721607E+01 -0.71613843257E+02  0.71826735687E+02  0.47000000000E+01 0.  1.
         -5    1    1    2    0  502 -0.21511070600E+00 -0.28984721607E+01 -0.13566054388E+02  0.14648387117E+02  0.47000000000E+01 0.  1.
<mgrwt>
<rscale>  2 0.55260667E+01</rscale>
<asrwt>0</asrwt>
<pdfrwt beam="1">  1       21 0.99632695E-04 0.55260667E+01</pdfrwt>
<pdfrwt beam="2">  1       21 0.13204234E-01 0.55260667E+01</pdfrwt>
<totfact> 0.15777058E+09</totfact>
</mgrwt>
</event>
<event>
 4    1  0.4084348E+006  0.4994912E+01  0.7546771E-02  0.2568057E+00
         21   -1    0    0  501  502  0.00000000000E+00  0.00000000000E+00  0.32015498339E+01  0.32015498339E+01  0.00000000000E+00 0.  1.
         21   -1    0    0  502  503 -0.00000000000E+00 -0.00000000000E+00 -0.90300095219E+01  0.90300095219E+01  0.00000000000E+00 0.  1.
          5    1    1    2  501    0 -0.16154838119E+01  0.49935480067E+00 -0.51779543068E+01  0.71944668994E+01  0.47000000000E+01 0.  1.
         -5    1    1    2    0  503  0.16154838119E+01 -0.49935480067E+00 -0.65050538133E+00  0.50370924564E+01  0.47000000000E+01 0.  1.
<mgrwt>
<rscale>  2 0.49949117E+01</rscale>
<asrwt>0</asrwt>
<pdfrwt beam="1">  1       21 0.49254613E-03 0.49949117E+01</pdfrwt>
<pdfrwt beam="2">  1       21 0.13892322E-02 0.49949117E+01</pdfrwt>
<totfact> 0.44553245E+09</totfact>
</mgrwt>
</event>
<event>
 4    1  0.4084348E+006  0.5098735E+01  0.7546771E-02  0.2549931E+00
         21   -1    0    0  501  502  0.00000000000E+00  0.00000000000E+00  0.69381081826E-01  0.69381081826E-01  0.00000000000E+00 0.  1.
         21   -1    0    0  502  503 -0.00000000000E+00 -0.00000000000E+00 -0.53178581915E+03  0.53178581915E+03  0.00000000000E+00 0.  1.
          5    1    1    2  501    0  0.59965224534E+00 -0.18834849777E+01 -0.12132642716E+03  0.12143351690E+03  0.47000000000E+01 0.  1.
         -5    1    1    2    0  503 -0.59965224534E+00  0.18834849777E+01 -0.41039001090E+03  0.41042168333E+03  0.47000000000E+01 0.  1.
<mgrwt>
<rscale>  2 0.50987350E+01</rscale>
<asrwt>0</asrwt>
<pdfrwt beam="1">  1       21 0.10674002E-04 0.50987350E+01</pdfrwt>
<pdfrwt beam="2">  1       21 0.81813286E-01 0.50987350E+01</pdfrwt>
<totfact> 0.12801808E+09</totfact>
</mgrwt>
</event>
<event>
 4    1  0.4084348E+006  0.1874338E+02  0.7546771E-02  0.1771538E+00
         21   -1    0    0  503  502  0.00000000000E+00  0.00000000000E+00  0.14628410146E+03  0.14628410146E+03  0.00000000000E+00 0.  1.
         21   -1    0    0  501  503 -0.00000000000E+00 -0.00000000000E+00 -0.24510049013E+01  0.24510049013E+01  0.00000000000E+00 0. -1.
          5    1    1    2  501    0 -0.16093267313E+02  0.83804006788E+01  0.82476024536E+02  0.84579010349E+02  0.47000000000E+01 0.  1.
         -5    1    1    2    0  502  0.16093267313E+02 -0.83804006788E+01  0.61357072019E+02  0.64156096009E+02  0.47000000000E+01 0. -1.
<mgrwt>
<rscale>  2 0.18743382E+02</rscale>
<asrwt>0</asrwt>
<pdfrwt beam="1">  1       21 0.22505240E-01 0.18743382E+02</pdfrwt>
<pdfrwt beam="2">  1       21 0.37707779E-03 0.18743382E+02</pdfrwt>
<totfact> 0.19944981E+08</totfact>
</mgrwt>
</event>
<event>
 4    1  0.4084348E+006  0.5816984E+01  0.7546771E-02  0.2439870E+00
         21   -1    0    0  501  502  0.00000000000E+00  0.00000000000E+00  0.22193388377E+00  0.22193388377E+00  0.00000000000E+00 0. -1.
         21   -1    0    0  502  503 -0.00000000000E+00 -0.00000000000E+00 -0.16759690329E+04  0.16759690329E+04  0.00000000000E+00 0.  1.
          5    1    1    2  501    0  0.22477520823E+01 -0.25874519862E+01 -0.38808354309E+02  0.39241886568E+02  0.47000000000E+01 0. -1.
         -5    1    1    2    0  503 -0.22477520823E+01  0.25874519862E+01 -0.16369387447E+04  0.16369490802E+04  0.47000000000E+01 0.  1.
<mgrwt>
<rscale>  2 0.58169835E+01</rscale>
<asrwt>0</asrwt>
<pdfrwt beam="1">  1       21 0.34145522E-04 0.58169835E+01</pdfrwt>
<pdfrwt beam="2">  1       21 0.25782744E+00 0.58169835E+01</pdfrwt>
<totfact> 0.25946178E+07</totfact>
</mgrwt>
</event>
<event>
 4    1  0.4084348E+006  0.6150242E+01  0.7546771E-02  0.2396270E+00
         21   -1    0    0  503  502  0.00000000000E+00  0.00000000000E+00  0.23773441751E+02  0.23773441751E+02  0.00000000000E+00 0.  1.
         21   -1    0    0  501  503 -0.00000000000E+00 -0.00000000000E+00 -0.17101445434E+01  0.17101445434E+01  0.00000000000E+00 0.  1.
          5    1    1    2  501    0  0.36679543528E+01 -0.15104916661E+01  0.76696050693E+01  0.98309875458E+01  0.47000000000E+01 0.  1.
         -5    1    1    2    0  502 -0.36679543528E+01  0.15104916661E+01  0.14393692138E+02  0.15652598748E+02  0.47000000000E+01 0.  1.
<mgrwt>
<rscale>  2 0.61502418E+01</rscale>
<asrwt>0</asrwt>
<pdfrwt beam="1">  1       21 0.36574523E-02 0.61502418E+01</pdfrwt>
<pdfrwt beam="2">  1       21 0.26309918E-03 0.61502418E+01</pdfrwt>
<totfact> 0.32077406E+09</totfact>
</mgrwt>
</event>
<event>
 4    1  0.4084348E+006  0.5284573E+01  0.7546771E-02  0.2519018E+00
         21   -1    0    0  501  502  0.00000000000E+00  0.00000000000E+00  0.57848090075E+02  0.57848090075E+02  0.00000000000E+00 0. -1.
         21   -1    0    0  502  503 -0.00000000000E+00 -0.00000000000E+00 -0.69837704963E+00  0.69837704963E+00  0.00000000000E+00 0. -1.
          5    1    1    2  501    0  0.22732012439E+01 -0.81808990667E+00  0.44840369784E+02  0.45150697419E+02  0.47000000000E+01 0. -1.
         -5    1    1    2    0  503 -0.22732012439E+01  0.81808990667E+00  0.12309343241E+02  0.13395769706E+02  0.47000000000E+01 0. -1.
<mgrwt>
<rscale>  2 0.52845733E+01</rscale>
<asrwt>0</asrwt>
<pdfrwt beam="1">  1       21 0.88997024E-02 0.52845733E+01</pdfrwt>
<pdfrwt beam="2">  1       21 0.10744267E-03 0.52845733E+01</pdfrwt>
<totfact> 0.25053326E+09</totfact>
</mgrwt>
</event>
<event>
 4    1  0.4084348E+006  0.5736274E+01  0.7546771E-02  0.2451066E+00
         21   -1    0    0  503  502  0.00000000000E+00  0.00000000000E+00  0.25628404282E+02  0.25628404282E+02  0.00000000000E+00 0. -1.
         21   -1    0    0  501  503 -0.00000000000E+00 -0.00000000000E+00 -0.17998162786E+01  0.17998162786E+01  0.00000000000E+00 0. -1.
          5    1    1    2  501    0 -0.17627479433E+01  0.27762488144E+01  0.45719543867E+01  0.73353667055E+01  0.47000000000E+01 0. -1.
         -5    1    1    2    0  502  0.17627479433E+01 -0.27762488144E+01  0.19256633616E+02  0.20092853855E+02  0.47000000000E+01 0. -1.
<mgrwt>
<rscale>  2 0.57362739E+01</rscale>
<asrwt>0</asrwt>
<pdfrwt beam="1">  1       21 0.39428311E-02 0.57362739E+01</pdfrwt>
<pdfrwt beam="2">  1       21 0.27689483E-03 0.57362739E+01</pdfrwt>
<totfact> 0.25198359E+09</totfact>
</mgrwt>
</event>
<event>
 4    1  0.4084348E+006  0.6401624E+01  0.7546771E-02  0.2365910E+00
         21   -1    0    0  501  502  0.00000000000E+00  0.00000000000E+00  0.44915500806E+00  0.44915500806E+00  0.00000000000E+00 0.  1.
         21   -1    0    0  502  503 -0.00000000000E+00 -0.00000000000E+00 -0.17589173828E+03  0.17589173828E+03  0.00000000000E+00 0. -1.
          5    1    1    2  501    0 -0.42411446962E+01  0.95051487928E+00 -0.26554046163E+02  0.27314797354E+02  0.47000000000E+01 0.  1.
         -5    1    1    2    0  503  0.42411446962E+01 -0.95051487928E+00 -0.14888853711E+03  0.14902609593E+03  0.47000000000E+01 0. -1.
<mgrwt>
<rscale>  2 0.64016238E+01</rscale>
<asrwt>0</asrwt>
<pdfrwt beam="1">  1       21 0.69100863E-04 0.64016238E+01</pdfrwt>
<pdfrwt beam="2">  1       21 0.27060231E-01 0.64016238E+01</pdfrwt>
<totfact> 0.91275301E+08</totfact>
</mgrwt>
</event>
<event>
 4    1  0.4084348E+006  0.4961348E+01  0.7546771E-02  0.2574057E+00
         21   -1    0    0  503  502  0.00000000000E+00  0.00000000000E+00  0.13415328060E+01  0.13415328060E+01  0.00000000000E+00 0. -1.
         21   -1    0    0  501  503 -0.00000000000E+00 -0.00000000000E+00 -0.47498019978E+02  0.47498019978E+02  0.00000000000E+00 0. -1.
          5    1    1    2  501    0 -0.12663475257E+01 -0.95986201183E+00 -0.42208484125E+02  0.42499071793E+02  0.47000000000E+01 0. -1.
         -5    1    1    2    0  502  0.12663475257E+01  0.95986201183E+00 -0.39480030472E+01  0.63404809911E+01  0.47000000000E+01 0. -1.
<mgrwt>
<rscale>  2 0.49613477E+01</rscale>
<asrwt>0</asrwt>
<pdfrwt beam="1">  1       21 0.20638964E-03 0.49613477E+01</pdfrwt>
<pdfrwt beam="2">  1       21 0.73073884E-02 0.49613477E+01</pdfrwt>
<totfact> 0.13217251E+09</totfact>
</mgrwt>
</event>
<event>
 4    1  0.4084348E+006  0.5208273E+01  0.7546771E-02  0.2531482E+00
         21   -1    0    0  503  502  0.00000000000E+00  0.00000000000E+00  0.21111573773E+01  0.21111573773E+01  0.00000000000E+00 0. -1.
         21   -1    0    0  501  503 -0.00000000000E+00 -0.00000000000E+00 -0.13661637103E+02  0.13661637103E+02  0.00000000000E+00 0. -1.
          5    1    1    2  501    0  0.20787732277E+01  0.84546263525E+00 -0.76987537972E+01  0.92949940952E+01  0.47000000000E+01 0. -1.
         -5    1    1    2    0  502 -0.20787732277E+01 -0.84546263525E+00 -0.38517259282E+01  0.64778003848E+01  0.47000000000E+01 0. -1.
<mgrwt>
<rscale>  2 0.52082728E+01</rscale>
<asrwt>0</asrwt>
<pdfrwt beam="1">  1       21 0.32479345E-03 0.52082728E+01</pdfrwt>
<pdfrwt beam="2">  1       21 0.21017903E-02 0.52082728E+01</pdfrwt>
<totfact> 0.45810148E+09</totfact>
</mgrwt>
</event>
<event>
 4    1  0.4084348E+006  0.7390464E+01  0.7546771E-02  0.2263341E+00
         21   -1    0    0  503  502  0.00000000000E+00  0.00000000000E+00  0.64281667251E+00  0.64281667251E+00  0.00000000000E+00 0. -1.
         21   -1    0    0  501  503 -0.00000000000E+00 -0.00000000000E+00 -0.10924509820E+03  0.10924509820E+03  0.00000000000E+00 0.  1.
          5    1    1    2  501    0  0.33386042715E+01  0.46241402106E+01 -0.28400178700E+02  0.29346023604E+02  0.47000000000E+01 0. -1.
         -5    1    1    2    0  502 -0.33386042715E+01 -0.46241402106E+01 -0.80202102827E+02  0.80541891268E+02  0.47000000000E+01 0.  1.
<mgrwt>
<rscale>  2 0.73904635E+01</rscale>
<asrwt>0</asrwt>
<pdfrwt beam="1">  1       21 0.98894816E-04 0.73904635E+01</pdfrwt>
<pdfrwt beam="2">  1       21 0.16806948E-01 0.73904635E+01</pdfrwt>
<totfact> 0.13606083E+09</totfact>
</mgrwt>
</event>
<event>
 4    1  0.4084348E+006  0.5250888E+01  0.7546771E-02  0.2524483E+00
         21   -1    0    0  503  502  0.00000000000E+00  0.00000000000E+00  0.27199800918E+02  0.27199800918E+02  0.00000000000E+00 0.  1.
         21   -1    0    0  501  503 -0.00000000000E+00 -0.00000000000E+00 -0.10147690918E+01  0.10147690918E+01  0.00000000000E+00 0. -1.
          5    1    1    2  501    0 -0.22364641575E+01  0.69285517550E+00  0.13555252286E+02  0.14536735698E+02  0.47000000000E+01 0.  1.
         -5    1    1    2    0  502  0.22364641575E+01 -0.69285517550E+00  0.12629779540E+02  0.13677834311E+02  0.47000000000E+01 0.  1.
<mgrwt>
<rscale>  2 0.52508876E+01</rscale>
<asrwt>0</asrwt>
<pdfrwt beam="1">  1       21 0.41845842E-02 0.52508876E+01</pdfrwt>
<pdfrwt beam="2">  1       21 0.15611834E-03 0.52508876E+01</pdfrwt>
<totfact> 0.46181321E+09</totfact>
</mgrwt>
</event>
<event>
 4    1  0.4084348E+006  0.5002837E+01  0.7546771E-02  0.2566651E+00
         21   -1    0    0  503  502  0.00000000000E+00  0.00000000000E+00  0.99407859422E+02  0.99407859422E+02  0.00000000000E+00 0. -1.
         21   -1    0    0  501  503 -0.00000000000E+00 -0.00000000000E+00 -0.46517322653E+00  0.46517322653E+00  0.00000000000E+00 0. -1.
          5    1    1    2  501    0  0.55959743445E+00 -0.16202550411E+01  0.15648767230E+02  0.16429007624E+02  0.47000000000E+01 0. -1.
         -5    1    1    2    0  502 -0.55959743445E+00  0.16202550411E+01  0.83293918965E+02  0.83444025024E+02  0.47000000000E+01 0. -1.
<mgrwt>
<rscale>  2 0.50028368E+01</rscale>
<asrwt>0</asrwt>
<pdfrwt beam="1">  1       21 0.15293500E-01 0.50028368E+01</pdfrwt>
<pdfrwt beam="2">  1       21 0.71565191E-04 0.50028368E+01</pdfrwt>
<totfact> 0.17816570E+09</totfact>
</mgrwt>
</event>
<event>
 4    1  0.4084348E+006  0.8743829E+01  0.7546771E-02  0.2154423E+00
         21   -1    0    0  501  502  0.00000000000E+00  0.00000000000E+00  0.41010698583E+01  0.41010698583E+01  0.00000000000E+00 0. -1.
         21   -1    0    0  502  503 -0.00000000000E+00 -0.00000000000E+00 -0.20275082513E+02  0.20275082513E+02  0.00000000000E+00 0. -1.
          5    1    1    2  501    0  0.14918942724E+01 -0.72207197420E+01 -0.11545445581E+02  0.14482812427E+02  0.47000000000E+01 0. -1.
         -5    1    1    2    0  503 -0.14918942724E+01  0.72207197420E+01 -0.46285670739E+01  0.98933399452E+01  0.47000000000E+01 0. -1.
<mgrwt>
<rscale>  2 0.87438288E+01</rscale>
<asrwt>0</asrwt>
<pdfrwt beam="1">  1       21 0.63093381E-03 0.87438288E+01</pdfrwt>
<pdfrwt beam="2">  1       21 0.31192435E-02 0.87438288E+01</pdfrwt>
<totfact> 0.15588221E+09</totfact>
</mgrwt>
</event>
<event>
 4    1  0.4084348E+006  0.5448494E+01  0.7546771E-02  0.2493254E+00
         21   -1    0    0  503  502  0.00000000000E+00  0.00000000000E+00  0.33944036605E-01  0.33944036605E-01  0.00000000000E+00 0.  1.
         21   -1    0    0  501  503 -0.00000000000E+00 -0.00000000000E+00 -0.10893175751E+04  0.10893175751E+04  0.00000000000E+00 0.  1.
          5    1    1    2  501    0  0.70520125108E+00 -0.26643534111E+01 -0.78648580525E+03  0.78650467764E+03  0.47000000000E+01 0.  1.
         -5    1    1    2    0  502 -0.70520125108E+00  0.26643534111E+01 -0.30279782581E+03  0.30284684149E+03  0.47000000000E+01 0.  1.
<mgrwt>
<rscale>  2 0.54484941E+01</rscale>
<asrwt>0</asrwt>
<pdfrwt beam="1">  1       21 0.52221938E-05 0.54484941E+01</pdfrwt>
<pdfrwt beam="2">  1       21 0.16758622E+00 0.54484941E+01</pdfrwt>
<totfact> 0.80175356E+08</totfact>
</mgrwt>
</event>
<event>
 4    1  0.4084348E+006  0.5035400E+01  0.7546771E-02  0.2560912E+00
         21   -1    0    0  503  502  0.00000000000E+00  0.00000000000E+00  0.60101512249E+01  0.60101512249E+01  0.00000000000E+00 0.  1.
         21   -1    0    0  501  503 -0.00000000000E+00 -0.00000000000E+00 -0.11877356780E+02  0.11877356780E+02  0.00000000000E+00 0.  1.
          5    1    1    2  501    0  0.18069338399E+01  0.15522567129E-01 -0.10115433795E+02  0.11299435902E+02  0.47000000000E+01 0.  1.
         -5    1    1    2    0  502 -0.18069338399E+01 -0.15522567129E-01  0.42482282398E+01  0.65880721026E+01  0.47000000000E+01 0.  1.
<mgrwt>
<rscale>  2 0.50353998E+01</rscale>
<asrwt>0</asrwt>
<pdfrwt beam="1">  1       21 0.92463865E-03 0.50353998E+01</pdfrwt>
<pdfrwt beam="2">  1       21 0.18272857E-02 0.50353998E+01</pdfrwt>
<totfact> 0.12774705E+09</totfact>
</mgrwt>
</event>
<event>
 4    1  0.4084348E+006  0.4791527E+01  0.7546771E-02  0.2605521E+00
         21   -1    0    0  503  502  0.00000000000E+00  0.00000000000E+00  0.10279463935E+01  0.10279463935E+01  0.00000000000E+00 0.  1.
         21   -1    0    0  501  503 -0.00000000000E+00 -0.00000000000E+00 -0.23731402334E+02  0.23731402334E+02  0.00000000000E+00 0.  1.
          5    1    1    2  501    0 -0.75673991769E+00 -0.54412720801E+00 -0.83482716717E+01  0.96256100911E+01  0.47000000000E+01 0.  1.
         -5    1    1    2    0  502  0.75673991769E+00  0.54412720801E+00 -0.14355184269E+02  0.15133738637E+02  0.47000000000E+01 0.  1.
<mgrwt>
<rscale>  2 0.47915269E+01</rscale>
<asrwt>0</asrwt>
<pdfrwt beam="1">  1       21 0.15814562E-03 0.47915269E+01</pdfrwt>
<pdfrwt beam="2">  1       21 0.36509846E-02 0.47915269E+01</pdfrwt>
<totfact> 0.50249503E+09</totfact>
</mgrwt>
</event>
<event>
 4    1  0.4084348E+006  0.6733250E+01  0.7546771E-02  0.2328757E+00
         21   -1    0    0  503  502  0.00000000000E+00  0.00000000000E+00  0.64833735067E+01  0.64833735067E+01  0.00000000000E+00 0. -1.
         21   -1    0    0  501  503 -0.00000000000E+00 -0.00000000000E+00 -0.71415542246E+01  0.71415542246E+01  0.00000000000E+00 0. -1.
          5    1    1    2  501    0  0.51908762796E+00  0.47934536032E+01  0.65425624560E+00  0.67649612450E+01  0.47000000000E+01 0. -1.
         -5    1    1    2    0  502 -0.51908762796E+00 -0.47934536032E+01 -0.13124369635E+01  0.68599664864E+01  0.47000000000E+01 0. -1.
<mgrwt>
<rscale>  2 0.67332495E+01</rscale>
<asrwt>0</asrwt>
<pdfrwt beam="1">  1       21 0.99744207E-03 0.67332495E+01</pdfrwt>
<pdfrwt beam="2">  1       21 0.10987007E-02 0.67332495E+01</pdfrwt>
<totfact> 0.30609284E+09</totfact>
</mgrwt>
</event>
<event>
 4    1  0.4084348E+006  0.5355677E+01  0.7546771E-02  0.2507678E+00
         21   -1    0    0  503  502  0.00000000000E+00  0.00000000000E+00  0.47053834280E+02  0.47053834280E+02  0.00000000000E+00 0.  1.
         21   -1    0    0  501  503 -0.00000000000E+00 -0.00000000000E+00 -0.10449035570E+01  0.10449035570E+01  0.00000000000E+00 0.  1.
          5    1    1    2  501    0 -0.23451682227E+01 -0.10456898732E+01  0.74816857329E+01  0.92010272638E+01  0.47000000000E+01 0.  1.
         -5    1    1    2    0  502  0.23451682227E+01  0.10456898732E+01  0.38527244990E+02  0.38897710573E+02  0.47000000000E+01 0.  1.
<mgrwt>
<rscale>  2 0.53556775E+01</rscale>
<asrwt>0</asrwt>
<pdfrwt beam="1">  1       21 0.72390498E-02 0.53556775E+01</pdfrwt>
<pdfrwt beam="2">  1       21 0.16075443E-03 0.53556775E+01</pdfrwt>
<totfact> 0.20166760E+09</totfact>
</mgrwt>
</event>
<event>
 4    1  0.4084348E+006  0.5986859E+01  0.7546771E-02  0.2417137E+00
         21   -1    0    0  501  502  0.00000000000E+00  0.00000000000E+00  0.22978927183E+03  0.22978927183E+03  0.00000000000E+00 0. -1.
         21   -1    0    0  502  503 -0.00000000000E+00 -0.00000000000E+00 -0.26676036635E+00  0.26676036635E+00  0.00000000000E+00 0.  1.
          5    1    1    2  501    0 -0.33148850809E+01  0.16625329028E+01  0.18888798158E+03  0.18898283537E+03  0.47000000000E+01 0. -1.
         -5    1    1    2    0  503  0.33148850809E+01 -0.16625329028E+01  0.40634529886E+02  0.41073196830E+02  0.47000000000E+01 0.  1.
<mgrwt>
<rscale>  2 0.59868588E+01</rscale>
<asrwt>0</asrwt>
<pdfrwt beam="1">  1       21 0.35352037E-01 0.59868588E+01</pdfrwt>
<pdfrwt beam="2">  1       21 0.41040240E-04 0.59868588E+01</pdfrwt>
<totfact> 0.11098728E+09</totfact>
</mgrwt>
</event>
<event>
 4    1  0.4084348E+006  0.5942714E+01  0.7546771E-02  0.2422939E+00
         21   -1    0    0  503  502  0.00000000000E+00  0.00000000000E+00  0.31029235662E+01  0.31029235662E+01  0.00000000000E+00 0. -1.
         21   -1    0    0  501  503 -0.00000000000E+00 -0.00000000000E+00 -0.20366123855E+02  0.20366123855E+02  0.00000000000E+00 0. -1.
          5    1    1    2  501    0  0.26845099749E+01  0.24534180058E+01 -0.16425624856E+02  0.17467598736E+02  0.47000000000E+01 0. -1.
         -5    1    1    2    0  502 -0.26845099749E+01 -0.24534180058E+01 -0.83757543373E+00  0.60014486854E+01  0.47000000000E+01 0. -1.
<mgrwt>
<rscale>  2 0.59427143E+01</rscale>
<asrwt>0</asrwt>
<pdfrwt beam="1">  1       21 0.47737286E-03 0.59427143E+01</pdfrwt>
<pdfrwt beam="2">  1       21 0.31332498E-02 0.59427143E+01</pdfrwt>
<totfact> 0.17165161E+09</totfact>
</mgrwt>
</event>
<event>
 4    1  0.4084348E+006  0.5726235E+01  0.7546771E-02  0.2452477E+00
         21   -1    0    0  503  502  0.00000000000E+00  0.00000000000E+00  0.36140913735E+02  0.36140913735E+02  0.00000000000E+00 0. -1.
         21   -1    0    0  501  503 -0.00000000000E+00 -0.00000000000E+00 -0.23224237893E+01  0.23224237893E+01  0.00000000000E+00 0.  1.
          5    1    1    2  501    0  0.11725402694E+00  0.32689475965E+01  0.18969460195E+01  0.60322608611E+01  0.47000000000E+01 0.  1.
         -5    1    1    2    0  502 -0.11725402694E+00 -0.32689475965E+01  0.31921543926E+02  0.32431076663E+02  0.47000000000E+01 0. -1.
<mgrwt>
<rscale>  2 0.57262350E+01</rscale>
<asrwt>0</asrwt>
<pdfrwt beam="1">  1       21 0.55601402E-02 0.57262350E+01</pdfrwt>
<pdfrwt beam="2">  1       21 0.35729599E-03 0.57262350E+01</pdfrwt>
<totfact> 0.10689512E+09</totfact>
</mgrwt>
</event>
<event>
 4    1  0.4084348E+006  0.6117980E+01  0.7546771E-02  0.2400317E+00
         21   -1    0    0  503  502  0.00000000000E+00  0.00000000000E+00  0.35475489544E+02  0.35475489544E+02  0.00000000000E+00 0. -1.
         21   -1    0    0  501  503 -0.00000000000E+00 -0.00000000000E+00 -0.10821362299E+01  0.10821362299E+01  0.00000000000E+00 0.  1.
          5    1    1    2  501    0 -0.12332378212E+01 -0.37173652280E+01  0.14306693245E+02  0.15559921316E+02  0.47000000000E+01 0. -1.
         -5    1    1    2    0  502  0.12332378212E+01  0.37173652280E+01  0.20086660069E+02  0.20997704458E+02  0.47000000000E+01 0.  1.
<mgrwt>
<rscale>  2 0.61179800E+01</rscale>
<asrwt>0</asrwt>
<pdfrwt beam="1">  1       21 0.54577667E-02 0.61179800E+01</pdfrwt>
<pdfrwt beam="2">  1       21 0.16648252E-03 0.61179800E+01</pdfrwt>
<totfact> 0.32993033E+09</totfact>
</mgrwt>
</event>
<event>
 4    1  0.4084348E+006  0.5306187E+01  0.7546771E-02  0.2515544E+00
         21   -1    0    0  501  502  0.00000000000E+00  0.00000000000E+00  0.16519193889E+02  0.16519193889E+02  0.00000000000E+00 0.  1.
         21   -1    0    0  502  503 -0.00000000000E+00 -0.00000000000E+00 -0.14735388007E+02  0.14735388007E+02  0.00000000000E+00 0. -1.
          5    1    1    2  501    0  0.15335998084E+01 -0.19270934922E+01  0.15587636728E+02  0.16466026736E+02  0.47000000000E+01 0.  1.
         -5    1    1    2    0  503 -0.15335998084E+01  0.19270934922E+01 -0.13803830846E+02  0.14788555160E+02  0.47000000000E+01 0. -1.
<mgrwt>
<rscale>  2 0.53061867E+01</rscale>
<asrwt>0</asrwt>
<pdfrwt beam="1">  1       21 0.25414144E-02 0.53061867E+01</pdfrwt>
<pdfrwt beam="2">  1       21 0.22669828E-02 0.53061867E+01</pdfrwt>
<totfact> 0.23628492E+08</totfact>
</mgrwt>
</event>
<event>
 4    1  0.4084348E+006  0.6610406E+01  0.7546771E-02  0.2342159E+00
         21   -1    0    0  501  502  0.00000000000E+00  0.00000000000E+00  0.19294649776E+00  0.19294649776E+00  0.00000000000E+00 0.  1.
         21   -1    0    0  502  503 -0.00000000000E+00 -0.00000000000E+00 -0.60853242357E+03  0.60853242357E+03  0.00000000000E+00 0. -1.
          5    1    1    2  501    0  0.12978352123E+01  0.44635296353E+01 -0.63004828708E+02  0.63350658351E+02  0.47000000000E+01 0.  1.
         -5    1    1    2    0  503 -0.12978352123E+01 -0.44635296353E+01 -0.54533464837E+03  0.54537471172E+03  0.47000000000E+01 0. -1.
<mgrwt>
<rscale>  2 0.66104064E+01</rscale>
<asrwt>0</asrwt>
<pdfrwt beam="1">  1       21 0.29684809E-04 0.66104064E+01</pdfrwt>
<pdfrwt beam="2">  1       21 0.93618064E-01 0.66104064E+01</pdfrwt>
<totfact> 0.30127929E+08</totfact>
</mgrwt>
</event>
<event>
 4    1  0.4084348E+006  0.8643026E+01  0.7546771E-02  0.2161583E+00
         21   -1    0    0  503  502  0.00000000000E+00  0.00000000000E+00  0.73996243498E+02  0.73996243498E+02  0.00000000000E+00 0.  1.
         21   -1    0    0  501  503 -0.00000000000E+00 -0.00000000000E+00 -0.11073251121E+02  0.11073251121E+02  0.00000000000E+00 0. -1.
          5    1    1    2  501    0 -0.71937735669E+01  0.92818432600E+00 -0.90879979148E+01  0.12541674943E+02  0.47000000000E+01 0. -1.
         -5    1    1    2    0  502  0.71937735669E+01 -0.92818432600E+00  0.72010990291E+02  0.72527819676E+02  0.47000000000E+01 0.  1.
<mgrwt>
<rscale>  2 0.86430263E+01</rscale>
<asrwt>0</asrwt>
<pdfrwt beam="1">  1       21 0.11384037E-01 0.86430263E+01</pdfrwt>
<pdfrwt beam="2">  1       21 0.17035771E-02 0.86430263E+01</pdfrwt>
<totfact> 0.50744509E+07</totfact>
</mgrwt>
</event>
<event>
 4    1  0.4084348E+006  0.5566325E+01  0.7546771E-02  0.2475534E+00
         21   -1    0    0  503  502  0.00000000000E+00  0.00000000000E+00  0.85641320078E+01  0.85641320078E+01  0.00000000000E+00 0. -1.
         21   -1    0    0  501  503 -0.00000000000E+00 -0.00000000000E+00 -0.36863922760E+01  0.36863922760E+01  0.00000000000E+00 0.  1.
          5    1    1    2  501    0 -0.12145917739E+01 -0.27237360126E+01  0.16038063184E+01  0.57927684013E+01  0.47000000000E+01 0.  1.
         -5    1    1    2    0  502  0.12145917739E+01  0.27237360126E+01  0.32739334134E+01  0.64577558826E+01  0.47000000000E+01 0. -1.
<mgrwt>
<rscale>  2 0.55663247E+01</rscale>
<asrwt>0</asrwt>
<pdfrwt beam="1">  1       21 0.13175588E-02 0.55663247E+01</pdfrwt>
<pdfrwt beam="2">  1       21 0.56713728E-03 0.55663247E+01</pdfrwt>
<totfact> 0.44108492E+09</totfact>
</mgrwt>
</event>
<event>
 4    1  0.4084348E+006  0.8194741E+01  0.7546771E-02  0.2195115E+00
         21   -1    0    0  503  502  0.00000000000E+00  0.00000000000E+00  0.49093747718E+02  0.49093747718E+02  0.00000000000E+00 0. -1.
         21   -1    0    0  501  503 -0.00000000000E+00 -0.00000000000E+00 -0.20552811563E+01  0.20552811563E+01  0.00000000000E+00 0. -1.
          5    1    1    2  501    0 -0.90649439462E+00 -0.66514690196E+01  0.87288080668E+01  0.11972713246E+02  0.47000000000E+01 0. -1.
         -5    1    1    2    0  502  0.90649439462E+00  0.66514690196E+01  0.38309658495E+02  0.39176315628E+02  0.47000000000E+01 0. -1.
<mgrwt>
<rscale>  2 0.81947405E+01</rscale>
<asrwt>0</asrwt>
<pdfrwt beam="1">  1       21 0.75528834E-02 0.81947405E+01</pdfrwt>
<pdfrwt beam="2">  1       21 0.31619714E-03 0.81947405E+01</pdfrwt>
<totfact> 0.10378105E+09</totfact>
</mgrwt>
</event>
<event>
 4    1  0.4084348E+006  0.7926813E+01  0.7546771E-02  0.2216598E+00
         21   -1    0    0  503  502  0.00000000000E+00  0.00000000000E+00  0.74447070045E+02  0.74447070045E+02  0.00000000000E+00 0.  1.
         21   -1    0    0  501  503 -0.00000000000E+00 -0.00000000000E+00 -0.15820899790E+02  0.15820899790E+02  0.00000000000E+00 0. -1.
          5    1    1    2  501    0 -0.62992324413E+01  0.10315194668E+01 -0.14600495499E+02  0.16613513492E+02  0.47000000000E+01 0. -1.
         -5    1    1    2    0  502  0.62992324413E+01 -0.10315194668E+01  0.73226665753E+02  0.73654456342E+02  0.47000000000E+01 0.  1.
<mgrwt>
<rscale>  2 0.79268128E+01</rscale>
<asrwt>0</asrwt>
<pdfrwt beam="1">  1       21 0.11453395E-01 0.79268128E+01</pdfrwt>
<pdfrwt beam="2">  1       21 0.24339846E-02 0.79268128E+01</pdfrwt>
<totfact> 0.28640567E+07</totfact>
</mgrwt>
</event>
<event>
 4    1  0.4084348E+006  0.7651809E+01  0.7546771E-02  0.2239901E+00
         21   -1    0    0  503  502  0.00000000000E+00  0.00000000000E+00  0.29896843560E+01  0.29896843560E+01  0.00000000000E+00 0. -1.
         21   -1    0    0  501  503 -0.00000000000E+00 -0.00000000000E+00 -0.27080510371E+02  0.27080510371E+02  0.00000000000E+00 0. -1.
          5    1    1    2  501    0  0.36806241232E+01  0.47867718706E+01 -0.19955940665E+02  0.21372640143E+02  0.47000000000E+01 0. -1.
         -5    1    1    2    0  502 -0.36806241232E+01 -0.47867718706E+01 -0.41348853503E+01  0.86975545838E+01  0.47000000000E+01 0. -1.
<mgrwt>
<rscale>  2 0.76518089E+01</rscale>
<asrwt>0</asrwt>
<pdfrwt beam="1">  1       21 0.45995142E-03 0.76518089E+01</pdfrwt>
<pdfrwt beam="2">  1       21 0.41662325E-02 0.76518089E+01</pdfrwt>
<totfact> 0.14456629E+09</totfact>
</mgrwt>
</event>
<event>
 4    1  0.4084348E+006  0.5325623E+01  0.7546771E-02  0.2512440E+00
         21   -1    0    0  503  502  0.00000000000E+00  0.00000000000E+00  0.12211913426E+01  0.12211913426E+01  0.00000000000E+00 0. -1.
         21   -1    0    0  501  503 -0.00000000000E+00 -0.00000000000E+00 -0.24199414950E+02  0.24199414950E+02  0.00000000000E+00 0.  1.
          5    1    1    2  501    0  0.21682226391E+01  0.12534256674E+01 -0.14039509193E+02  0.15015661281E+02  0.47000000000E+01 0. -1.
         -5    1    1    2    0  502 -0.21682226391E+01 -0.12534256674E+01 -0.89387144139E+01  0.10404945011E+02  0.47000000000E+01 0. -1.
<mgrwt>
<rscale>  2 0.53256235E+01</rscale>
<asrwt>0</asrwt>
<pdfrwt beam="1">  1       21 0.18787560E-03 0.53256235E+01</pdfrwt>
<pdfrwt beam="2">  1       21 0.37229867E-02 0.53256235E+01</pdfrwt>
<totfact> 0.43278972E+09</totfact>
</mgrwt>
</event>
<event>
 4    1  0.4084348E+006  0.6756902E+01  0.7546771E-02  0.2326222E+00
         21   -1    0    0  503  502  0.00000000000E+00  0.00000000000E+00  0.11703006957E+02  0.11703006957E+02  0.00000000000E+00 0.  1.
         21   -1    0    0  501  503 -0.00000000000E+00 -0.00000000000E+00 -0.63286090702E+01  0.63286090702E+01  0.00000000000E+00 0. -1.
          5    1    1    2  501    0 -0.42124153335E+01  0.24127323221E+01 -0.28965051116E+01  0.73515618791E+01  0.47000000000E+01 0. -1.
         -5    1    1    2    0  502  0.42124153335E+01 -0.24127323221E+01  0.82709029984E+01  0.10680054148E+02  0.47000000000E+01 0.  1.
<mgrwt>
<rscale>  2 0.67569017E+01</rscale>
<asrwt>0</asrwt>
<pdfrwt beam="1">  1       21 0.18004626E-02 0.67569017E+01</pdfrwt>
<pdfrwt beam="2">  1       21 0.97363216E-03 0.67569017E+01</pdfrwt>
<totfact> 0.15650263E+09</totfact>
</mgrwt>
</event>
<event>
 4    1  0.4084348E+006  0.2552923E+02  0.7546771E-02  0.1653515E+00
         21   -1    0    0  503  502  0.00000000000E+00  0.00000000000E+00  0.40457028369E+03  0.40457028369E+03  0.00000000000E+00 0. -1.
         21   -1    0    0  501  503 -0.00000000000E+00 -0.00000000000E+00 -0.57674966994E+01  0.57674966994E+01  0.00000000000E+00 0.  1.
          5    1    1    2  501    0  0.51520716030E+01  0.24558248815E+02  0.25227001792E+02  0.35890709746E+02  0.47000000000E+01 0.  1.
         -5    1    1    2    0  502 -0.51520716030E+01 -0.24558248815E+02  0.37357578520E+03  0.37444707064E+03  0.47000000000E+01 0. -1.
<mgrwt>
<rscale>  2 0.25529227E+02</rscale>
<asrwt>0</asrwt>
<pdfrwt beam="1">  1       21 0.62241560E-01 0.25529227E+02</pdfrwt>
<pdfrwt beam="2">  1       21 0.88730750E-03 0.25529227E+02</pdfrwt>
<totfact> 0.90543384E+06</totfact>
</mgrwt>
</event>
<event>
 4    1  0.4084348E+006  0.1162713E+02  0.7546771E-02  0.1992719E+00
         21   -1    0    0  501  502  0.00000000000E+00  0.00000000000E+00  0.17267455940E+02  0.17267455940E+02  0.00000000000E+00 0. -1.
         21   -1    0    0  502  503 -0.00000000000E+00 -0.00000000000E+00 -0.87551026101E+01  0.87551026101E+01  0.00000000000E+00 0.  1.
          5    1    1    2  501    0 -0.65257088069E+01  0.83973307080E+01  0.84875026203E+01  0.14395406878E+02  0.47000000000E+01 0. -1.
         -5    1    1    2    0  503  0.65257088069E+01 -0.83973307080E+01  0.24850709723E-01  0.11627151672E+02  0.47000000000E+01 0.  1.
<mgrwt>
<rscale>  2 0.11627125E+02</rscale>
<asrwt>0</asrwt>
<pdfrwt beam="1">  1       21 0.26565317E-02 0.11627125E+02</pdfrwt>
<pdfrwt beam="2">  1       21 0.13469389E-02 0.11627125E+02</pdfrwt>
<totfact> 0.78182063E+08</totfact>
</mgrwt>
</event>
<event>
 4    1  0.4084348E+006  0.6966185E+01  0.7546771E-02  0.2304416E+00
         21   -1    0    0  503  502  0.00000000000E+00  0.00000000000E+00  0.43704073598E+02  0.43704073598E+02  0.00000000000E+00 0.  1.
         21   -1    0    0  501  503 -0.00000000000E+00 -0.00000000000E+00 -0.85992733186E+01  0.85992733186E+01  0.00000000000E+00 0.  1.
          5    1    1    2  501    0  0.79759319772E+00 -0.50795259518E+01 -0.68525367804E+01  0.97716426015E+01  0.47000000000E+01 0.  1.
         -5    1    1    2    0  502 -0.79759319772E+00  0.50795259518E+01  0.41957337060E+02  0.42531704315E+02  0.47000000000E+01 0.  1.
<mgrwt>
<rscale>  2 0.69661854E+01</rscale>
<asrwt>0</asrwt>
<pdfrwt beam="1">  1       21 0.67237035E-02 0.69661854E+01</pdfrwt>
<pdfrwt beam="2">  1       21 0.13229652E-02 0.69661854E+01</pdfrwt>
<totfact> 0.14745024E+08</totfact>
</mgrwt>
</event>
<event>
 4    1  0.4084348E+006  0.5177110E+01  0.7546771E-02  0.2536662E+00
         21   -1    0    0  501  502  0.00000000000E+00  0.00000000000E+00  0.59151078307E+01  0.59151078307E+01  0.00000000000E+00 0.  1.
         21   -1    0    0  502  503 -0.00000000000E+00 -0.00000000000E+00 -0.53747418276E+01  0.53747418276E+01  0.00000000000E+00 0. -1.
          5    1    1    2  501    0 -0.21568106493E+01 -0.24624991903E+00  0.25065110787E+01  0.57519621858E+01  0.47000000000E+01 0.  1.
         -5    1    1    2    0  503  0.21568106493E+01  0.24624991903E+00 -0.19661450755E+01  0.55378874724E+01  0.47000000000E+01 0. -1.
<mgrwt>
<rscale>  2 0.51771103E+01</rscale>
<asrwt>0</asrwt>
<pdfrwt beam="1">  1       21 0.91001658E-03 0.51771103E+01</pdfrwt>
<pdfrwt beam="2">  1       21 0.82688336E-03 0.51771103E+01</pdfrwt>
<totfact> 0.40860920E+09</totfact>
</mgrwt>
</event>
<event>
 4    1  0.4084348E+006  0.5879575E+01  0.7546771E-02  0.2431366E+00
         21   -1    0    0  503  502  0.00000000000E+00  0.00000000000E+00  0.10067959665E+03  0.10067959665E+03  0.00000000000E+00 0. -1.
         21   -1    0    0  501  503 -0.00000000000E+00 -0.00000000000E+00 -0.19710067397E+01  0.19710067397E+01  0.00000000000E+00 0. -1.
          5    1    1    2  501    0  0.13040560624E+01  0.32831135554E+01  0.27133365937E+01  0.64754607791E+01  0.47000000000E+01 0. -1.
         -5    1    1    2    0  502 -0.13040560624E+01 -0.32831135554E+01  0.95995253314E+02  0.96175142608E+02  0.47000000000E+01 0. -1.
<mgrwt>
<rscale>  2 0.58795745E+01</rscale>
<asrwt>0</asrwt>
<pdfrwt beam="1">  1       21 0.15489165E-01 0.58795745E+01</pdfrwt>
<pdfrwt beam="2">  1       21 0.30323189E-03 0.58795745E+01</pdfrwt>
<totfact> 0.28602751E+08</totfact>
</mgrwt>
</event>
<event>
 4    1  0.4084348E+006  0.8158017E+01  0.7546771E-02  0.2197992E+00
         21   -1    0    0  501  502  0.00000000000E+00  0.00000000000E+00  0.49590512176E+01  0.49590512176E+01  0.00000000000E+00 0.  1.
         21   -1    0    0  502  503 -0.00000000000E+00 -0.00000000000E+00 -0.22971106989E+02  0.22971106989E+02  0.00000000000E+00 0.  1.
          5    1    1    2  501    0  0.60175937019E+01 -0.28725945254E+01 -0.13825571607E-02  0.81580166205E+01  0.47000000000E+01 0.  1.
         -5    1    1    2    0  503 -0.60175937019E+01  0.28725945254E+01 -0.18010673214E+02  0.19772141586E+02  0.47000000000E+01 0.  1.
<mgrwt>
<rscale>  2 0.81580165E+01</rscale>
<asrwt>0</asrwt>
<pdfrwt beam="1">  1       21 0.76293096E-03 0.81580165E+01</pdfrwt>
<pdfrwt beam="2">  1       21 0.35340164E-02 0.81580165E+01</pdfrwt>
<totfact> 0.94320888E+08</totfact>
</mgrwt>
</event>
<event>
 4    1  0.4084348E+006  0.7009563E+01  0.7546771E-02  0.2300031E+00
         21   -1    0    0  503  502  0.00000000000E+00  0.00000000000E+00  0.22922604766E+01  0.22922604766E+01  0.00000000000E+00 0. -1.
         21   -1    0    0  501  503 -0.00000000000E+00 -0.00000000000E+00 -0.24274924634E+02  0.24274924634E+02  0.00000000000E+00 0.  1.
          5    1    1    2  501    0 -0.37152657296E+01 -0.36387868410E+01 -0.15535047909E+02  0.17043229819E+02  0.47000000000E+01 0.  1.
         -5    1    1    2    0  502  0.37152657296E+01  0.36387868410E+01 -0.64476162483E+01  0.95239552918E+01  0.47000000000E+01 0. -1.
<mgrwt>
<rscale>  2 0.70095627E+01</rscale>
<asrwt>0</asrwt>
<pdfrwt beam="1">  1       21 0.35265547E-03 0.70095627E+01</pdfrwt>
<pdfrwt beam="2">  1       21 0.37346036E-02 0.70095627E+01</pdfrwt>
<totfact> 0.23105578E+09</totfact>
</mgrwt>
</event>
<event>
 4    1  0.4084348E+006  0.8128458E+01  0.7546771E-02  0.2200323E+00
         21   -1    0    0  503  502  0.00000000000E+00  0.00000000000E+00  0.61213179362E+01  0.61213179362E+01  0.00000000000E+00 0.  1.
         21   -1    0    0  501  503 -0.00000000000E+00 -0.00000000000E+00 -0.13852345419E+02  0.13852345419E+02  0.00000000000E+00 0. -1.
          5    1    1    2  501    0 -0.42363578802E+01 -0.51024608639E+01 -0.85582778116E+01  0.11803217953E+02  0.47000000000E+01 0. -1.
         -5    1    1    2    0  502  0.42363578802E+01  0.51024608639E+01  0.82725032888E+00  0.81704454017E+01  0.47000000000E+01 0.  1.
<mgrwt>
<rscale>  2 0.81284583E+01</rscale>
<asrwt>0</asrwt>
<pdfrwt beam="1">  1       21 0.94174122E-03 0.81284583E+01</pdfrwt>
<pdfrwt beam="2">  1       21 0.21311301E-02 0.81284583E+01</pdfrwt>
<totfact> 0.14706125E+09</totfact>
</mgrwt>
</event>
<event>
 4    1  0.4084348E+006  0.5885470E+01  0.7546771E-02  0.2430572E+00
         21   -1    0    0  503  502  0.00000000000E+00  0.00000000000E+00  0.65721588407E+01  0.65721588407E+01  0.00000000000E+00 0.  1.
         21   -1    0    0  501  503 -0.00000000000E+00 -0.00000000000E+00 -0.10163137961E+02  0.10163137961E+02  0.00000000000E+00 0.  1.
          5    1    1    2  501    0  0.31381545658E+01 -0.16433926249E+01 -0.76012587786E+01  0.96134223052E+01  0.47000000000E+01 0.  1.
         -5    1    1    2    0  502 -0.31381545658E+01  0.16433926249E+01  0.40102796586E+01  0.71218744961E+01  0.47000000000E+01 0.  1.
<mgrwt>
<rscale>  2 0.58854697E+01</rscale>
<asrwt>0</asrwt>
<pdfrwt beam="1">  1       21 0.10111014E-02 0.58854697E+01</pdfrwt>
<pdfrwt beam="2">  1       21 0.15635597E-02 0.58854697E+01</pdfrwt>
<totfact> 0.16211550E+09</totfact>
</mgrwt>
</event>
<event>
 4    1  0.4084348E+006  0.8892169E+01  0.7546771E-02  0.2144123E+00
         21   -1    0    0  501  502  0.00000000000E+00  0.00000000000E+00  0.70451634658E+00  0.70451634658E+00  0.00000000000E+00 0.  1.
         21   -1    0    0  502  503 -0.00000000000E+00 -0.00000000000E+00 -0.20864591641E+03  0.20864591641E+03  0.00000000000E+00 0. -1.
          5    1    1    2  501    0  0.69376199289E+01  0.29749104714E+01 -0.32815874096E+02  0.33999297864E+02  0.47000000000E+01 0.  1.
         -5    1    1    2    0  503 -0.69376199289E+01 -0.29749104714E+01 -0.17512552596E+03  0.17535113489E+03  0.47000000000E+01 0. -1.
<mgrwt>
<rscale>  2 0.88921686E+01</rscale>
<asrwt>0</asrwt>
<pdfrwt beam="1">  1       21 0.10838722E-03 0.88921686E+01</pdfrwt>
<pdfrwt beam="2">  1       21 0.32099344E-01 0.88921686E+01</pdfrwt>
<totfact> 0.45477981E+08</totfact>
</mgrwt>
</event>
<event>
 4    1  0.4084348E+006  0.5900712E+01  0.7546771E-02  0.2428528E+00
         21   -1    0    0  503  502  0.00000000000E+00  0.00000000000E+00  0.15001184516E+00  0.15001184516E+00  0.00000000000E+00 0.  1.
         21   -1    0    0  501  503 -0.00000000000E+00 -0.00000000000E+00 -0.40614655023E+03  0.40614655023E+03  0.00000000000E+00 0. -1.
          5    1    1    2  501    0 -0.12759343827E+01 -0.33317260524E+01 -0.33598215120E+03  0.33603396306E+03  0.47000000000E+01 0. -1.
         -5    1    1    2    0  502  0.12759343827E+01  0.33317260524E+01 -0.70014387189E+02  0.70262599016E+02  0.47000000000E+01 0.  1.
<mgrwt>
<rscale>  2 0.59007124E+01</rscale>
<asrwt>0</asrwt>
<pdfrwt beam="1">  1       21 0.23078414E-04 0.59007124E+01</pdfrwt>
<pdfrwt beam="2">  1       21 0.62484983E-01 0.59007124E+01</pdfrwt>
<totfact> 0.85626505E+08</totfact>
</mgrwt>
</event>
<event>
 4    1  0.4084348E+006  0.4809288E+01  0.7546771E-02  0.2602140E+00
         21   -1    0    0  503  502  0.00000000000E+00  0.00000000000E+00  0.94365135410E+01  0.94365135410E+01  0.00000000000E+00 0.  1.
         21   -1    0    0  501  503 -0.00000000000E+00 -0.00000000000E+00 -0.48905609396E+01  0.48905609396E+01  0.00000000000E+00 0.  1.
          5    1    1    2  501    0  0.10016354044E+01  0.18968670164E+00 -0.27864424604E+01  0.55581936016E+01  0.47000000000E+01 0.  1.
         -5    1    1    2    0  502 -0.10016354044E+01 -0.18968670164E+00  0.73323950618E+01  0.87688808790E+01  0.47000000000E+01 0.  1.
<mgrwt>
<rscale>  2 0.48092884E+01</rscale>
<asrwt>0</asrwt>
<pdfrwt beam="1">  1       21 0.14517713E-02 0.48092884E+01</pdfrwt>
<pdfrwt beam="2">  1       21 0.75239399E-03 0.48092884E+01</pdfrwt>
<totfact> 0.22457926E+09</totfact>
</mgrwt>
</event>
<event>
 4    1  0.4084348E+006  0.5882264E+01  0.7546771E-02  0.2431004E+00
         21   -1    0    0  503  502  0.00000000000E+00  0.00000000000E+00  0.19818163200E+03  0.19818163200E+03  0.00000000000E+00 0. -1.
         21   -1    0    0  501  503 -0.00000000000E+00 -0.00000000000E+00 -0.70661956518E+00  0.70661956518E+00  0.00000000000E+00 0.  1.
          5    1    1    2  501    0  0.29486428274E+01 -0.19535942531E+01  0.12448956160E+02  0.13768715790E+02  0.47000000000E+01 0.  1.
         -5    1    1    2    0  502 -0.29486428274E+01  0.19535942531E+01  0.18502605628E+03  0.18511953578E+03  0.47000000000E+01 0. -1.
<mgrwt>
<rscale>  2 0.58822636E+01</rscale>
<asrwt>0</asrwt>
<pdfrwt beam="1">  1       21 0.30489438E-01 0.58822636E+01</pdfrwt>
<pdfrwt beam="2">  1       21 0.10871086E-03 0.58822636E+01</pdfrwt>
<totfact> 0.38241377E+08</totfact>
</mgrwt>
</event>
<event>
 4    1  0.4084348E+006  0.5039359E+01  0.7546771E-02  0.2560219E+00
         21   -1    0    0  503  502  0.00000000000E+00  0.00000000000E+00  0.40402547314E+00  0.40402547314E+00  0.00000000000E+00 0.  1.
         21   -1    0    0  501  503 -0.00000000000E+00 -0.00000000000E+00 -0.87044455092E+02  0.87044455092E+02  0.00000000000E+00 0. -1.
          5    1    1    2  501    0  0.16822644776E+01 -0.68929555046E+00 -0.66369744621E+02  0.66560785326E+02  0.47000000000E+01 0. -1.
         -5    1    1    2    0  502 -0.16822644776E+01  0.68929555046E+00 -0.20270684997E+02  0.20887695239E+02  0.47000000000E+01 0.  1.
<mgrwt>
<rscale>  2 0.50393593E+01</rscale>
<asrwt>0</asrwt>
<pdfrwt beam="1">  1       21 0.62157705E-04 0.50393593E+01</pdfrwt>
<pdfrwt beam="2">  1       21 0.13391468E-01 0.50393593E+01</pdfrwt>
<totfact> 0.26567509E+09</totfact>
</mgrwt>
</event>
<event>
 4    1  0.4084348E+006  0.5449800E+01  0.7546771E-02  0.2493054E+00
         21   -1    0    0  501  502  0.00000000000E+00  0.00000000000E+00  0.41000109860E+01  0.41000109860E+01  0.00000000000E+00 0. -1.
         21   -1    0    0  502  503 -0.00000000000E+00 -0.00000000000E+00 -0.15738745352E+03  0.15738745352E+03  0.00000000000E+00 0.  1.
          5    1    1    2  501    0  0.14250681639E+01 -0.23620972493E+01  0.22199556547E+01  0.58846007338E+01  0.47000000000E+01 0. -1.
         -5    1    1    2    0  503 -0.14250681639E+01  0.23620972493E+01 -0.15550739819E+03  0.15560286377E+03  0.47000000000E+01 0.  1.
<mgrwt>
<rscale>  2 0.54498002E+01</rscale>
<asrwt>0</asrwt>
<pdfrwt beam="1">  1       21 0.63077097E-03 0.54498002E+01</pdfrwt>
<pdfrwt beam="2">  1       21 0.24213453E-01 0.54498002E+01</pdfrwt>
<totfact> 0.48327406E+07</totfact>
</mgrwt>
</event>
<event>
 4    1  0.4084348E+006  0.4865004E+01  0.7546771E-02  0.2591674E+00
         21   -1    0    0  503  502  0.00000000000E+00  0.00000000000E+00  0.49955331786E+02  0.49955331786E+02  0.00000000000E+00 0.  1.
         21   -1    0    0  501  503 -0.00000000000E+00 -0.00000000000E+00 -0.48027507270E+00  0.48027507270E+00  0.00000000000E+00 0.  1.
          5    1    1    2  501    0 -0.90745989137E+00  0.86877936219E+00  0.21806835321E+02  0.22342925676E+02  0.47000000000E+01 0.  1.
         -5    1    1    2    0  502  0.90745989137E+00 -0.86877936219E+00  0.27668221392E+02  0.28092681183E+02  0.47000000000E+01 0.  1.
<mgrwt>
<rscale>  2 0.48650037E+01</rscale>
<asrwt>0</asrwt>
<pdfrwt beam="1">  1       21 0.76854316E-02 0.48650037E+01</pdfrwt>
<pdfrwt beam="2">  1       21 0.73888512E-04 0.48650037E+01</pdfrwt>
<totfact> 0.47255741E+09</totfact>
</mgrwt>
</event>
<event>
 4    1  0.4084348E+006  0.7739662E+01  0.7546771E-02  0.2232311E+00
         21   -1    0    0  501  502  0.00000000000E+00  0.00000000000E+00  0.91513182011E+01  0.91513182011E+01  0.00000000000E+00 0.  1.
         21   -1    0    0  502  503 -0.00000000000E+00 -0.00000000000E+00 -0.18381341119E+02  0.18381341119E+02  0.00000000000E+00 0.  1.
          5    1    1    2  501    0  0.44967781337E+00  0.61327123950E+01  0.64314780209E+01  0.10063114875E+02  0.47000000000E+01 0.  1.
         -5    1    1    2    0  503 -0.44967781337E+00 -0.61327123950E+01 -0.15661500939E+02  0.17469544445E+02  0.47000000000E+01 0.  1.
<mgrwt>
<rscale>  2 0.77396622E+01</rscale>
<asrwt>0</asrwt>
<pdfrwt beam="1">  1       21 0.14078951E-02 0.77396622E+01</pdfrwt>
<pdfrwt beam="2">  1       21 0.28278986E-02 0.77396622E+01</pdfrwt>
<totfact> 0.52638064E+08</totfact>
</mgrwt>
</event>
<event>
 4    1  0.4084348E+006  0.5109142E+01  0.7546771E-02  0.2548149E+00
         21   -1    0    0  503  502  0.00000000000E+00  0.00000000000E+00  0.65639391992E+02  0.65639391992E+02  0.00000000000E+00 0. -1.
         21   -1    0    0  501  503 -0.00000000000E+00 -0.00000000000E+00 -0.42529866977E+00  0.42529866977E+00  0.00000000000E+00 0.  1.
          5    1    1    2  501    0 -0.66888930287E+00  0.18883636134E+01  0.24189007358E+02  0.24722690124E+02  0.47000000000E+01 0.  1.
         -5    1    1    2    0  502  0.66888930287E+00 -0.18883636134E+01  0.41025085964E+02  0.41342000537E+02  0.47000000000E+01 0. -1.
<mgrwt>
<rscale>  2 0.51091418E+01</rscale>
<asrwt>0</asrwt>
<pdfrwt beam="1">  1       21 0.10098360E-01 0.51091418E+01</pdfrwt>
<pdfrwt beam="2">  1       21 0.65430617E-04 0.51091418E+01</pdfrwt>
<totfact> 0.38733394E+09</totfact>
</mgrwt>
</event>
<event>
 4    1  0.4084348E+006  0.5636259E+01  0.7546771E-02  0.2465314E+00
         21   -1    0    0  503  502  0.00000000000E+00  0.00000000000E+00  0.18984712206E+03  0.18984712206E+03  0.00000000000E+00 0.  1.
         21   -1    0    0  501  503 -0.00000000000E+00 -0.00000000000E+00 -0.18702166028E+00  0.18702166028E+00  0.00000000000E+00 0.  1.
          5    1    1    2  501    0  0.22841683291E+01  0.21118693312E+01  0.12566047724E+03  0.12578681552E+03  0.47000000000E+01 0.  1.
         -5    1    1    2    0  502 -0.22841683291E+01 -0.21118693312E+01  0.63999623156E+02  0.64247328203E+02  0.47000000000E+01 0.  1.
<mgrwt>
<rscale>  2 0.56362591E+01</rscale>
<asrwt>0</asrwt>
<pdfrwt beam="1">  1       21 0.29207095E-01 0.56362591E+01</pdfrwt>
<pdfrwt beam="2">  1       21 0.28772715E-04 0.56362591E+01</pdfrwt>
<totfact> 0.23471727E+09</totfact>
</mgrwt>
</event>
<event>
 4    1  0.4084348E+006  0.5051285E+01  0.7546771E-02  0.2558136E+00
         21   -1    0    0  503  502  0.00000000000E+00  0.00000000000E+00  0.86091566945E+00  0.86091566945E+00  0.00000000000E+00 0. -1.
         21   -1    0    0  501  503 -0.00000000000E+00 -0.00000000000E+00 -0.75379406047E+02  0.75379406047E+02  0.00000000000E+00 0. -1.
          5    1    1    2  501    0  0.17516252686E+01 -0.59773377489E+00 -0.66954360037E+02  0.67144633476E+02  0.47000000000E+01 0. -1.
         -5    1    1    2    0  502 -0.17516252686E+01  0.59773377489E+00 -0.75641303406E+01  0.90956882398E+01  0.47000000000E+01 0. -1.
<mgrwt>
<rscale>  2 0.50512847E+01</rscale>
<asrwt>0</asrwt>
<pdfrwt beam="1">  1       21 0.13244856E-03 0.50512847E+01</pdfrwt>
<pdfrwt beam="2">  1       21 0.11596832E-01 0.50512847E+01</pdfrwt>
<totfact> 0.12149057E+09</totfact>
</mgrwt>
</event>
<event>
 4    1  0.4084348E+006  0.5557266E+01  0.7546771E-02  0.2476874E+00
         21   -1    0    0  501  502  0.00000000000E+00  0.00000000000E+00  0.85078716347E+00  0.85078716347E+00  0.00000000000E+00 0. -1.
         21   -1    0    0  502  503 -0.00000000000E+00 -0.00000000000E+00 -0.38399137163E+02  0.38399137163E+02  0.00000000000E+00 0. -1.
          5    1    1    2  501    0  0.28224356026E+01  0.90942993765E+00 -0.14185225233E+02  0.15234953904E+02  0.47000000000E+01 0. -1.
         -5    1    1    2    0  503 -0.28224356026E+01 -0.90942993765E+00 -0.23363124767E+02  0.24014970423E+02  0.47000000000E+01 0. -1.
<mgrwt>
<rscale>  2 0.55572660E+01</rscale>
<asrwt>0</asrwt>
<pdfrwt beam="1">  1       21 0.13089033E-03 0.55572660E+01</pdfrwt>
<pdfrwt beam="2">  1       21 0.59075598E-02 0.55572660E+01</pdfrwt>
<totfact> 0.37234313E+09</totfact>
</mgrwt>
</event>
<event>
 4    1  0.4084348E+006  0.7387989E+01  0.7546771E-02  0.2263570E+00
         21   -1    0    0  501  502  0.00000000000E+00  0.00000000000E+00  0.32031741415E+01  0.32031741415E+01  0.00000000000E+00 0.  1.
         21   -1    0    0  502  503 -0.00000000000E+00 -0.00000000000E+00 -0.17894241711E+02  0.17894241711E+02  0.00000000000E+00 0. -1.
          5    1    1    2  501    0 -0.13410588275E+01 -0.55402110659E+01 -0.96502103436E+01  0.12153556562E+02  0.47000000000E+01 0. -1.
         -5    1    1    2    0  503  0.13410588275E+01  0.55402110659E+01 -0.50408572260E+01  0.89438592904E+01  0.47000000000E+01 0.  1.
<mgrwt>
<rscale>  2 0.73879887E+01</rscale>
<asrwt>0</asrwt>
<pdfrwt beam="1">  1       21 0.49279603E-03 0.73879887E+01</pdfrwt>
<pdfrwt beam="2">  1       21 0.27529602E-02 0.73879887E+01</pdfrwt>
<totfact> 0.23628348E+09</totfact>
</mgrwt>
</event>
<event>
 4    1  0.4084348E+006  0.1603051E+02  0.7546771E-02  0.1838159E+00
         21   -1    0    0  501  502  0.00000000000E+00  0.00000000000E+00  0.51988747805E+02  0.51988747805E+02  0.00000000000E+00 0.  1.
         21   -1    0    0  502  503 -0.00000000000E+00 -0.00000000000E+00 -0.84668932933E+01  0.84668932933E+01  0.00000000000E+00 0. -1.
          5    1    1    2  501    0  0.12823591240E+01 -0.15272285477E+02  0.41262067123E+02  0.44266639039E+02  0.47000000000E+01 0.  1.
         -5    1    1    2    0  503 -0.12823591240E+01  0.15272285477E+02  0.22597873896E+01  0.16189002059E+02  0.47000000000E+01 0. -1.
<mgrwt>
<rscale>  2 0.16030507E+02</rscale>
<asrwt>0</asrwt>
<pdfrwt beam="1">  1       21 0.79982687E-02 0.16030507E+02</pdfrwt>
<pdfrwt beam="2">  1       21 0.13025990E-02 0.16030507E+02</pdfrwt>
<totfact> 0.17125584E+08</totfact>
</mgrwt>
</event>
<event>
 4    1  0.4084348E+006  0.5825213E+01  0.7546771E-02  0.2438743E+00
         21   -1    0    0  503  502  0.00000000000E+00  0.00000000000E+00  0.16961542901E+02  0.16961542901E+02  0.00000000000E+00 0.  1.
         21   -1    0    0  501  503 -0.00000000000E+00 -0.00000000000E+00 -0.31192157013E+01  0.31192157013E+01  0.00000000000E+00 0. -1.
          5    1    1    2  501    0  0.30608088685E+01 -0.15730724035E+01  0.90846208303E+00  0.58956264360E+01  0.47000000000E+01 0. -1.
         -5    1    1    2    0  502 -0.30608088685E+01  0.15730724035E+01  0.12933865116E+02  0.14185132166E+02  0.47000000000E+01 0.  1.
<mgrwt>
<rscale>  2 0.58252131E+01</rscale>
<asrwt>0</asrwt>
<pdfrwt beam="1">  1       21 0.26094681E-02 0.58252131E+01</pdfrwt>
<pdfrwt beam="2">  1       21 0.47987935E-03 0.58252131E+01</pdfrwt>
<totfact> 0.21836181E+09</totfact>
</mgrwt>
</event>
<event>
 4    1  0.4084348E+006  0.5797227E+01  0.7546771E-02  0.2442586E+00
         21   -1    0    0  503  502  0.00000000000E+00  0.00000000000E+00  0.12140408678E+03  0.12140408678E+03  0.00000000000E+00 0. -1.
         21   -1    0    0  501  503 -0.00000000000E+00 -0.00000000000E+00 -0.87200357673E+00  0.87200357673E+00  0.00000000000E+00 0. -1.
          5    1    1    2  501    0  0.15471529041E+01 -0.30206223185E+01  0.97562478788E+01  0.11348665735E+02  0.47000000000E+01 0. -1.
         -5    1    1    2    0  502 -0.15471529041E+01  0.30206223185E+01  0.11077583532E+03  0.11092742462E+03  0.47000000000E+01 0. -1.
<mgrwt>
<rscale>  2 0.57972270E+01</rscale>
<asrwt>0</asrwt>
<pdfrwt beam="1">  1       21 0.18677538E-01 0.57972270E+01</pdfrwt>
<pdfrwt beam="2">  1       21 0.13415449E-03 0.57972270E+01</pdfrwt>
<totfact> 0.63688213E+08</totfact>
</mgrwt>
</event>
<event>
 4    1  0.4084348E+006  0.6419869E+01  0.7546771E-02  0.2363783E+00
         21   -1    0    0  501  502  0.00000000000E+00  0.00000000000E+00  0.79982788956E+00  0.79982788956E+00  0.00000000000E+00 0.  1.
         21   -1    0    0  502  503 -0.00000000000E+00 -0.00000000000E+00 -0.51838292465E+02  0.51838292465E+02  0.00000000000E+00 0. -1.
          5    1    1    2  501    0 -0.29448050201E+01  0.32330863273E+01 -0.23487881571E+02  0.24349441564E+02  0.47000000000E+01 0.  1.
         -5    1    1    2    0  503  0.29448050201E+01 -0.32330863273E+01 -0.27550583005E+02  0.28288678791E+02  0.47000000000E+01 0. -1.
<mgrwt>
<rscale>  2 0.64198695E+01</rscale>
<asrwt>0</asrwt>
<pdfrwt beam="1">  1       21 0.12305046E-03 0.64198695E+01</pdfrwt>
<pdfrwt beam="2">  1       21 0.79751208E-02 0.64198695E+01</pdfrwt>
<totfact> 0.29243815E+09</totfact>
</mgrwt>
</event>
<event>
 4    1  0.4084348E+006  0.4995946E+01  0.7546771E-02  0.2567873E+00
         21   -1    0    0  503  502  0.00000000000E+00  0.00000000000E+00  0.13367325122E+02  0.13367325122E+02  0.00000000000E+00 0.  1.
         21   -1    0    0  501  503 -0.00000000000E+00 -0.00000000000E+00 -0.31426262065E+01  0.31426262065E+01  0.00000000000E+00 0.  1.
          5    1    1    2  501    0  0.46732227398E+00 -0.16282166978E+01 -0.14657546671E+00  0.49980960465E+01  0.47000000000E+01 0.  1.
         -5    1    1    2    0  502 -0.46732227398E+00  0.16282166978E+01  0.10371274382E+02  0.11511855282E+02  0.47000000000E+01 0.  1.
<mgrwt>
<rscale>  2 0.49959463E+01</rscale>
<asrwt>0</asrwt>
<pdfrwt beam="1">  1       21 0.20565115E-02 0.49959463E+01</pdfrwt>
<pdfrwt beam="2">  1       21 0.48348096E-03 0.49959463E+01</pdfrwt>
<totfact> 0.26273404E+09</totfact>
</mgrwt>
</event>
<event>
 4    1  0.4084348E+006  0.5389122E+01  0.7546771E-02  0.2502432E+00
         21   -1    0    0  503  502  0.00000000000E+00  0.00000000000E+00  0.43999668019E+00  0.43999668019E+00  0.00000000000E+00 0. -1.
         21   -1    0    0  501  503 -0.00000000000E+00 -0.00000000000E+00 -0.83105519790E+02  0.83105519790E+02  0.00000000000E+00 0. -1.
          5    1    1    2  501    0 -0.11174285615E+01 -0.23883032558E+01 -0.60280783452E+02  0.60521198704E+02  0.47000000000E+01 0. -1.
         -5    1    1    2    0  502  0.11174285615E+01  0.23883032558E+01 -0.22384739658E+02  0.23024317766E+02  0.47000000000E+01 0. -1.
<mgrwt>
<rscale>  2 0.53891223E+01</rscale>
<asrwt>0</asrwt>
<pdfrwt beam="1">  1       21 0.67691848E-04 0.53891223E+01</pdfrwt>
<pdfrwt beam="2">  1       21 0.12785455E-01 0.53891223E+01</pdfrwt>
<totfact> 0.27158479E+09</totfact>
</mgrwt>
</event>
<event>
 4    1  0.4084348E+006  0.6733528E+01  0.7546771E-02  0.2328727E+00
         21   -1    0    0  503  502  0.00000000000E+00  0.00000000000E+00  0.63341361890E+01  0.63341361890E+01  0.00000000000E+00 0.  1.
         21   -1    0    0  501  503 -0.00000000000E+00 -0.00000000000E+00 -0.11644635112E+02  0.11644635112E+02  0.00000000000E+00 0. -1.
          5    1    1    2  501    0  0.43861386242E+01  0.20030436558E+01 -0.82350989698E+01  0.10637539704E+02  0.47000000000E+01 0. -1.
         -5    1    1    2    0  502 -0.43861386242E+01 -0.20030436558E+01  0.29246000471E+01  0.73412315965E+01  0.47000000000E+01 0.  1.
<mgrwt>
<rscale>  2 0.67335277E+01</rscale>
<asrwt>0</asrwt>
<pdfrwt beam="1">  1       21 0.97448249E-03 0.67335277E+01</pdfrwt>
<pdfrwt beam="2">  1       21 0.17914823E-02 0.67335277E+01</pdfrwt>
<totfact> 0.15702057E+09</totfact>
</mgrwt>
</event>
<event>
 4    1  0.4084348E+006  0.8765643E+01  0.7546771E-02  0.2152891E+00
         21   -1    0    0  503  502  0.00000000000E+00  0.00000000000E+00  0.37240454765E+00  0.37240454765E+00  0.00000000000E+00 0. -1.
         21   -1    0    0  501  503 -0.00000000000E+00 -0.00000000000E+00 -0.53161318614E+03  0.53161318614E+03  0.00000000000E+00 0.  1.
          5    1    1    2  501    0  0.19684226526E+01 -0.71324472701E+01 -0.47368869385E+03  0.47376979133E+03  0.47000000000E+01 0.  1.
         -5    1    1    2    0  502 -0.19684226526E+01  0.71324472701E+01 -0.57552087737E+02  0.58215799356E+02  0.47000000000E+01 0. -1.
<mgrwt>
<rscale>  2 0.87656427E+01</rscale>
<asrwt>0</asrwt>
<pdfrwt beam="1">  1       21 0.57293096E-04 0.87656427E+01</pdfrwt>
<pdfrwt beam="2">  1       21 0.81786517E-01 0.87656427E+01</pdfrwt>
<totfact> 0.18919985E+08</totfact>
</mgrwt>
</event>
<event>
 4    1  0.4084348E+006  0.5136345E+01  0.7546771E-02  0.2543520E+00
         21   -1    0    0  503  502  0.00000000000E+00  0.00000000000E+00  0.38426630259E+00  0.38426630259E+00  0.00000000000E+00 0.  1.
         21   -1    0    0  501  503 -0.00000000000E+00 -0.00000000000E+00 -0.76381088220E+02  0.76381088220E+02  0.00000000000E+00 0.  1.
          5    1    1    2  501    0  0.46151315421E+00  0.20196639841E+01 -0.50205301759E+02  0.50467359369E+02  0.47000000000E+01 0.  1.
         -5    1    1    2    0  502 -0.46151315421E+00 -0.20196639841E+01 -0.25791520159E+02  0.26297995154E+02  0.47000000000E+01 0.  1.
<mgrwt>
<rscale>  2 0.51363447E+01</rscale>
<asrwt>0</asrwt>
<pdfrwt beam="1">  1       21 0.59117956E-04 0.51363447E+01</pdfrwt>
<pdfrwt beam="2">  1       21 0.11750924E-01 0.51363447E+01</pdfrwt>
<totfact> 0.35360683E+09</totfact>
</mgrwt>
</event>
<event>
 4    1  0.4084348E+006  0.7125504E+01  0.7546771E-02  0.2288524E+00
         21   -1    0    0  503  502  0.00000000000E+00  0.00000000000E+00  0.25472906902E+01  0.25472906902E+01  0.00000000000E+00 0.  1.
         21   -1    0    0  501  503 -0.00000000000E+00 -0.00000000000E+00 -0.20131946116E+02  0.20131946116E+02  0.00000000000E+00 0.  1.
          5    1    1    2  501    0 -0.33174567775E+01 -0.42044365451E+01 -0.76624711640E+01  0.10463568725E+02  0.47000000000E+01 0.  1.
         -5    1    1    2    0  502  0.33174567775E+01  0.42044365451E+01 -0.99221842615E+01  0.12215668080E+02  0.47000000000E+01 0.  1.
<mgrwt>
<rscale>  2 0.71255039E+01</rscale>
<asrwt>0</asrwt>
<pdfrwt beam="1">  1       21 0.39189086E-03 0.71255039E+01</pdfrwt>
<pdfrwt beam="2">  1       21 0.30972226E-02 0.71255039E+01</pdfrwt>
<totfact> 0.26632662E+09</totfact>
</mgrwt>
</event>
<event>
 4    1  0.4084348E+006  0.6290255E+01  0.7546771E-02  0.2379111E+00
         21   -1    0    0  503  502  0.00000000000E+00  0.00000000000E+00  0.28578430340E+02  0.28578430340E+02  0.00000000000E+00 0.  1.
         21   -1    0    0  501  503 -0.00000000000E+00 -0.00000000000E+00 -0.14157977474E+01  0.14157977474E+01  0.00000000000E+00 0.  1.
          5    1    1    2  501    0 -0.33051514886E+01 -0.25599368865E+01  0.11352109483E+02  0.12978354785E+02  0.47000000000E+01 0.  1.
         -5    1    1    2    0  502  0.33051514886E+01  0.25599368865E+01  0.15810523110E+02  0.17015873302E+02  0.47000000000E+01 0.  1.
<mgrwt>
<rscale>  2 0.62902546E+01</rscale>
<asrwt>0</asrwt>
<pdfrwt beam="1">  1       21 0.43966811E-02 0.62902546E+01</pdfrwt>
<pdfrwt beam="2">  1       21 0.21781506E-03 0.62902546E+01</pdfrwt>
<totfact> 0.32302459E+09</totfact>
</mgrwt>
</event>
<event>
 4    1  0.4084348E+006  0.8535704E+01  0.7546771E-02  0.2169354E+00
         21   -1    0    0  503  502  0.00000000000E+00  0.00000000000E+00  0.36536309130E+00  0.36536309130E+00  0.00000000000E+00 0.  1.
         21   -1    0    0  501  503 -0.00000000000E+00 -0.00000000000E+00 -0.20678302279E+03  0.20678302279E+03  0.00000000000E+00 0.  1.
          5    1    1    2  501    0 -0.66934628952E+01 -0.24424977287E+01 -0.12276218238E+03  0.12305857005E+03  0.47000000000E+01 0.  1.
         -5    1    1    2    0  502  0.66934628952E+01  0.24424977287E+01 -0.83655477314E+02  0.84089815824E+02  0.47000000000E+01 0.  1.
<mgrwt>
<rscale>  2 0.85357039E+01</rscale>
<asrwt>0</asrwt>
<pdfrwt beam="1">  1       21 0.56209873E-04 0.85357039E+01</pdfrwt>
<pdfrwt beam="2">  1       21 0.31812679E-01 0.85357039E+01</pdfrwt>
<totfact> 0.11066946E+09</totfact>
</mgrwt>
</event>
<event>
 4    1  0.4084348E+006  0.8140189E+01  0.7546771E-02  0.2199396E+00
         21   -1    0    0  503  502  0.00000000000E+00  0.00000000000E+00  0.10109776645E+02  0.10109776645E+02  0.00000000000E+00 0.  1.
         21   -1    0    0  501  503 -0.00000000000E+00 -0.00000000000E+00 -0.19638613596E+02  0.19638613596E+02  0.00000000000E+00 0. -1.
          5    1    1    2  501    0  0.54862552386E+01 -0.37514908429E+01 -0.16905384763E+02  0.18763121118E+02  0.47000000000E+01 0. -1.
         -5    1    1    2    0  502 -0.54862552386E+01  0.37514908429E+01  0.73765478124E+01  0.10985269123E+02  0.47000000000E+01 0.  1.
<mgrwt>
<rscale>  2 0.81401892E+01</rscale>
<asrwt>0</asrwt>
<pdfrwt beam="1">  1       21 0.15553503E-02 0.81401892E+01</pdfrwt>
<pdfrwt beam="2">  1       21 0.30213251E-02 0.81401892E+01</pdfrwt>
<totfact> 0.42658230E+08</totfact>
</mgrwt>
</event>
<event>
 4    1  0.4084348E+006  0.8097245E+01  0.7546771E-02  0.2202800E+00
         21   -1    0    0  501  502  0.00000000000E+00  0.00000000000E+00  0.40111482639E+01  0.40111482639E+01  0.00000000000E+00 0.  1.
         21   -1    0    0  502  503 -0.00000000000E+00 -0.00000000000E+00 -0.60927772161E+02  0.60927772161E+02  0.00000000000E+00 0.  1.
          5    1    1    2  501    0 -0.23795458197E+01  0.61492384382E+01 -0.68375593520E+00  0.81260626294E+01  0.47000000000E+01 0.  1.
         -5    1    1    2    0  503  0.23795458197E+01 -0.61492384382E+01 -0.56232867962E+02  0.56812857796E+02  0.47000000000E+01 0.  1.
<mgrwt>
<rscale>  2 0.80972447E+01</rscale>
<asrwt>0</asrwt>
<pdfrwt beam="1">  1       21 0.61709972E-03 0.80972447E+01</pdfrwt>
<pdfrwt beam="2">  1       21 0.93735036E-02 0.80972447E+01</pdfrwt>
<totfact> 0.28725435E+08</totfact>
</mgrwt>
</event>
<event>
 4    1  0.4084348E+006  0.6528590E+01  0.7546771E-02  0.2351317E+00
         21   -1    0    0  503  502  0.00000000000E+00  0.00000000000E+00  0.32003944251E-01  0.32003944251E-01  0.00000000000E+00 0. -1.
         21   -1    0    0  501  503 -0.00000000000E+00 -0.00000000000E+00 -0.19323803284E+04  0.19323803284E+04  0.00000000000E+00 0. -1.
          5    1    1    2  501    0  0.45188897357E+01 -0.33484011924E+00 -0.15048323173E+04  0.15048464791E+04  0.47000000000E+01 0. -1.
         -5    1    1    2    0  502 -0.45188897357E+01  0.33484011924E+00 -0.42751600716E+03  0.42756585325E+03  0.47000000000E+01 0. -1.
<mgrwt>
<rscale>  2 0.65285896E+01</rscale>
<asrwt>0</asrwt>
<pdfrwt beam="1">  1       21 0.49218186E-05 0.65285896E+01</pdfrwt>
<pdfrwt beam="2">  1       21 0.29740194E+00 0.65285896E+01</pdfrwt>
<totfact> 0.25208930E+08</totfact>
</mgrwt>
</event>
<event>
 4    1  0.4084348E+006  0.4765008E+01  0.7546771E-02  0.2610609E+00
         21   -1    0    0  503  502  0.00000000000E+00  0.00000000000E+00  0.22238695798E+02  0.22238695798E+02  0.00000000000E+00 0. -1.
         21   -1    0    0  501  503 -0.00000000000E+00 -0.00000000000E+00 -0.17560972658E+01  0.17560972658E+01  0.00000000000E+00 0. -1.
          5    1    1    2  501    0  0.63126920823E+00  0.46561892286E+00  0.24789972808E+01  0.53712874912E+01  0.47000000000E+01 0. -1.
         -5    1    1    2    0  502 -0.63126920823E+00 -0.46561892286E+00  0.18003601251E+02  0.18623505572E+02  0.47000000000E+01 0. -1.
<mgrwt>
<rscale>  2 0.47650081E+01</rscale>
<asrwt>0</asrwt>
<pdfrwt beam="1">  1       21 0.34213376E-02 0.47650081E+01</pdfrwt>
<pdfrwt beam="2">  1       21 0.27016883E-03 0.47650081E+01</pdfrwt>
<totfact> 0.26726368E+09</totfact>
</mgrwt>
</event>
<event>
 4    1  0.4084348E+006  0.5746418E+01  0.7546771E-02  0.2449644E+00
         21   -1    0    0  501  502  0.00000000000E+00  0.00000000000E+00  0.51067219859E+00  0.51067219859E+00  0.00000000000E+00 0.  1.
         21   -1    0    0  502  503 -0.00000000000E+00 -0.00000000000E+00 -0.66969527520E+02  0.66969527520E+02  0.00000000000E+00 0. -1.
          5    1    1    2  501    0 -0.19946187105E+01 -0.26368194403E+01 -0.26967069413E+02  0.27572525334E+02  0.47000000000E+01 0.  1.
         -5    1    1    2    0  503  0.19946187105E+01  0.26368194403E+01 -0.39491785909E+02  0.39907674385E+02  0.47000000000E+01 0. -1.
<mgrwt>
<rscale>  2 0.57464181E+01</rscale>
<asrwt>0</asrwt>
<pdfrwt beam="1">  1       21 0.78564971E-04 0.57464181E+01</pdfrwt>
<pdfrwt beam="2">  1       21 0.10303002E-01 0.57464181E+01</pdfrwt>
<totfact> 0.32880464E+09</totfact>
</mgrwt>
</event>
<event>
 4    1  0.4084348E+006  0.8167249E+01  0.7546771E-02  0.2197267E+00
         21   -1    0    0  503  502  0.00000000000E+00  0.00000000000E+00  0.53318454305E+00  0.53318454305E+00  0.00000000000E+00 0.  1.
         21   -1    0    0  501  503 -0.00000000000E+00 -0.00000000000E+00 -0.16310510888E+03  0.16310510888E+03  0.00000000000E+00 0.  1.
          5    1    1    2  501    0 -0.50025182881E+01 -0.44259190722E+01 -0.12077846814E+03  0.12105429490E+03  0.47000000000E+01 0.  1.
         -5    1    1    2    0  502  0.50025182881E+01  0.44259190722E+01 -0.41793456205E+02  0.42583998526E+02  0.47000000000E+01 0.  1.
<mgrwt>
<rscale>  2 0.81672485E+01</rscale>
<asrwt>0</asrwt>
<pdfrwt beam="1">  1       21 0.82028286E-04 0.81672485E+01</pdfrwt>
<pdfrwt beam="2">  1       21 0.25093126E-01 0.81672485E+01</pdfrwt>
<totfact> 0.96692180E+08</totfact>
</mgrwt>
</event>
<event>
 4    1  0.4084348E+006  0.5501552E+01  0.7546771E-02  0.2485195E+00
         21   -1    0    0  501  502  0.00000000000E+00  0.00000000000E+00  0.47156636557E+03  0.47156636557E+03  0.00000000000E+00 0.  1.
         21   -1    0    0  502  503 -0.00000000000E+00 -0.00000000000E+00 -0.94781207684E-01  0.94781207684E-01  0.00000000000E+00 0. -1.
          5    1    1    2  501    0  0.33262395643E-01 -0.28593658078E+01  0.36972781017E+03  0.36976873947E+03  0.47000000000E+01 0.  1.
         -5    1    1    2    0  503 -0.33262395643E-01  0.28593658078E+01  0.10174377419E+03  0.10189240730E+03  0.47000000000E+01 0. -1.
<mgrwt>
<rscale>  2 0.55015524E+01</rscale>
<asrwt>0</asrwt>
<pdfrwt beam="1">  1       21 0.72546793E-01 0.55015524E+01</pdfrwt>
<pdfrwt beam="2">  1       21 0.14582102E-04 0.55015524E+01</pdfrwt>
<totfact> 0.11304702E+09</totfact>
</mgrwt>
</event>
<event>
 4    1  0.4084348E+006  0.6608525E+01  0.7546771E-02  0.2342368E+00
         21   -1    0    0  503  502  0.00000000000E+00  0.00000000000E+00  0.33266328255E+00  0.33266328255E+00  0.00000000000E+00 0. -1.
         21   -1    0    0  501  503 -0.00000000000E+00 -0.00000000000E+00 -0.50953334410E+03  0.50953334410E+03  0.00000000000E+00 0. -1.
          5    1    1    2  501    0  0.32701201669E+01  0.32998364581E+01 -0.47424981118E+03  0.47429585282E+03  0.47000000000E+01 0. -1.
         -5    1    1    2    0  502 -0.32701201669E+01 -0.32998364581E+01 -0.34950869645E+02  0.35570154561E+02  0.47000000000E+01 0. -1.
<mgrwt>
<rscale>  2 0.66085253E+01</rscale>
<asrwt>0</asrwt>
<pdfrwt beam="1">  1       21 0.51178691E-04 0.66085253E+01</pdfrwt>
<pdfrwt beam="2">  1       21 0.78390168E-01 0.66085253E+01</pdfrwt>
<totfact> 0.20616469E+08</totfact>
</mgrwt>
</event>
<event>
 4    1  0.4084348E+006  0.5416971E+01  0.7546771E-02  0.2498106E+00
         21   -1    0    0  501  502  0.00000000000E+00  0.00000000000E+00  0.46943168406E-01  0.46943168406E-01  0.00000000000E+00 0.  1.
         21   -1    0    0  502  503 -0.00000000000E+00 -0.00000000000E+00 -0.64950202747E+03  0.64950202747E+03  0.00000000000E+00 0.  1.
          5    1    1    2  501    0 -0.11139784116E+01  0.24520647748E+01 -0.26175963467E+03  0.26181567927E+03  0.47000000000E+01 0.  1.
         -5    1    1    2    0  503  0.11139784116E+01 -0.24520647748E+01 -0.38769544963E+03  0.38773329137E+03  0.47000000000E+01 0.  1.
<mgrwt>
<rscale>  2 0.54169705E+01</rscale>
<asrwt>0</asrwt>
<pdfrwt beam="1">  1       21 0.72214265E-05 0.54169705E+01</pdfrwt>
<pdfrwt beam="2">  1       21 0.99931683E-01 0.54169705E+01</pdfrwt>
<totfact> 0.15218420E+09</totfact>
</mgrwt>
</event>
<event>
 4    1  0.4084348E+006  0.4963701E+01  0.7546771E-02  0.2573634E+00
         21   -1    0    0  501  502  0.00000000000E+00  0.00000000000E+00  0.40950574082E+02  0.40950574082E+02  0.00000000000E+00 0. -1.
         21   -1    0    0  502  503 -0.00000000000E+00 -0.00000000000E+00 -0.94499306232E+00  0.94499306232E+00  0.00000000000E+00 0. -1.
          5    1    1    2  501    0  0.11375207965E+01 -0.11199874713E+01  0.32629248378E+02  0.33004638692E+02  0.47000000000E+01 0. -1.
         -5    1    1    2    0  503 -0.11375207965E+01  0.11199874713E+01  0.73763326420E+01  0.88909284523E+01  0.47000000000E+01 0. -1.
<mgrwt>
<rscale>  2 0.49637008E+01</rscale>
<asrwt>0</asrwt>
<pdfrwt beam="1">  1       21 0.63000869E-02 0.49637008E+01</pdfrwt>
<pdfrwt beam="2">  1       21 0.14538358E-03 0.49637008E+01</pdfrwt>
<totfact> 0.26347771E+09</totfact>
</mgrwt>
</event>
<event>
 4    1  0.4084348E+006  0.4781940E+01  0.7546771E-02  0.2607355E+00
         21   -1    0    0  503  502  0.00000000000E+00  0.00000000000E+00  0.39264292892E+01  0.39264292892E+01  0.00000000000E+00 0. -1.
         21   -1    0    0  501  503 -0.00000000000E+00 -0.00000000000E+00 -0.32143199744E+02  0.32143199744E+02  0.00000000000E+00 0. -1.
          5    1    1    2  501    0 -0.47431895656E+00  0.74294963238E+00 -0.30427803270E+02  0.30801268877E+02  0.47000000000E+01 0. -1.
         -5    1    1    2    0  502  0.47431895656E+00 -0.74294963238E+00  0.22110328146E+01  0.52683601563E+01  0.47000000000E+01 0. -1.
<mgrwt>
<rscale>  2 0.47819403E+01</rscale>
<asrwt>0</asrwt>
<pdfrwt beam="1">  1       21 0.60406603E-03 0.47819403E+01</pdfrwt>
<pdfrwt beam="2">  1       21 0.49451078E-02 0.47819403E+01</pdfrwt>
<totfact> 0.52602546E+08</totfact>
</mgrwt>
</event>
<event>
 4    1  0.4084348E+006  0.5160013E+01  0.7546771E-02  0.2539527E+00
         21   -1    0    0  503  502  0.00000000000E+00  0.00000000000E+00  0.35737585602E+02  0.35737585602E+02  0.00000000000E+00 0.  1.
         21   -1    0    0  501  503 -0.00000000000E+00 -0.00000000000E+00 -0.74607563669E+00  0.74607563669E+00  0.00000000000E+00 0.  1.
          5    1    1    2  501    0 -0.15317377641E+01  0.14797006605E+01  0.16814313580E+02  0.17588259601E+02  0.47000000000E+01 0.  1.
         -5    1    1    2    0  502  0.15317377641E+01 -0.14797006605E+01  0.18177196386E+02  0.18895401638E+02  0.47000000000E+01 0.  1.
<mgrwt>
<rscale>  2 0.51600130E+01</rscale>
<asrwt>0</asrwt>
<pdfrwt beam="1">  1       21 0.54980888E-02 0.51600130E+01</pdfrwt>
<pdfrwt beam="2">  1       21 0.11478089E-03 0.51600130E+01</pdfrwt>
<totfact> 0.45914494E+09</totfact>
</mgrwt>
</event>
<event>
 4    1  0.4084348E+006  0.5771650E+01  0.7546771E-02  0.2446126E+00
         21   -1    0    0  503  502  0.00000000000E+00  0.00000000000E+00  0.13273008939E+00  0.13273008939E+00  0.00000000000E+00 0. -1.
         21   -1    0    0  501  503 -0.00000000000E+00 -0.00000000000E+00 -0.57990761211E+03  0.57990761211E+03  0.00000000000E+00 0.  1.
          5    1    1    2  501    0 -0.33493824292E+01  0.59812412542E-01 -0.50831238688E+03  0.50834515302E+03  0.47000000000E+01 0.  1.
         -5    1    1    2    0  502  0.33493824292E+01 -0.59812412542E-01 -0.71462495137E+02  0.71695189179E+02  0.47000000000E+01 0. -1.
<mgrwt>
<rscale>  2 0.57716497E+01</rscale>
<asrwt>0</asrwt>
<pdfrwt beam="1">  1       21 0.20419435E-04 0.57716497E+01</pdfrwt>
<pdfrwt beam="2">  1       21 0.89219085E-01 0.57716497E+01</pdfrwt>
<totfact> 0.50116418E+08</totfact>
</mgrwt>
</event>
<event>
 4    1  0.4084348E+006  0.1010186E+02  0.7546771E-02  0.2069237E+00
         21   -1    0    0  503  502  0.00000000000E+00  0.00000000000E+00  0.49914091412E+01  0.49914091412E+01  0.00000000000E+00 0. -1.
         21   -1    0    0  501  503 -0.00000000000E+00 -0.00000000000E+00 -0.28325863397E+02  0.28325863397E+02  0.00000000000E+00 0.  1.
          5    1    1    2  501    0  0.27126915802E+01  0.85204965627E+01 -0.20454309913E+02  0.22812854957E+02  0.47000000000E+01 0.  1.
         -5    1    1    2    0  502 -0.27126915802E+01 -0.85204965627E+01 -0.28801443430E+01  0.10504417581E+02  0.47000000000E+01 0. -1.
<mgrwt>
<rscale>  2 0.10101859E+02</rscale>
<asrwt>0</asrwt>
<pdfrwt beam="1">  1       21 0.76790911E-03 0.10101859E+02</pdfrwt>
<pdfrwt beam="2">  1       21 0.43578251E-02 0.10101859E+02</pdfrwt>
<totfact> 0.77626477E+08</totfact>
</mgrwt>
</event>
<event>
 4    1  0.4084348E+006  0.6266225E+01  0.7546771E-02  0.2382010E+00
         21   -1    0    0  501  502  0.00000000000E+00  0.00000000000E+00  0.11736429950E+02  0.11736429950E+02  0.00000000000E+00 0. -1.
         21   -1    0    0  502  503 -0.00000000000E+00 -0.00000000000E+00 -0.42798999761E+02  0.42798999761E+02  0.00000000000E+00 0.  1.
          5    1    1    2  501    0 -0.33838164078E+01  0.23927727252E+01  0.10648981931E+02  0.12355824171E+02  0.47000000000E+01 0. -1.
         -5    1    1    2    0  503  0.33838164078E+01 -0.23927727252E+01 -0.41711551741E+02  0.42179605540E+02  0.47000000000E+01 0.  1.
<mgrwt>
<rscale>  2 0.62662249E+01</rscale>
<asrwt>0</asrwt>
<pdfrwt beam="1">  1       21 0.18056046E-02 0.62662249E+01</pdfrwt>
<pdfrwt beam="2">  1       21 0.65844615E-02 0.62662249E+01</pdfrwt>
<totfact> 0.91177357E+07</totfact>
</mgrwt>
</event>
<event>
 4    1  0.4084348E+006  0.6391383E+01  0.7546771E-02  0.2367108E+00
         21   -1    0    0  503  502  0.00000000000E+00  0.00000000000E+00  0.13713885102E+00  0.13713885102E+00  0.00000000000E+00 0. -1.
         21   -1    0    0  501  503 -0.00000000000E+00 -0.00000000000E+00 -0.33094524168E+03  0.33094524168E+03  0.00000000000E+00 0.  1.
          5    1    1    2  501    0 -0.31424979164E+01 -0.29806845185E+01 -0.21773622844E+03  0.21783001388E+03  0.47000000000E+01 0.  1.
         -5    1    1    2    0  502  0.31424979164E+01  0.29806845185E+01 -0.11307187439E+03  0.11325236665E+03  0.47000000000E+01 0. -1.
<mgrwt>
<rscale>  2 0.63913827E+01</rscale>
<asrwt>0</asrwt>
<pdfrwt beam="1">  1       21 0.21098315E-04 0.63913827E+01</pdfrwt>
<pdfrwt beam="2">  1       21 0.50914579E-01 0.63913827E+01</pdfrwt>
<totfact> 0.14888682E+09</totfact>
</mgrwt>
</event>
<event>
 4    1  0.4084348E+006  0.7758083E+01  0.7546771E-02  0.2230738E+00
         21   -1    0    0  501  502  0.00000000000E+00  0.00000000000E+00  0.36729107658E+02  0.36729107658E+02  0.00000000000E+00 0. -1.
         21   -1    0    0  502  503 -0.00000000000E+00 -0.00000000000E+00 -0.59627716465E+01  0.59627716465E+01  0.00000000000E+00 0.  1.
          5    1    1    2  501    0  0.57606418159E+01 -0.22164975865E+01  0.33560821098E+02  0.34445849801E+02  0.47000000000E+01 0. -1.
         -5    1    1    2    0  503 -0.57606418159E+01  0.22164975865E+01 -0.27944850867E+01  0.82460295041E+01  0.47000000000E+01 0.  1.
<mgrwt>
<rscale>  2 0.77580832E+01</rscale>
<asrwt>0</asrwt>
<pdfrwt beam="1">  1       21 0.56506318E-02 0.77580832E+01</pdfrwt>
<pdfrwt beam="2">  1       21 0.91734951E-03 0.77580832E+01</pdfrwt>
<totfact> 0.34667993E+08</totfact>
</mgrwt>
</event>
<event>
 4    1  0.4084348E+006  0.6811902E+01  0.7546771E-02  0.2320385E+00
         21   -1    0    0  503  502  0.00000000000E+00  0.00000000000E+00  0.54329384790E+00  0.54329384790E+00  0.00000000000E+00 0.  1.
         21   -1    0    0  501  503 -0.00000000000E+00 -0.00000000000E+00 -0.87213294759E+02  0.87213294759E+02  0.00000000000E+00 0.  1.
          5    1    1    2  501    0 -0.48758025519E+01 -0.73386762469E+00 -0.37023243888E+02  0.37644688871E+02  0.47000000000E+01 0. -1.
         -5    1    1    2    0  502  0.48758025519E+01  0.73386762469E+00 -0.49646757023E+02  0.50111899736E+02  0.47000000000E+01 0. -1.
<mgrwt>
<rscale>  2 0.68119022E+01</rscale>
<asrwt>0</asrwt>
<pdfrwt beam="1">  1       21 0.83583737E-04 0.68119022E+01</pdfrwt>
<pdfrwt beam="2">  1       21 0.13417419E-01 0.68119022E+01</pdfrwt>
<totfact> 0.23081767E+09</totfact>
</mgrwt>
</event>
<event>
 4    1  0.4084348E+006  0.5211701E+01  0.7546771E-02  0.2530915E+00
         21   -1    0    0  501  502  0.00000000000E+00  0.00000000000E+00  0.62137125239E+01  0.62137125239E+01  0.00000000000E+00 0.  1.
         21   -1    0    0  502  503 -0.00000000000E+00 -0.00000000000E+00 -0.69456339366E+01  0.69456339366E+01  0.00000000000E+00 0.  1.
          5    1    1    2  501    0  0.16090099753E+00 -0.22463155328E+01  0.36397838440E+01  0.63568741560E+01  0.47000000000E+01 0.  1.
         -5    1    1    2    0  503 -0.16090099753E+00  0.22463155328E+01 -0.43717052567E+01  0.68024723046E+01  0.47000000000E+01 0.  1.
<mgrwt>
<rscale>  2 0.52117005E+01</rscale>
<asrwt>0</asrwt>
<pdfrwt beam="1">  1       21 0.95595577E-03 0.52117005E+01</pdfrwt>
<pdfrwt beam="2">  1       21 0.10685591E-02 0.52117005E+01</pdfrwt>
<totfact> 0.26848521E+09</totfact>
</mgrwt>
</event>
<event>
 4    1  0.4084348E+006  0.5469012E+01  0.7546771E-02  0.2490122E+00
         21   -1    0    0  501  502  0.00000000000E+00  0.00000000000E+00  0.95595383935E+02  0.95595383935E+02  0.00000000000E+00 0.  1.
         21   -1    0    0  502  503 -0.00000000000E+00 -0.00000000000E+00 -0.31310492158E+00  0.31310492158E+00  0.00000000000E+00 0.  1.
          5    1    1    2  501    0  0.20037313285E+01 -0.19506801543E+01  0.46362108878E+02  0.46683564901E+02  0.47000000000E+01 0.  1.
         -5    1    1    2    0  503 -0.20037313285E+01  0.19506801543E+01  0.48920170136E+02  0.49224923956E+02  0.47000000000E+01 0.  1.
<mgrwt>
<rscale>  2 0.54690120E+01</rscale>
<asrwt>0</asrwt>
<pdfrwt beam="1">  1       21 0.14706959E-01 0.54690120E+01</pdfrwt>
<pdfrwt beam="2">  1       21 0.48170064E-04 0.54690120E+01</pdfrwt>
<totfact> 0.34818028E+09</totfact>
</mgrwt>
</event>
<event>
 4    1  0.4084348E+006  0.4954274E+01  0.7546771E-02  0.2575330E+00
         21   -1    0    0  503  502  0.00000000000E+00  0.00000000000E+00  0.34802243753E+02  0.34802243753E+02  0.00000000000E+00 0.  1.
         21   -1    0    0  501  503 -0.00000000000E+00 -0.00000000000E+00 -0.14667340406E+01  0.14667340406E+01  0.00000000000E+00 0.  1.
          5    1    1    2  501    0 -0.13759337778E+00 -0.15607365566E+01  0.36013669906E+01  0.61249224271E+01  0.47000000000E+01 0.  1.
         -5    1    1    2    0  502  0.13759337778E+00  0.15607365566E+01  0.29734142722E+02  0.30144055367E+02  0.47000000000E+01 0.  1.
<mgrwt>
<rscale>  2 0.49542740E+01</rscale>
<asrwt>0</asrwt>
<pdfrwt beam="1">  1       21 0.53541907E-02 0.49542740E+01</pdfrwt>
<pdfrwt beam="2">  1       21 0.22565142E-03 0.49542740E+01</pdfrwt>
<totfact> 0.18518934E+09</totfact>
</mgrwt>
</event>
<event>
 4    1  0.4084348E+006  0.9377536E+01  0.7546771E-02  0.2112246E+00
         21   -1    0    0  501  502  0.00000000000E+00  0.00000000000E+00  0.25582472043E+02  0.25582472043E+02  0.00000000000E+00 0.  1.
         21   -1    0    0  502  503 -0.00000000000E+00 -0.00000000000E+00 -0.44871758051E+01  0.44871758051E+01  0.00000000000E+00 0. -1.
          5    1    1    2  501    0  0.71498740153E+01  0.38376401301E+01  0.17819618005E+02  0.20136458627E+02  0.47000000000E+01 0.  1.
         -5    1    1    2    0  503 -0.71498740153E+01 -0.38376401301E+01  0.32756782321E+01  0.99331892202E+01  0.47000000000E+01 0. -1.
<mgrwt>
<rscale>  2 0.93775359E+01</rscale>
<asrwt>0</asrwt>
<pdfrwt beam="1">  1       21 0.39357648E-02 0.93775359E+01</pdfrwt>
<pdfrwt beam="2">  1       21 0.69033476E-03 0.93775359E+01</pdfrwt>
<totfact> 0.10111392E+09</totfact>
</mgrwt>
</event>
<event>
 4    1  0.4084348E+006  0.6135381E+01  0.7546771E-02  0.2398130E+00
         21   -1    0    0  501  502  0.00000000000E+00  0.00000000000E+00  0.15916895928E+02  0.15916895928E+02  0.00000000000E+00 0.  1.
         21   -1    0    0  502  503 -0.00000000000E+00 -0.00000000000E+00 -0.42962255873E+01  0.42962255873E+01  0.00000000000E+00 0.  1.
          5    1    1    2  501    0  0.30059004408E+01  0.25529322071E+01  0.12586442895E+02  0.14002194295E+02  0.47000000000E+01 0.  1.
         -5    1    1    2    0  503 -0.30059004408E+01 -0.25529322071E+01 -0.96577255437E+00  0.62109272207E+01  0.47000000000E+01 0.  1.
<mgrwt>
<rscale>  2 0.61353810E+01</rscale>
<asrwt>0</asrwt>
<pdfrwt beam="1">  1       21 0.24487532E-02 0.61353810E+01</pdfrwt>
<pdfrwt beam="2">  1       21 0.66095779E-03 0.61353810E+01</pdfrwt>
<totfact> 0.16024961E+09</totfact>
</mgrwt>
</event>
<event>
 4    1  0.4084348E+006  0.1318153E+02  0.7546771E-02  0.1929228E+00
         21   -1    0    0  503  502  0.00000000000E+00  0.00000000000E+00  0.19645555049E+02  0.19645555049E+02  0.00000000000E+00 0.  1.
         21   -1    0    0  501  503 -0.00000000000E+00 -0.00000000000E+00 -0.14810022808E+02  0.14810022808E+02  0.00000000000E+00 0. -1.
          5    1    1    2  501    0  0.59875699117E+01  0.10761590065E+02 -0.85162621028E+01  0.15693295842E+02  0.47000000000E+01 0. -1.
         -5    1    1    2    0  502 -0.59875699117E+01 -0.10761590065E+02  0.13351794345E+02  0.18762282015E+02  0.47000000000E+01 0.  1.
<mgrwt>
<rscale>  2 0.13181533E+02</rscale>
<asrwt>0</asrwt>
<pdfrwt beam="1">  1       21 0.30223931E-02 0.13181533E+02</pdfrwt>
<pdfrwt beam="2">  1       21 0.22784651E-02 0.13181533E+02</pdfrwt>
<totfact> 0.31232588E+08</totfact>
</mgrwt>
</event>
<event>
 4    1  0.4084348E+006  0.6782408E+01  0.7546771E-02  0.2323506E+00
         21   -1    0    0  501  502  0.00000000000E+00  0.00000000000E+00  0.14897158866E+04  0.14897158866E+04  0.00000000000E+00 0. -1.
         21   -1    0    0  502  503 -0.00000000000E+00 -0.00000000000E+00 -0.41598266198E-01  0.41598266198E-01  0.00000000000E+00 0. -1.
          5    1    1    2  501    0 -0.36602033687E+01 -0.32425245952E+01  0.36671780116E+03  0.36678051576E+03  0.47000000000E+01 0. -1.
         -5    1    1    2    0  503  0.36602033687E+01  0.32425245952E+01  0.11229564872E+04  0.11229769691E+04  0.47000000000E+01 0. -1.
<mgrwt>
<rscale>  2 0.67824077E+01</rscale>
<asrwt>0</asrwt>
<pdfrwt beam="1">  1       21 0.22914434E+00 0.67824077E+01</pdfrwt>
<pdfrwt beam="2">  1       21 0.64009264E-05 0.67824077E+01</pdfrwt>
<totfact> 0.34280466E+08</totfact>
</mgrwt>
</event>
<event>
 4    1  0.4084348E+006  0.6650060E+01  0.7546771E-02  0.2337788E+00
         21   -1    0    0  501  502  0.00000000000E+00  0.00000000000E+00  0.15784460686E+01  0.15784460686E+01  0.00000000000E+00 0. -1.
         21   -1    0    0  502  503 -0.00000000000E+00 -0.00000000000E+00 -0.88497810418E+02  0.88497810418E+02  0.00000000000E+00 0.  1.
          5    1    1    2  501    0 -0.39797848060E+01 -0.25089070414E+01 -0.62271202024E+01  0.91104515618E+01  0.47000000000E+01 0. -1.
         -5    1    1    2    0  503  0.39797848060E+01  0.25089070414E+01 -0.80692244147E+02  0.80965804924E+02  0.47000000000E+01 0.  1.
<mgrwt>
<rscale>  2 0.66500603E+01</rscale>
<asrwt>0</asrwt>
<pdfrwt beam="1">  1       21 0.24283779E-03 0.66500603E+01</pdfrwt>
<pdfrwt beam="2">  1       21 0.13615052E-01 0.66500603E+01</pdfrwt>
<totfact> 0.51901507E+08</totfact>
</mgrwt>
</event>
<event>
 4    1  0.4084348E+006  0.1063269E+02  0.7546771E-02  0.2040673E+00
         21   -1    0    0  501  502  0.00000000000E+00  0.00000000000E+00  0.33350723714E+02  0.33350723714E+02  0.00000000000E+00 0.  1.
         21   -1    0    0  502  503 -0.00000000000E+00 -0.00000000000E+00 -0.15351544548E+03  0.15351544548E+03  0.00000000000E+00 0. -1.
          5    1    1    2  501    0  0.39309227326E+00 -0.95294047919E+01  0.32313393207E+02  0.34017781494E+02  0.47000000000E+01 0.  1.
         -5    1    1    2    0  503 -0.39309227326E+00  0.95294047919E+01 -0.15247811498E+03  0.15284838770E+03  0.47000000000E+01 0. -1.
<mgrwt>
<rscale>  2 0.10632689E+02</rscale>
<asrwt>0</asrwt>
<pdfrwt beam="1">  1       21 0.51308805E-02 0.10632689E+02</pdfrwt>
<pdfrwt beam="2">  1       21 0.23617761E-01 0.10632689E+02</pdfrwt>
<totfact> 0.31662121E+06</totfact>
</mgrwt>
</event>
<event>
 4    1  0.4084348E+006  0.4910236E+01  0.7546771E-02  0.2583328E+00
         21   -1    0    0  503  502  0.00000000000E+00  0.00000000000E+00  0.53326803793E+02  0.53326803793E+02  0.00000000000E+00 0.  1.
         21   -1    0    0  501  503 -0.00000000000E+00 -0.00000000000E+00 -0.45305790249E+00  0.45305790249E+00  0.00000000000E+00 0.  1.
          5    1    1    2  501    0  0.13942929279E+01 -0.27634759700E+00  0.27656587053E+02  0.28089094471E+02  0.47000000000E+01 0.  1.
         -5    1    1    2    0  502 -0.13942929279E+01  0.27634759700E+00  0.25217158838E+02  0.25690767225E+02  0.47000000000E+01 0.  1.
<mgrwt>
<rscale>  2 0.49102363E+01</rscale>
<asrwt>0</asrwt>
<pdfrwt beam="1">  1       21 0.82041187E-02 0.49102363E+01</pdfrwt>
<pdfrwt beam="2">  1       21 0.69701258E-04 0.49102363E+01</pdfrwt>
<totfact> 0.46764482E+09</totfact>
</mgrwt>
</event>
<event>
 4    1  0.4084348E+006  0.1056991E+02  0.7546771E-02  0.2043934E+00
         21   -1    0    0  501  502  0.00000000000E+00  0.00000000000E+00  0.13650287959E+01  0.13650287959E+01  0.00000000000E+00 0. -1.
         21   -1    0    0  502  503 -0.00000000000E+00 -0.00000000000E+00 -0.12038806049E+03  0.12038806049E+03  0.00000000000E+00 0.  1.
          5    1    1    2  501    0 -0.46338161160E+01 -0.82559494827E+01 -0.25066814847E+02  0.27204193799E+02  0.47000000000E+01 0. -1.
         -5    1    1    2    0  503  0.46338161160E+01  0.82559494827E+01 -0.93956216850E+02  0.94548895490E+02  0.47000000000E+01 0.  1.
<mgrwt>
<rscale>  2 0.10569908E+02</rscale>
<asrwt>0</asrwt>
<pdfrwt beam="1">  1       21 0.21000444E-03 0.10569908E+02</pdfrwt>
<pdfrwt beam="2">  1       21 0.18521239E-01 0.10569908E+02</pdfrwt>
<totfact> 0.50722177E+08</totfact>
</mgrwt>
</event>
<event>
 4    1  0.4084348E+006  0.5876982E+01  0.7546771E-02  0.2431715E+00
         21   -1    0    0  503  502  0.00000000000E+00  0.00000000000E+00  0.52139665613E+02  0.52139665613E+02  0.00000000000E+00 0. -1.
         21   -1    0    0  501  503 -0.00000000000E+00 -0.00000000000E+00 -0.10493561837E+01  0.10493561837E+01  0.00000000000E+00 0. -1.
          5    1    1    2  501    0 -0.30199361251E+01 -0.18245285309E+01  0.93962089726E+01  0.11082764169E+02  0.47000000000E+01 0. -1.
         -5    1    1    2    0  502  0.30199361251E+01  0.18245285309E+01  0.41694100456E+02  0.42106257628E+02  0.47000000000E+01 0. -1.
<mgrwt>
<rscale>  2 0.58769821E+01</rscale>
<asrwt>0</asrwt>
<pdfrwt beam="1">  1       21 0.80214850E-02 0.58769821E+01</pdfrwt>
<pdfrwt beam="2">  1       21 0.16143945E-03 0.58769821E+01</pdfrwt>
<totfact> 0.18641690E+09</totfact>
</mgrwt>
</event>
<event>
 4    1  0.4084348E+006  0.5072596E+01  0.7546771E-02  0.2554434E+00
         21   -1    0    0  503  502  0.00000000000E+00  0.00000000000E+00  0.25941014788E+02  0.25941014788E+02  0.00000000000E+00 0. -1.
         21   -1    0    0  501  503 -0.00000000000E+00 -0.00000000000E+00 -0.87577441853E+01  0.87577441853E+01  0.00000000000E+00 0.  1.
          5    1    1    2  501    0  0.14698028649E+00  0.19025319895E+01 -0.77457213589E+01  0.92589108725E+01  0.47000000000E+01 0.  1.
         -5    1    1    2    0  502 -0.14698028649E+00 -0.19025319895E+01  0.24928991962E+02  0.25439848101E+02  0.47000000000E+01 0. -1.
<mgrwt>
<rscale>  2 0.50725961E+01</rscale>
<asrwt>0</asrwt>
<pdfrwt beam="1">  1       21 0.39909253E-02 0.50725961E+01</pdfrwt>
<pdfrwt beam="2">  1       21 0.13473453E-02 0.50725961E+01</pdfrwt>
<totfact> 0.24811597E+08</totfact>
</mgrwt>
</event>
<event>
 4    1  0.4084348E+006  0.4959207E+01  0.7546771E-02  0.2574442E+00
         21   -1    0    0  501  502  0.00000000000E+00  0.00000000000E+00  0.57537232397E+02  0.57537232397E+02  0.00000000000E+00 0.  1.
         21   -1    0    0  502  503 -0.00000000000E+00 -0.00000000000E+00 -0.61196477792E+00  0.61196477792E+00  0.00000000000E+00 0.  1.
          5    1    1    2  501    0  0.14089105077E+01  0.72021515274E+00  0.44427944242E+02  0.44703869723E+02  0.47000000000E+01 0.  1.
         -5    1    1    2    0  503 -0.14089105077E+01 -0.72021515274E+00  0.12497323377E+02  0.13445327452E+02  0.47000000000E+01 0.  1.
<mgrwt>
<rscale>  2 0.49592075E+01</rscale>
<asrwt>0</asrwt>
<pdfrwt beam="1">  1       21 0.88518776E-02 0.49592075E+01</pdfrwt>
<pdfrwt beam="2">  1       21 0.94148473E-04 0.49592075E+01</pdfrwt>
<totfact> 0.28302196E+09</totfact>
</mgrwt>
</event>
<event>
 4    1  0.4084348E+006  0.5142926E+01  0.7546771E-02  0.2542407E+00
         21   -1    0    0  503  502  0.00000000000E+00  0.00000000000E+00  0.61827405792E+03  0.61827405792E+03  0.00000000000E+00 0. -1.
         21   -1    0    0  501  503 -0.00000000000E+00 -0.00000000000E+00 -0.71443280926E-01  0.71443280926E-01  0.00000000000E+00 0. -1.
          5    1    1    2  501    0  0.10784527770E+01  0.17879128793E+01  0.11326900099E+03  0.11338569698E+03  0.47000000000E+01 0. -1.
         -5    1    1    2    0  502 -0.10784527770E+01 -0.17879128793E+01  0.50493361365E+03  0.50495980423E+03  0.47000000000E+01 0. -1.
<mgrwt>
<rscale>  2 0.51429265E+01</rscale>
<asrwt>0</asrwt>
<pdfrwt beam="1">  1       21 0.95114802E-01 0.51429265E+01</pdfrwt>
<pdfrwt beam="2">  1       21 0.10991769E-04 0.51429265E+01</pdfrwt>
<totfact> 0.92360986E+08</totfact>
</mgrwt>
</event>
<event>
 4    1  0.4084348E+006  0.4888719E+01  0.7546771E-02  0.2587282E+00
         21   -1    0    0  503  502  0.00000000000E+00  0.00000000000E+00  0.60284008023E+01  0.60284008023E+01  0.00000000000E+00 0. -1.
         21   -1    0    0  501  503 -0.00000000000E+00 -0.00000000000E+00 -0.56285566696E+01  0.56285566696E+01  0.00000000000E+00 0. -1.
          5    1    1    2  501    0 -0.91447466800E+00  0.98656668912E+00 -0.29692157363E+01  0.57197744570E+01  0.47000000000E+01 0. -1.
         -5    1    1    2    0  502  0.91447466800E+00 -0.98656668912E+00  0.33690598690E+01  0.59371830148E+01  0.47000000000E+01 0. -1.
<mgrwt>
<rscale>  2 0.48887194E+01</rscale>
<asrwt>0</asrwt>
<pdfrwt beam="1">  1       21 0.92744628E-03 0.48887194E+01</pdfrwt>
<pdfrwt beam="2">  1       21 0.86593179E-03 0.48887194E+01</pdfrwt>
<totfact> 0.35156088E+09</totfact>
</mgrwt>
</event>
<event>
 4    1  0.4084348E+006  0.6167771E+01  0.7546771E-02  0.2394086E+00
         21   -1    0    0  503  502  0.00000000000E+00  0.00000000000E+00  0.21894314168E+00  0.21894314168E+00  0.00000000000E+00 0.  1.
         21   -1    0    0  501  503 -0.00000000000E+00 -0.00000000000E+00 -0.38330549361E+03  0.38330549361E+03  0.00000000000E+00 0. -1.
          5    1    1    2  501    0  0.39665004758E+01  0.46719388458E+00 -0.33333142291E+03  0.33338848045E+03  0.47000000000E+01 0. -1.
         -5    1    1    2    0  502 -0.39665004758E+01 -0.46719388458E+00 -0.49755127558E+02  0.50135956304E+02  0.47000000000E+01 0.  1.
<mgrwt>
<rscale>  2 0.61677708E+01</rscale>
<asrwt>0</asrwt>
<pdfrwt beam="1">  1       21 0.33683942E-04 0.61677708E+01</pdfrwt>
<pdfrwt beam="2">  1       21 0.58969407E-01 0.61677708E+01</pdfrwt>
<totfact> 0.59368747E+08</totfact>
</mgrwt>
</event>
<event>
 4    1  0.4084348E+006  0.5861269E+01  0.7546771E-02  0.2433837E+00
         21   -1    0    0  501  502  0.00000000000E+00  0.00000000000E+00  0.78441033434E+02  0.78441033434E+02  0.00000000000E+00 0. -1.
         21   -1    0    0  502  503 -0.00000000000E+00 -0.00000000000E+00 -0.45495545626E+00  0.45495545626E+00  0.00000000000E+00 0.  1.
          5    1    1    2  501    0  0.11782856141E+01 -0.32978967383E+01  0.31369889658E+02  0.31912763231E+02  0.47000000000E+01 0.  1.
         -5    1    1    2    0  503 -0.11782856141E+01  0.32978967383E+01  0.46616188319E+02  0.46983225659E+02  0.47000000000E+01 0. -1.
<mgrwt>
<rscale>  2 0.58612695E+01</rscale>
<asrwt>0</asrwt>
<pdfrwt beam="1">  1       21 0.12067841E-01 0.58612695E+01</pdfrwt>
<pdfrwt beam="2">  1       21 0.69993209E-04 0.58612695E+01</pdfrwt>
<totfact> 0.30599508E+09</totfact>
</mgrwt>
</event>
<event>
 4    1  0.4084348E+006  0.5160254E+01  0.7546771E-02  0.2539487E+00
         21   -1    0    0  501  502  0.00000000000E+00  0.00000000000E+00  0.48069507171E+01  0.48069507171E+01  0.00000000000E+00 0. -1.
         21   -1    0    0  502  503 -0.00000000000E+00 -0.00000000000E+00 -0.34793626949E+02  0.34793626949E+02  0.00000000000E+00 0. -1.
          5    1    1    2  501    0 -0.10319369427E+00  0.21278092467E+01  0.31624482273E+01  0.60522144641E+01  0.47000000000E+01 0. -1.
         -5    1    1    2    0  503  0.10319369427E+00 -0.21278092467E+01 -0.33149124460E+02  0.33548363202E+02  0.47000000000E+01 0. -1.
<mgrwt>
<rscale>  2 0.51602540E+01</rscale>
<asrwt>0</asrwt>
<pdfrwt beam="1">  1       21 0.73953091E-03 0.51602540E+01</pdfrwt>
<pdfrwt beam="2">  1       21 0.53528655E-02 0.51602540E+01</pdfrwt>
<totfact> 0.37905973E+08</totfact>
</mgrwt>
</event>
<event>
 4    1  0.4084348E+006  0.8127392E+01  0.7546771E-02  0.2200408E+00
         21   -1    0    0  503  502  0.00000000000E+00  0.00000000000E+00  0.31776197029E+01  0.31776197029E+01  0.00000000000E+00 0. -1.
         21   -1    0    0  501  503 -0.00000000000E+00 -0.00000000000E+00 -0.28760931663E+02  0.28760931663E+02  0.00000000000E+00 0. -1.
          5    1    1    2  501    0 -0.56808394865E+01  0.34194395452E+01 -0.21199964855E+02  0.22704471232E+02  0.47000000000E+01 0. -1.
         -5    1    1    2    0  502  0.56808394865E+01 -0.34194395452E+01 -0.43833471052E+01  0.92340801339E+01  0.47000000000E+01 0. -1.
<mgrwt>
<rscale>  2 0.81273922E+01</rscale>
<asrwt>0</asrwt>
<pdfrwt beam="1">  1       21 0.48886460E-03 0.81273922E+01</pdfrwt>
<pdfrwt beam="2">  1       21 0.44247584E-02 0.81273922E+01</pdfrwt>
<totfact> 0.12636544E+09</totfact>
</mgrwt>
</event>
<event>
 4    1  0.4084348E+006  0.6516666E+01  0.7546771E-02  0.2352667E+00
         21   -1    0    0  503  502  0.00000000000E+00  0.00000000000E+00  0.21008427547E+03  0.21008427547E+03  0.00000000000E+00 0.  1.
         21   -1    0    0  501  503 -0.00000000000E+00 -0.00000000000E+00 -0.20888057395E+00  0.20888057395E+00  0.00000000000E+00 0.  1.
          5    1    1    2  501    0 -0.33598747425E+01  0.30146607678E+01  0.86052675031E+02  0.86299071940E+02  0.47000000000E+01 0.  1.
         -5    1    1    2    0  502  0.33598747425E+01 -0.30146607678E+01  0.12382271987E+03  0.12399408410E+03  0.47000000000E+01 0.  1.
<mgrwt>
<rscale>  2 0.65166662E+01</rscale>
<asrwt>0</asrwt>
<pdfrwt beam="1">  1       21 0.32320489E-01 0.65166662E+01</pdfrwt>
<pdfrwt beam="2">  1       21 0.32135641E-04 0.65166662E+01</pdfrwt>
<totfact> 0.19126581E+09</totfact>
</mgrwt>
</event>
<event>
 4    1  0.4084348E+006  0.5283571E+01  0.7546771E-02  0.2519180E+00
         21   -1    0    0  503  502  0.00000000000E+00  0.00000000000E+00  0.10099289219E+03  0.10099289219E+03  0.00000000000E+00 0. -1.
         21   -1    0    0  501  503 -0.00000000000E+00 -0.00000000000E+00 -0.35156934344E+00  0.35156934344E+00  0.00000000000E+00 0. -1.
          5    1    1    2  501    0  0.19120805521E+01 -0.14731150114E+01  0.26892580482E+02  0.27406696351E+02  0.47000000000E+01 0. -1.
         -5    1    1    2    0  502 -0.19120805521E+01  0.14731150114E+01  0.73748742362E+02  0.73937765181E+02  0.47000000000E+01 0. -1.
<mgrwt>
<rscale>  2 0.52835708E+01</rscale>
<asrwt>0</asrwt>
<pdfrwt beam="1">  1       21 0.15537345E-01 0.52835708E+01</pdfrwt>
<pdfrwt beam="2">  1       21 0.54087672E-04 0.52835708E+01</pdfrwt>
<totfact> 0.26529715E+09</totfact>
</mgrwt>
</event>
<event>
 4    1  0.4084348E+006  0.7532728E+01  0.7546771E-02  0.2250418E+00
         21   -1    0    0  501  502  0.00000000000E+00  0.00000000000E+00  0.38152387478E+01  0.38152387478E+01  0.00000000000E+00 0. -1.
         21   -1    0    0  502  503 -0.00000000000E+00 -0.00000000000E+00 -0.18609774984E+02  0.18609774984E+02  0.00000000000E+00 0. -1.
          5    1    1    2  501    0 -0.41537639084E+01 -0.41711194178E+01 -0.23725475090E+01  0.78975295812E+01  0.47000000000E+01 0. -1.
         -5    1    1    2    0  503  0.41537639084E+01  0.41711194178E+01 -0.12421988727E+02  0.14527484151E+02  0.47000000000E+01 0. -1.
<mgrwt>
<rscale>  2 0.75327280E+01</rscale>
<asrwt>0</asrwt>
<pdfrwt beam="1">  1       21 0.58695981E-03 0.75327280E+01</pdfrwt>
<pdfrwt beam="2">  1       21 0.28630423E-02 0.75327280E+01</pdfrwt>
<totfact> 0.17689205E+09</totfact>
</mgrwt>
</event>
<event>
 4    1  0.4084348E+006  0.7242023E+01  0.7546771E-02  0.2277264E+00
         21   -1    0    0  501  502  0.00000000000E+00  0.00000000000E+00  0.44899533066E+03  0.44899533066E+03  0.00000000000E+00 0.  1.
         21   -1    0    0  502  503 -0.00000000000E+00 -0.00000000000E+00 -0.19640453976E+00  0.19640453976E+00  0.00000000000E+00 0. -1.
          5    1    1    2  501    0 -0.23846083029E+01 -0.49669451245E+01  0.36737743102E+03  0.36744880422E+03  0.47000000000E+01 0.  1.
         -5    1    1    2    0  503  0.23846083029E+01  0.49669451245E+01  0.81421495097E+02  0.81742930975E+02  0.47000000000E+01 0. -1.
<mgrwt>
<rscale>  2 0.72420232E+01</rscale>
<asrwt>0</asrwt>
<pdfrwt beam="1">  1       21 0.69075383E-01 0.72420232E+01</pdfrwt>
<pdfrwt beam="2">  1       21 0.30216443E-04 0.72420232E+01</pdfrwt>
<totfact> 0.56502261E+08</totfact>
</mgrwt>
</event>
<event>
 4    1  0.4084348E+006  0.5941085E+01  0.7546771E-02  0.2423155E+00
         21   -1    0    0  503  502  0.00000000000E+00  0.00000000000E+00  0.12046391561E+02  0.12046391561E+02  0.00000000000E+00 0. -1.
         21   -1    0    0  501  503 -0.00000000000E+00 -0.00000000000E+00 -0.29300865821E+01  0.29300865821E+01  0.00000000000E+00 0.  1.
          5    1    1    2  501    0 -0.11094729635E+01 -0.34605719219E+01  0.45858238865E+01  0.75050828777E+01  0.47000000000E+01 0.  1.
         -5    1    1    2    0  502  0.11094729635E+01  0.34605719219E+01  0.45304810923E+01  0.74713952654E+01  0.47000000000E+01 0.  1.
<mgrwt>
<rscale>  2 0.59410848E+01</rscale>
<asrwt>0</asrwt>
<pdfrwt beam="1">  1       21 0.18532910E-02 0.59410848E+01</pdfrwt>
<pdfrwt beam="2">  1       21 0.45078256E-03 0.59410848E+01</pdfrwt>
<totfact> 0.39645939E+09</totfact>
</mgrwt>
</event>
<event>
 4    1  0.4084348E+006  0.7553411E+01  0.7546771E-02  0.2248572E+00
         21   -1    0    0  501  502  0.00000000000E+00  0.00000000000E+00  0.25984370843E+03  0.25984370843E+03  0.00000000000E+00 0.  1.
         21   -1    0    0  502  503 -0.00000000000E+00 -0.00000000000E+00 -0.29235781268E+00  0.29235781268E+00  0.00000000000E+00 0.  1.
          5    1    1    2  501    0  0.58272783862E+01  0.10034192079E+01  0.64876236277E+02  0.65314470502E+02  0.47000000000E+01 0.  1.
         -5    1    1    2    0  503 -0.58272783862E+01 -0.10034192079E+01  0.19467511434E+03  0.19482159574E+03  0.47000000000E+01 0.  1.
<mgrwt>
<rscale>  2 0.75534114E+01</rscale>
<asrwt>0</asrwt>
<pdfrwt beam="1">  1       21 0.39975771E-01 0.75534114E+01</pdfrwt>
<pdfrwt beam="2">  1       21 0.44978333E-04 0.75534114E+01</pdfrwt>
<totfact> 0.92990931E+08</totfact>
</mgrwt>
</event>
<event>
 4    1  0.4084348E+006  0.7109526E+01  0.7546771E-02  0.2290092E+00
         21   -1    0    0  501  502  0.00000000000E+00  0.00000000000E+00  0.86580209447E-01  0.86580209447E-01  0.00000000000E+00 0.  1.
         21   -1    0    0  502  503 -0.00000000000E+00 -0.00000000000E+00 -0.68438989828E+03  0.68438989828E+03  0.00000000000E+00 0.  1.
          5    1    1    2  501    0 -0.34636725845E+01  0.40568874024E+01 -0.21094436200E+03  0.21106413534E+03  0.47000000000E+01 0.  1.
         -5    1    1    2    0  503  0.34636725845E+01 -0.40568874024E+01 -0.47335895607E+03  0.47341234316E+03  0.47000000000E+01 0.  1.
<mgrwt>
<rscale>  2 0.71095262E+01</rscale>
<asrwt>0</asrwt>
<pdfrwt beam="1">  1       21 0.13319765E-04 0.71095262E+01</pdfrwt>
<pdfrwt beam="2">  1       21 0.10529286E+00 0.71095262E+01</pdfrwt>
<totfact> 0.72466655E+08</totfact>
</mgrwt>
</event>
<event>
 4    1  0.4084348E+006  0.9376275E+01  0.7546771E-02  0.2112325E+00
         21   -1    0    0  501  502  0.00000000000E+00  0.00000000000E+00  0.12084182199E+03  0.12084182199E+03  0.00000000000E+00 0. -1.
         21   -1    0    0  502  503 -0.00000000000E+00 -0.00000000000E+00 -0.74666508947E+00  0.74666508947E+00  0.00000000000E+00 0. -1.
          5    1    1    2  501    0  0.30640976654E+01  0.75123788878E+01  0.50312096622E+02  0.51178331329E+02  0.47000000000E+01 0. -1.
         -5    1    1    2    0  503 -0.30640976654E+01 -0.75123788878E+01  0.69783060280E+02  0.70410155752E+02  0.47000000000E+01 0. -1.
<mgrwt>
<rscale>  2 0.93762749E+01</rscale>
<asrwt>0</asrwt>
<pdfrwt beam="1">  1       21 0.18591034E-01 0.93762749E+01</pdfrwt>
<pdfrwt beam="2">  1       21 0.11487165E-03 0.93762749E+01</pdfrwt>
<totfact> 0.10930091E+09</totfact>
</mgrwt>
</event>
<event>
 4    1  0.4084348E+006  0.7534342E+01  0.7546771E-02  0.2250274E+00
         21   -1    0    0  501  502  0.00000000000E+00  0.00000000000E+00  0.40419957603E+00  0.40419957603E+00  0.00000000000E+00 0. -1.
         21   -1    0    0  502  503 -0.00000000000E+00 -0.00000000000E+00 -0.25242491253E+03  0.25242491253E+03  0.00000000000E+00 0.  1.
          5    1    1    2  501    0 -0.13050930392E+01  0.57422152299E+01 -0.41811098752E+02  0.42484518150E+02  0.47000000000E+01 0. -1.
         -5    1    1    2    0  503  0.13050930392E+01 -0.57422152299E+01 -0.21020961421E+03  0.21034459396E+03  0.47000000000E+01 0.  1.
<mgrwt>
<rscale>  2 0.75343416E+01</rscale>
<asrwt>0</asrwt>
<pdfrwt beam="1">  1       21 0.62184442E-04 0.75343416E+01</pdfrwt>
<pdfrwt beam="2">  1       21 0.38834669E-01 0.75343416E+01</pdfrwt>
<totfact> 0.63070027E+08</totfact>
</mgrwt>
</event>
<event>
 4    1  0.4084348E+006  0.5199669E+01  0.7546771E-02  0.2532907E+00
         21   -1    0    0  503  502  0.00000000000E+00  0.00000000000E+00  0.55664157764E+01  0.55664157764E+01  0.00000000000E+00 0.  1.
         21   -1    0    0  501  503 -0.00000000000E+00 -0.00000000000E+00 -0.81096741429E+01  0.81096741429E+01  0.00000000000E+00 0.  1.
          5    1    1    2  501    0  0.16063177581E+01 -0.15382798015E+01 -0.56021962711E+01  0.76433738982E+01  0.47000000000E+01 0.  1.
         -5    1    1    2    0  502 -0.16063177581E+01  0.15382798015E+01  0.30589379045E+01  0.60327160211E+01  0.47000000000E+01 0.  1.
<mgrwt>
<rscale>  2 0.51996694E+01</rscale>
<asrwt>0</asrwt>
<pdfrwt beam="1">  1       21 0.85637166E-03 0.51996694E+01</pdfrwt>
<pdfrwt beam="2">  1       21 0.12476422E-02 0.51996694E+01</pdfrwt>
<totfact> 0.25128592E+09</totfact>
</mgrwt>
</event>
<event>
 4    1  0.4084348E+006  0.8597192E+01  0.7546771E-02  0.2164883E+00
         21   -1    0    0  501  502  0.00000000000E+00  0.00000000000E+00  0.87350423073E+03  0.87350423073E+03  0.00000000000E+00 0.  1.
         21   -1    0    0  502  503 -0.00000000000E+00 -0.00000000000E+00 -0.26365479625E+00  0.26365479625E+00  0.00000000000E+00 0. -1.
          5    1    1    2  501    0  0.64200059957E+01 -0.32565665936E+01  0.79663714362E+03  0.79668353208E+03  0.47000000000E+01 0.  1.
         -5    1    1    2    0  503 -0.64200059957E+01  0.32565665936E+01  0.76603432317E+02  0.77084353443E+02  0.47000000000E+01 0. -1.
<mgrwt>
<rscale>  2 0.85971916E+01</rscale>
<asrwt>0</asrwt>
<pdfrwt beam="1">  1       21 0.13438295E+00 0.85971916E+01</pdfrwt>
<pdfrwt beam="2">  1       21 0.40562976E-04 0.85971916E+01</pdfrwt>
<totfact> 0.10618995E+08</totfact>
</mgrwt>
</event>
<event>
 4    1  0.4084348E+006  0.1736928E+02  0.7546771E-02  0.1803346E+00
         21   -1    0    0  503  502  0.00000000000E+00  0.00000000000E+00  0.54572846034E+02  0.54572846034E+02  0.00000000000E+00 0.  1.
         21   -1    0    0  501  503 -0.00000000000E+00 -0.00000000000E+00 -0.23970919359E+02  0.23970919359E+02  0.00000000000E+00 0. -1.
          5    1    1    2  501    0  0.50878234607E+01 -0.15928460601E+02 -0.19146034772E+02  0.25850772758E+02  0.47000000000E+01 0. -1.
         -5    1    1    2    0  502 -0.50878234607E+01  0.15928460601E+02  0.49747961448E+02  0.52692992635E+02  0.47000000000E+01 0.  1.
<mgrwt>
<rscale>  2 0.17369278E+02</rscale>
<asrwt>0</asrwt>
<pdfrwt beam="1">  1       21 0.83958225E-02 0.17369278E+02</pdfrwt>
<pdfrwt beam="2">  1       21 0.36878338E-02 0.17369278E+02</pdfrwt>
<totfact> 0.33408177E+07</totfact>
</mgrwt>
</event>
<event>
 4    1  0.4084348E+006  0.5464361E+01  0.7546771E-02  0.2490830E+00
         21   -1    0    0  503  502  0.00000000000E+00  0.00000000000E+00  0.36045570999E+02  0.36045570999E+02  0.00000000000E+00 0.  1.
         21   -1    0    0  501  503 -0.00000000000E+00 -0.00000000000E+00 -0.83146194018E+00  0.83146194018E+00  0.00000000000E+00 0.  1.
          5    1    1    2  501    0 -0.24335325545E+01 -0.13591025152E+01  0.16483517205E+02  0.17365643662E+02  0.47000000000E+01 0.  1.
         -5    1    1    2    0  502  0.24335325545E+01  0.13591025152E+01  0.18730591854E+02  0.19511389277E+02  0.47000000000E+01 0.  1.
<mgrwt>
<rscale>  2 0.54643609E+01</rscale>
<asrwt>0</asrwt>
<pdfrwt beam="1">  1       21 0.55454713E-02 0.54643609E+01</pdfrwt>
<pdfrwt beam="2">  1       21 0.12791725E-03 0.54643609E+01</pdfrwt>
<totfact> 0.41515260E+09</totfact>
</mgrwt>
</event>
<event>
 4    1  0.4084348E+006  0.1145829E+02  0.7546771E-02  0.2000404E+00
         21   -1    0    0  501  502  0.00000000000E+00  0.00000000000E+00  0.16333422559E+02  0.16333422559E+02  0.00000000000E+00 0. -1.
         21   -1    0    0  502  503 -0.00000000000E+00 -0.00000000000E+00 -0.17525011355E+02  0.17525011355E+02  0.00000000000E+00 0.  1.
          5    1    1    2  501    0 -0.53583864365E+01 -0.89716316168E+01  0.11859850575E+02  0.16490862158E+02  0.47000000000E+01 0. -1.
         -5    1    1    2    0  503  0.53583864365E+01  0.89716316168E+01 -0.13051439371E+02  0.17367571756E+02  0.47000000000E+01 0.  1.
<mgrwt>
<rscale>  2 0.11458293E+02</rscale>
<asrwt>0</asrwt>
<pdfrwt beam="1">  1       21 0.25128343E-02 0.11458293E+02</pdfrwt>
<pdfrwt beam="2">  1       21 0.26961556E-02 0.11458293E+02</pdfrwt>
<totfact> 0.30038773E+08</totfact>
</mgrwt>
</event>
<event>
 4    1  0.4084348E+006  0.1263385E+02  0.7546771E-02  0.1950227E+00
         21   -1    0    0  501  502  0.00000000000E+00  0.00000000000E+00  0.22580786346E+02  0.22580786346E+02  0.00000000000E+00 0.  1.
         21   -1    0    0  502  503 -0.00000000000E+00 -0.00000000000E+00 -0.80579641051E+01  0.80579641051E+01  0.00000000000E+00 0.  1.
          5    1    1    2  501    0 -0.90417199716E+01  0.74680313977E+01  0.12629378883E+02  0.17863801499E+02  0.47000000000E+01 0.  1.
         -5    1    1    2    0  503  0.90417199716E+01 -0.74680313977E+01  0.18934433581E+01  0.12774948953E+02  0.47000000000E+01 0.  1.
<mgrwt>
<rscale>  2 0.12633851E+02</rscale>
<asrwt>0</asrwt>
<pdfrwt beam="1">  1       21 0.34739671E-02 0.12633851E+02</pdfrwt>
<pdfrwt beam="2">  1       21 0.12396868E-02 0.12633851E+02</pdfrwt>
<totfact> 0.61335094E+08</totfact>
</mgrwt>
</event>
<event>
 4    1  0.4084348E+006  0.1184377E+02  0.7546771E-02  0.1983107E+00
         21   -1    0    0  501  502  0.00000000000E+00  0.00000000000E+00  0.10311749157E+03  0.10311749157E+03  0.00000000000E+00 0. -1.
         21   -1    0    0  502  503 -0.00000000000E+00 -0.00000000000E+00 -0.43297897199E+01  0.43297897199E+01  0.00000000000E+00 0.  1.
          5    1    1    2  501    0  0.82596625730E+01 -0.70684392743E+01  0.93884630246E+02  0.94628741173E+02  0.47000000000E+01 0. -1.
         -5    1    1    2    0  503 -0.82596625730E+01  0.70684392743E+01  0.49030716057E+01  0.12818540118E+02  0.47000000000E+01 0.  1.
<mgrwt>
<rscale>  2 0.11843769E+02</rscale>
<asrwt>0</asrwt>
<pdfrwt beam="1">  1       21 0.15864228E-01 0.11843769E+02</pdfrwt>
<pdfrwt beam="2">  1       21 0.66612157E-03 0.11843769E+02</pdfrwt>
<totfact> 0.13351452E+08</totfact>
</mgrwt>
</event>
<event>
 4    1  0.4084348E+006  0.8281186E+01  0.7546771E-02  0.2188423E+00
         21   -1    0    0  501  502  0.00000000000E+00  0.00000000000E+00  0.70462164738E+01  0.70462164738E+01  0.00000000000E+00 0. -1.
         21   -1    0    0  502  503 -0.00000000000E+00 -0.00000000000E+00 -0.12254425301E+02  0.12254425301E+02  0.00000000000E+00 0.  1.
          5    1    1    2  501    0 -0.14929902055E+01 -0.66527451122E+01  0.17736601569E+01  0.84689968493E+01  0.47000000000E+01 0. -1.
         -5    1    1    2    0  503  0.14929902055E+01  0.66527451122E+01 -0.69818689842E+01  0.10831644926E+02  0.47000000000E+01 0.  1.
<mgrwt>
<rscale>  2 0.82811857E+01</rscale>
<asrwt>0</asrwt>
<pdfrwt beam="1">  1       21 0.10840333E-02 0.82811857E+01</pdfrwt>
<pdfrwt beam="2">  1       21 0.18852962E-02 0.82811857E+01</pdfrwt>
<totfact> 0.14556736E+09</totfact>
</mgrwt>
</event>
<event>
 4    1  0.4084348E+006  0.7949742E+01  0.7546771E-02  0.2214714E+00
         21   -1    0    0  501  502  0.00000000000E+00  0.00000000000E+00  0.23338749749E+00  0.23338749749E+00  0.00000000000E+00 0. -1.
         21   -1    0    0  502  503 -0.00000000000E+00 -0.00000000000E+00 -0.30499268569E+03  0.30499268569E+03  0.00000000000E+00 0.  1.
          5    1    1    2  501    0  0.88058968455E-01  0.64109779634E+01 -0.10127109970E+03  0.10158264629E+03  0.47000000000E+01 0. -1.
         -5    1    1    2    0  503 -0.88058968455E-01 -0.64109779634E+01 -0.20348819849E+03  0.20364342690E+03  0.47000000000E+01 0.  1.
<mgrwt>
<rscale>  2 0.79497417E+01</rscale>
<asrwt>0</asrwt>
<pdfrwt beam="1">  1       21 0.35905934E-04 0.79497417E+01</pdfrwt>
<pdfrwt beam="2">  1       21 0.46921736E-01 0.79497417E+01</pdfrwt>
<totfact> 0.97585028E+08</totfact>
</mgrwt>
</event>
<event>
 4    1  0.4084348E+006  0.4751726E+01  0.7546771E-02  0.2613176E+00
         21   -1    0    0  503  502  0.00000000000E+00  0.00000000000E+00  0.76444966936E+02  0.76444966936E+02  0.00000000000E+00 0. -1.
         21   -1    0    0  501  503 -0.00000000000E+00 -0.00000000000E+00 -0.35729505866E+00  0.35729505866E+00  0.00000000000E+00 0. -1.
          5    1    1    2  501    0  0.64033138028E+00  0.28084061429E+00  0.22055851068E+02  0.22561902891E+02  0.47000000000E+01 0. -1.
         -5    1    1    2    0  502 -0.64033138028E+00 -0.28084061429E+00  0.54031820809E+02  0.54240359104E+02  0.47000000000E+01 0. -1.
<mgrwt>
<rscale>  2 0.47517256E+01</rscale>
<asrwt>0</asrwt>
<pdfrwt beam="1">  1       21 0.11760751E-01 0.47517256E+01</pdfrwt>
<pdfrwt beam="2">  1       21 0.54968531E-04 0.47517256E+01</pdfrwt>
<totfact> 0.35957344E+09</totfact>
</mgrwt>
</event>
<event>
 4    1  0.4084348E+006  0.9827676E+01  0.7546771E-02  0.2084930E+00
         21   -1    0    0  503  502  0.00000000000E+00  0.00000000000E+00  0.12148830931E+03  0.12148830931E+03  0.00000000000E+00 0.  1.
         21   -1    0    0  501  503 -0.00000000000E+00 -0.00000000000E+00 -0.36930113272E+01  0.36930113272E+01  0.00000000000E+00 0.  1.
          5    1    1    2  501    0 -0.35691254544E+00 -0.86235619695E+01  0.34517726939E+01  0.10416234557E+02  0.47000000000E+01 0.  1.
         -5    1    1    2    0  502  0.35691254544E+00  0.86235619695E+01  0.11434352528E+03  0.11476508608E+03  0.47000000000E+01 0.  1.
<mgrwt>
<rscale>  2 0.98276756E+01</rscale>
<asrwt>0</asrwt>
<pdfrwt beam="1">  1       21 0.18690506E-01 0.98276756E+01</pdfrwt>
<pdfrwt beam="2">  1       21 0.56815568E-03 0.98276756E+01</pdfrwt>
<totfact> 0.11783293E+08</totfact>
</mgrwt>
</event>
<event>
 4    1  0.4084348E+006  0.4946956E+01  0.7546771E-02  0.2576651E+00
         21   -1    0    0  503  502  0.00000000000E+00  0.00000000000E+00  0.58160313674E-01  0.58160313674E-01  0.00000000000E+00 0.  1.
         21   -1    0    0  501  503 -0.00000000000E+00 -0.00000000000E+00 -0.48738670348E+03  0.48738670348E+03  0.00000000000E+00 0.  1.
          5    1    1    2  501    0  0.77347677542E+00 -0.13357037436E+01 -0.33376657757E+03  0.33380323646E+03  0.47000000000E+01 0. -1.
         -5    1    1    2    0  502 -0.77347677542E+00  0.13357037436E+01 -0.15356196560E+03  0.15364162733E+03  0.47000000000E+01 0. -1.
<mgrwt>
<rscale>  2 0.49469557E+01</rscale>
<asrwt>0</asrwt>
<pdfrwt beam="1">  1       21 0.89474568E-05 0.49469557E+01</pdfrwt>
<pdfrwt beam="2">  1       21 0.74984948E-01 0.49469557E+01</pdfrwt>
<totfact> 0.18641020E+09</totfact>
</mgrwt>
</event>
<event>
 4    1  0.4084348E+006  0.8552568E+01  0.7546771E-02  0.2168122E+00
         21   -1    0    0  503  502  0.00000000000E+00  0.00000000000E+00  0.31483550227E+01  0.31483550227E+01  0.00000000000E+00 0.  1.
         21   -1    0    0  501  503 -0.00000000000E+00 -0.00000000000E+00 -0.31200366235E+02  0.31200366235E+02  0.00000000000E+00 0. -1.
          5    1    1    2  501    0 -0.66594084490E+01  0.25901148094E+01 -0.22704656255E+02  0.24262065684E+02  0.47000000000E+01 0. -1.
         -5    1    1    2    0  502  0.66594084490E+01 -0.25901148094E+01 -0.53473549575E+01  0.10086655573E+02  0.47000000000E+01 0.  1.
<mgrwt>
<rscale>  2 0.85525678E+01</rscale>
<asrwt>0</asrwt>
<pdfrwt beam="1">  1       21 0.48436229E-03 0.85525678E+01</pdfrwt>
<pdfrwt beam="2">  1       21 0.48000565E-02 0.85525678E+01</pdfrwt>
<totfact> 0.11705653E+09</totfact>
</mgrwt>
</event>
<event>
 4    1  0.4084348E+006  0.5857403E+01  0.7546771E-02  0.2434361E+00
         21   -1    0    0  501  502  0.00000000000E+00  0.00000000000E+00  0.84389401058E+02  0.84389401058E+02  0.00000000000E+00 0.  1.
         21   -1    0    0  502  503 -0.00000000000E+00 -0.00000000000E+00 -0.80368621766E+00  0.80368621766E+00  0.00000000000E+00 0. -1.
          5    1    1    2  501    0  0.71710089328E+00  0.34212472383E+01  0.71735946482E+02  0.71974684328E+02  0.47000000000E+01 0.  1.
         -5    1    1    2    0  503 -0.71710089328E+00 -0.34212472383E+01  0.11849768358E+02  0.13218402948E+02  0.47000000000E+01 0. -1.
<mgrwt>
<rscale>  2 0.58574027E+01</rscale>
<asrwt>0</asrwt>
<pdfrwt beam="1">  1       21 0.12982978E-01 0.58574027E+01</pdfrwt>
<pdfrwt beam="2">  1       21 0.12364410E-03 0.58574027E+01</pdfrwt>
<totfact> 0.12725531E+09</totfact>
</mgrwt>
</event>
<event>
 4    1  0.4084348E+006  0.4786618E+01  0.7546771E-02  0.2606459E+00
         21   -1    0    0  501  502  0.00000000000E+00  0.00000000000E+00  0.32831627198E+02  0.32831627198E+02  0.00000000000E+00 0.  1.
         21   -1    0    0  502  503 -0.00000000000E+00 -0.00000000000E+00 -0.94840080779E+00  0.94840080779E+00  0.00000000000E+00 0.  1.
          5    1    1    2  501    0  0.52113850335E-01  0.90498301123E+00  0.24622773116E+02  0.25083713162E+02  0.47000000000E+01 0.  1.
         -5    1    1    2    0  503 -0.52113850335E-01 -0.90498301123E+00  0.72604532742E+01  0.86963148431E+01  0.47000000000E+01 0.  1.
<mgrwt>
<rscale>  2 0.47866178E+01</rscale>
<asrwt>0</asrwt>
<pdfrwt beam="1">  1       21 0.50510187E-02 0.47866178E+01</pdfrwt>
<pdfrwt beam="2">  1       21 0.14590784E-03 0.47866178E+01</pdfrwt>
<totfact> 0.34927392E+09</totfact>
</mgrwt>
</event>
<event>
 4    1  0.4084348E+006  0.9048949E+01  0.7546771E-02  0.2133530E+00
         21   -1    0    0  501  502  0.00000000000E+00  0.00000000000E+00  0.37450117998E+01  0.37450117998E+01  0.00000000000E+00 0. -1.
         21   -1    0    0  502  503 -0.00000000000E+00 -0.00000000000E+00 -0.23430565358E+02  0.23430565358E+02  0.00000000000E+00 0. -1.
          5    1    1    2  501    0  0.50876852250E+01 -0.58231373030E+01 -0.63301018899E+01  0.11043263056E+02  0.47000000000E+01 0. -1.
         -5    1    1    2    0  503 -0.50876852250E+01  0.58231373030E+01 -0.13355451668E+02  0.16132314101E+02  0.47000000000E+01 0. -1.
<mgrwt>
<rscale>  2 0.90489485E+01</rscale>
<asrwt>0</asrwt>
<pdfrwt beam="1">  1       21 0.57615566E-03 0.90489485E+01</pdfrwt>
<pdfrwt beam="2">  1       21 0.36047024E-02 0.90489485E+01</pdfrwt>
<totfact> 0.14612098E+09</totfact>
</mgrwt>
</event>
<event>
 4    1  0.4084348E+006  0.8235325E+01  0.7546771E-02  0.2191959E+00
         21   -1    0    0  503  502  0.00000000000E+00  0.00000000000E+00  0.49511916653E+00  0.49511916653E+00  0.00000000000E+00 0.  1.
         21   -1    0    0  501  503 -0.00000000000E+00 -0.00000000000E+00 -0.31198193598E+03  0.31198193598E+03  0.00000000000E+00 0.  1.
          5    1    1    2  501    0  0.64612446977E+01  0.19957182888E+01 -0.27275987149E+03  0.27288416603E+03  0.47000000000E+01 0.  1.
         -5    1    1    2    0  502 -0.64612446977E+01 -0.19957182888E+01 -0.38726945328E+02  0.39592889121E+02  0.47000000000E+01 0.  1.
<mgrwt>
<rscale>  2 0.82353248E+01</rscale>
<asrwt>0</asrwt>
<pdfrwt beam="1">  1       21 0.76171918E-04 0.82353248E+01</pdfrwt>
<pdfrwt beam="2">  1       21 0.47997385E-01 0.82353248E+01</pdfrwt>
<totfact> 0.34453038E+08</totfact>
</mgrwt>
</event>
<event>
 4    1  0.4084348E+006  0.4862202E+01  0.7546771E-02  0.2592195E+00
         21   -1    0    0  503  502  0.00000000000E+00  0.00000000000E+00  0.47669437027E+03  0.47669437027E+03  0.00000000000E+00 0. -1.
         21   -1    0    0  501  503 -0.00000000000E+00 -0.00000000000E+00 -0.12404372335E+00  0.12404372335E+00  0.00000000000E+00 0. -1.
          5    1    1    2  501    0  0.10861912794E+01 -0.60925668367E+00  0.53584589904E+02  0.53804732881E+02  0.47000000000E+01 0. -1.
         -5    1    1    2    0  502 -0.10861912794E+01  0.60925668367E+00  0.42298573664E+03  0.42301368111E+03  0.47000000000E+01 0. -1.
<mgrwt>
<rscale>  2 0.48622017E+01</rscale>
<asrwt>0</asrwt>
<pdfrwt beam="1">  1       21 0.73336129E-01 0.48622017E+01</pdfrwt>
<pdfrwt beam="2">  1       21 0.19084031E-04 0.48622017E+01</pdfrwt>
<totfact> 0.70338304E+08</totfact>
</mgrwt>
</event>
<event>
 4    1  0.4084348E+006  0.4777641E+01  0.7546771E-02  0.2608179E+00
         21   -1    0    0  503  502  0.00000000000E+00  0.00000000000E+00  0.91451601850E+01  0.91451601850E+01  0.00000000000E+00 0. -1.
         21   -1    0    0  501  503 -0.00000000000E+00 -0.00000000000E+00 -0.51497804964E+01  0.51497804964E+01  0.00000000000E+00 0. -1.
          5    1    1    2  501    0 -0.23168171819E+00 -0.82594078280E+00 -0.31332233156E+01  0.57134002959E+01  0.47000000000E+01 0. -1.
         -5    1    1    2    0  502  0.23168171819E+00  0.82594078280E+00  0.71286030043E+01  0.85815403855E+01  0.47000000000E+01 0. -1.
<mgrwt>
<rscale>  2 0.47776411E+01</rscale>
<asrwt>0</asrwt>
<pdfrwt beam="1">  1       21 0.14069477E-02 0.47776411E+01</pdfrwt>
<pdfrwt beam="2">  1       21 0.79227392E-03 0.47776411E+01</pdfrwt>
<totfact> 0.21701222E+09</totfact>
</mgrwt>
</event>
<event>
 4    1  0.4084348E+006  0.5273509E+01  0.7546771E-02  0.2520807E+00
         21   -1    0    0  501  502  0.00000000000E+00  0.00000000000E+00  0.34139950300E+00  0.34139950300E+00  0.00000000000E+00 0.  1.
         21   -1    0    0  502  503 -0.00000000000E+00 -0.00000000000E+00 -0.95406297528E+02  0.95406297528E+02  0.00000000000E+00 0. -1.
          5    1    1    2  501    0 -0.17935072656E+01  0.15821594506E+01 -0.29227758520E+02  0.29699693011E+02  0.47000000000E+01 0.  1.
         -5    1    1    2    0  503  0.17935072656E+01 -0.15821594506E+01 -0.65837139505E+02  0.66048004020E+02  0.47000000000E+01 0. -1.
<mgrwt>
<rscale>  2 0.52735090E+01</rscale>
<asrwt>0</asrwt>
<pdfrwt beam="1">  1       21 0.52522991E-04 0.52735090E+01</pdfrwt>
<pdfrwt beam="2">  1       21 0.14677894E-01 0.52735090E+01</pdfrwt>
<totfact> 0.30095183E+09</totfact>
</mgrwt>
</event>
<event>
 4    1  0.4084348E+006  0.5167649E+01  0.7546771E-02  0.2538246E+00
         21   -1    0    0  503  502  0.00000000000E+00  0.00000000000E+00  0.32279113064E+02  0.32279113064E+02  0.00000000000E+00 0.  1.
         21   -1    0    0  501  503 -0.00000000000E+00 -0.00000000000E+00 -0.11892827953E+01  0.11892827953E+01  0.00000000000E+00 0.  1.
          5    1    1    2  501    0  0.21474309400E+01  0.56030253749E-01  0.63127269595E+01  0.81581321819E+01  0.47000000000E+01 0.  1.
         -5    1    1    2    0  502 -0.21474309400E+01 -0.56030253749E-01  0.24777103309E+02  0.25310263678E+02  0.47000000000E+01 0.  1.
<mgrwt>
<rscale>  2 0.51676493E+01</rscale>
<asrwt>0</asrwt>
<pdfrwt beam="1">  1       21 0.49660167E-02 0.51676493E+01</pdfrwt>
<pdfrwt beam="2">  1       21 0.18296661E-03 0.51676493E+01</pdfrwt>
<totfact> 0.28591072E+09</totfact>
</mgrwt>
</event>
<event>
 4    1  0.4084348E+006  0.6515377E+01  0.7546771E-02  0.2352813E+00
         21   -1    0    0  503  502  0.00000000000E+00  0.00000000000E+00  0.98153322724E+00  0.98153322724E+00  0.00000000000E+00 0.  1.
         21   -1    0    0  501  503 -0.00000000000E+00 -0.00000000000E+00 -0.14104677878E+03  0.14104677878E+03  0.00000000000E+00 0.  1.
          5    1    1    2  501    0  0.40932285236E+01  0.18988468980E+01 -0.12916539938E+03  0.12932961971E+03  0.47000000000E+01 0.  1.
         -5    1    1    2    0  502 -0.40932285236E+01 -0.18988468980E+01 -0.10899846176E+02  0.12698692292E+02  0.47000000000E+01 0.  1.
<mgrwt>
<rscale>  2 0.65153771E+01</rscale>
<asrwt>0</asrwt>
<pdfrwt beam="1">  1       21 0.15100517E-03 0.65153771E+01</pdfrwt>
<pdfrwt beam="2">  1       21 0.21699496E-01 0.65153771E+01</pdfrwt>
<totfact> 0.46338611E+08</totfact>
</mgrwt>
</event>
<event>
 4    1  0.4084348E+006  0.1216774E+02  0.7546771E-02  0.1969228E+00
         21   -1    0    0  503  502  0.00000000000E+00  0.00000000000E+00  0.40874980061E+02  0.40874980061E+02  0.00000000000E+00 0.  1.
         21   -1    0    0  501  503 -0.00000000000E+00 -0.00000000000E+00 -0.45876827387E+01  0.45876827387E+01  0.00000000000E+00 0. -1.
          5    1    1    2  501    0  0.38979320202E+01 -0.10524737490E+02  0.77152161044E+01  0.14407585946E+02  0.47000000000E+01 0.  1.
         -5    1    1    2    0  502 -0.38979320202E+01  0.10524737490E+02  0.28572081218E+02  0.31055076854E+02  0.47000000000E+01 0. -1.
<mgrwt>
<rscale>  2 0.12167743E+02</rscale>
<asrwt>0</asrwt>
<pdfrwt beam="1">  1       21 0.62884582E-02 0.12167743E+02</pdfrwt>
<pdfrwt beam="2">  1       21 0.70579737E-03 0.12167743E+02</pdfrwt>
<totfact> 0.54924286E+08</totfact>
</mgrwt>
</event>
<event>
 4    1  0.4084348E+006  0.1176573E+02  0.7546771E-02  0.1986538E+00
         21   -1    0    0  503  502  0.00000000000E+00  0.00000000000E+00  0.21604735890E+02  0.21604735890E+02  0.00000000000E+00 0.  1.
         21   -1    0    0  501  503 -0.00000000000E+00 -0.00000000000E+00 -0.68942597550E+01  0.68942597550E+01  0.00000000000E+00 0.  1.
          5    1    1    2  501    0 -0.99121416723E+01 -0.42534575169E+01  0.35689745522E+01  0.12295122315E+02  0.47000000000E+01 0.  1.
         -5    1    1    2    0  502  0.99121416723E+01  0.42534575169E+01  0.11141501582E+02  0.16203873330E+02  0.47000000000E+01 0.  1.
<mgrwt>
<rscale>  2 0.11765732E+02</rscale>
<asrwt>0</asrwt>
<pdfrwt beam="1">  1       21 0.33238055E-02 0.11765732E+02</pdfrwt>
<pdfrwt beam="2">  1       21 0.10606554E-02 0.11765732E+02</pdfrwt>
<totfact> 0.79627879E+08</totfact>
</mgrwt>
</event>
<event>
 4    1  0.4084348E+006  0.6579900E+01  0.7546771E-02  0.2345552E+00
         21   -1    0    0  501  502  0.00000000000E+00  0.00000000000E+00  0.93723865546E+02  0.93723865546E+02  0.00000000000E+00 0. -1.
         21   -1    0    0  502  503 -0.00000000000E+00 -0.00000000000E+00 -0.56876058511E+00  0.56876058511E+00  0.00000000000E+00 0. -1.
          5    1    1    2  501    0  0.28736946618E+01 -0.35981890354E+01  0.67009244328E+02  0.67331522415E+02  0.47000000000E+01 0. -1.
         -5    1    1    2    0  503 -0.28736946618E+01  0.35981890354E+01  0.26145860633E+02  0.26961103716E+02  0.47000000000E+01 0. -1.
<mgrwt>
<rscale>  2 0.65799001E+01</rscale>
<asrwt>0</asrwt>
<pdfrwt beam="1">  1       21 0.14419044E-01 0.65799001E+01</pdfrwt>
<pdfrwt beam="2">  1       21 0.87501703E-04 0.65799001E+01</pdfrwt>
<totfact> 0.18859157E+09</totfact>
</mgrwt>
</event>
<event>
 4    1  0.4084348E+006  0.7179161E+01  0.7546771E-02  0.2283302E+00
         21   -1    0    0  501  502  0.00000000000E+00  0.00000000000E+00  0.15985055396E+04  0.15985055396E+04  0.00000000000E+00 0. -1.
         21   -1    0    0  502  503 -0.00000000000E+00 -0.00000000000E+00 -0.46225543819E-01  0.46225543819E-01  0.00000000000E+00 0. -1.
          5    1    1    2  501    0 -0.54249101027E+01  0.14388398665E+00  0.12388232287E+04  0.12388440307E+04  0.47000000000E+01 0. -1.
         -5    1    1    2    0  503  0.54249101027E+01 -0.14388398665E+00  0.35963608533E+03  0.35970773445E+03  0.47000000000E+01 0. -1.
<mgrwt>
<rscale>  2 0.71791610E+01</rscale>
<asrwt>0</asrwt>
<pdfrwt beam="1">  1       21 0.24587966E+00 0.71791610E+01</pdfrwt>
<pdfrwt beam="2">  1       21 0.71129024E-05 0.71791610E+01</pdfrwt>
<totfact> 0.25844572E+08</totfact>
</mgrwt>
</event>
<event>
 4    1  0.4084348E+006  0.5717949E+01  0.7546771E-02  0.2453645E+00
         21   -1    0    0  501  502  0.00000000000E+00  0.00000000000E+00  0.28228072761E+01  0.28228072761E+01  0.00000000000E+00 0. -1.
         21   -1    0    0  502  503 -0.00000000000E+00 -0.00000000000E+00 -0.12506476107E+02  0.12506476107E+02  0.00000000000E+00 0. -1.
          5    1    1    2  501    0 -0.31762227642E+01 -0.71871450682E+00 -0.27584310038E+01  0.63485339404E+01  0.47000000000E+01 0. -1.
         -5    1    1    2    0  503  0.31762227642E+01  0.71871450682E+00 -0.69252378273E+01  0.89807494428E+01  0.47000000000E+01 0. -1.
<mgrwt>
<rscale>  2 0.57179491E+01</rscale>
<asrwt>0</asrwt>
<pdfrwt beam="1">  1       21 0.43427805E-03 0.57179491E+01</pdfrwt>
<pdfrwt beam="2">  1       21 0.19240732E-02 0.57179491E+01</pdfrwt>
<totfact> 0.38200227E+09</totfact>
</mgrwt>
</event>
<event>
 4    1  0.4084348E+006  0.4717382E+01  0.7546771E-02  0.2619872E+00
         21   -1    0    0  503  502  0.00000000000E+00  0.00000000000E+00  0.42243875088E+00  0.42243875088E+00  0.00000000000E+00 0.  1.
         21   -1    0    0  501  503 -0.00000000000E+00 -0.00000000000E+00 -0.56394961363E+02  0.56394961363E+02  0.00000000000E+00 0.  1.
          5    1    1    2  501    0 -0.29745365484E+00  0.27425577417E+00 -0.35278497469E+02  0.35592500314E+02  0.47000000000E+01 0.  1.
         -5    1    1    2    0  502  0.29745365484E+00 -0.27425577417E+00 -0.20694025143E+02  0.21224899800E+02  0.47000000000E+01 0.  1.
<mgrwt>
<rscale>  2 0.47173822E+01</rscale>
<asrwt>0</asrwt>
<pdfrwt beam="1">  1       21 0.64990609E-04 0.47173822E+01</pdfrwt>
<pdfrwt beam="2">  1       21 0.86761436E-02 0.47173822E+01</pdfrwt>
<totfact> 0.45235723E+09</totfact>
</mgrwt>
</event>
<event>
 4    1  0.4084348E+006  0.5745984E+01  0.7546771E-02  0.2449705E+00
         21   -1    0    0  501  502  0.00000000000E+00  0.00000000000E+00  0.62608526159E+01  0.62608526159E+01  0.00000000000E+00 0. -1.
         21   -1    0    0  502  503 -0.00000000000E+00 -0.00000000000E+00 -0.98373581926E+01  0.98373581926E+01  0.00000000000E+00 0. -1.
          5    1    1    2  501    0 -0.31558617234E+01 -0.98329424432E+00  0.36942206522E+01  0.68310758315E+01  0.47000000000E+01 0. -1.
         -5    1    1    2    0  503  0.31558617234E+01  0.98329424432E+00 -0.72707262288E+01  0.92671349771E+01  0.47000000000E+01 0. -1.
<mgrwt>
<rscale>  2 0.57459839E+01</rscale>
<asrwt>0</asrwt>
<pdfrwt beam="1">  1       21 0.96320810E-03 0.57459839E+01</pdfrwt>
<pdfrwt beam="2">  1       21 0.15134397E-02 0.57459839E+01</pdfrwt>
<totfact> 0.17807249E+09</totfact>
</mgrwt>
</event>
<event>
 4    1  0.4084348E+006  0.5492682E+01  0.7546771E-02  0.2486533E+00
         21   -1    0    0  503  502  0.00000000000E+00  0.00000000000E+00  0.85886597030E+00  0.85886597030E+00  0.00000000000E+00 0. -1.
         21   -1    0    0  501  503 -0.00000000000E+00 -0.00000000000E+00 -0.40387301134E+02  0.40387301134E+02  0.00000000000E+00 0. -1.
          5    1    1    2  501    0 -0.20538185098E+01 -0.19650415568E+01 -0.27206876766E+02  0.27755786823E+02  0.47000000000E+01 0. -1.
         -5    1    1    2    0  502  0.20538185098E+01  0.19650415568E+01 -0.12321558397E+02  0.13490380281E+02  0.47000000000E+01 0. -1.
<mgrwt>
<rscale>  2 0.54926823E+01</rscale>
<asrwt>0</asrwt>
<pdfrwt beam="1">  1       21 0.13213320E-03 0.54926823E+01</pdfrwt>
<pdfrwt beam="2">  1       21 0.62134324E-02 0.54926823E+01</pdfrwt>
<totfact> 0.33742335E+09</totfact>
</mgrwt>
</event>
<event>
 4    1  0.4084348E+006  0.5932903E+01  0.7546771E-02  0.2424239E+00
         21   -1    0    0  503  502  0.00000000000E+00  0.00000000000E+00  0.13317588657E+04  0.13317588657E+04  0.00000000000E+00 0. -1.
         21   -1    0    0  501  503 -0.00000000000E+00 -0.00000000000E+00 -0.29643790248E-01  0.29643790248E-01  0.00000000000E+00 0. -1.
          5    1    1    2  501    0 -0.11625870323E+01 -0.34289546802E+01  0.44663517747E+03  0.44667458076E+03  0.47000000000E+01 0. -1.
         -5    1    1    2    0  502  0.11625870323E+01  0.34289546802E+01  0.88509404447E+03  0.88511392877E+03  0.47000000000E+01 0. -1.
<mgrwt>
<rscale>  2 0.59329031E+01</rscale>
<asrwt>0</asrwt>
<pdfrwt beam="1">  1       21 0.20483807E+00 0.59329031E+01</pdfrwt>
<pdfrwt beam="2">  1       21 0.45616497E-05 0.59329031E+01</pdfrwt>
<totfact> 0.65280746E+08</totfact>
</mgrwt>
</event>
<event>
 4    1  0.4084348E+006  0.5738435E+01  0.7546771E-02  0.2450763E+00
         21   -1    0    0  501  502  0.00000000000E+00  0.00000000000E+00  0.89183149945E+03  0.89183149945E+03  0.00000000000E+00 0.  1.
         21   -1    0    0  502  503 -0.00000000000E+00 -0.00000000000E+00 -0.68656442586E-01  0.68656442586E-01  0.00000000000E+00 0.  1.
          5    1    1    2  501    0  0.25095029202E+01 -0.21312050155E+01  0.74906104298E+03  0.74908302326E+03  0.47000000000E+01 0.  1.
         -5    1    1    2    0  503 -0.25095029202E+01  0.21312050155E+01  0.14270180003E+03  0.14281713263E+03  0.47000000000E+01 0.  1.
<mgrwt>
<rscale>  2 0.57384353E+01</rscale>
<asrwt>0</asrwt>
<pdfrwt beam="1">  1       21 0.13719557E+00 0.57384353E+01</pdfrwt>
<pdfrwt beam="2">  1       21 0.10563244E-04 0.57384353E+01</pdfrwt>
<totfact> 0.49619686E+08</totfact>
</mgrwt>
</event>
<event>
 4    1  0.4084348E+006  0.2000686E+02  0.7546771E-02  0.1745192E+00
         21   -1    0    0  503  502  0.00000000000E+00  0.00000000000E+00  0.36328313240E+01  0.36328313240E+01  0.00000000000E+00 0. -1.
         21   -1    0    0  501  503 -0.00000000000E+00 -0.00000000000E+00 -0.14062553705E+03  0.14062553705E+03  0.00000000000E+00 0.  1.
          5    1    1    2  501    0 -0.32780089225E+01 -0.19168703364E+02 -0.34936292981E+02  0.40259397641E+02  0.47000000000E+01 0. -1.
         -5    1    1    2    0  502  0.32780089225E+01  0.19168703364E+02 -0.10205641275E+03  0.10399897073E+03  0.47000000000E+01 0.  1.
<mgrwt>
<rscale>  2 0.20006862E+02</rscale>
<asrwt>0</asrwt>
<pdfrwt beam="1">  1       21 0.55889723E-03 0.20006862E+02</pdfrwt>
<pdfrwt beam="2">  1       21 0.21634694E-01 0.20006862E+02</pdfrwt>
<totfact> 0.12268576E+08</totfact>
</mgrwt>
</event>
<event>
 4    1  0.4084348E+006  0.3592477E+02  0.7546771E-02  0.1540538E+00
         21   -1    0    0  501  502  0.00000000000E+00  0.00000000000E+00  0.84407740226E+01  0.84407740226E+01  0.00000000000E+00 0. -1.
         21   -1    0    0  502  503 -0.00000000000E+00 -0.00000000000E+00 -0.19976290350E+03  0.19976290350E+03  0.00000000000E+00 0.  1.
          5    1    1    2  501    0  0.35304998122E+02 -0.46964289308E+01 -0.45239266886E+02  0.57768335665E+02  0.47000000000E+01 0. -1.
         -5    1    1    2    0  503 -0.35304998122E+02  0.46964289308E+01 -0.14608286259E+03  0.15043534186E+03  0.47000000000E+01 0.  1.
<mgrwt>
<rscale>  2 0.35924773E+02</rscale>
<asrwt>0</asrwt>
<pdfrwt beam="1">  1       21 0.12985806E-02 0.35924773E+02</pdfrwt>
<pdfrwt beam="2">  1       21 0.30732755E-01 0.35924773E+02</pdfrwt>
<totfact> 0.20985079E+07</totfact>
</mgrwt>
</event>
<event>
 4    1  0.4084348E+006  0.6971639E+01  0.7546771E-02  0.2303862E+00
         21   -1    0    0  503  502  0.00000000000E+00  0.00000000000E+00  0.55709310176E+00  0.55709310176E+00  0.00000000000E+00 0. -1.
         21   -1    0    0  501  503 -0.00000000000E+00 -0.00000000000E+00 -0.92307241851E+02  0.92307241851E+02  0.00000000000E+00 0. -1.
          5    1    1    2  501    0  0.46041035655E+01 -0.23056412314E+01 -0.56748338254E+02  0.57174973946E+02  0.47000000000E+01 0. -1.
         -5    1    1    2    0  502 -0.46041035655E+01  0.23056412314E+01 -0.35001810496E+02  0.35689361007E+02  0.47000000000E+01 0. -1.
<mgrwt>
<rscale>  2 0.69716391E+01</rscale>
<asrwt>0</asrwt>
<pdfrwt beam="1">  1       21 0.85706592E-04 0.69716391E+01</pdfrwt>
<pdfrwt beam="2">  1       21 0.14201121E-01 0.69716391E+01</pdfrwt>
<totfact> 0.20751677E+09</totfact>
</mgrwt>
</event>
<event>
 4    1  0.4084348E+006  0.6472348E+01  0.7546771E-02  0.2357722E+00
         21   -1    0    0  503  502  0.00000000000E+00  0.00000000000E+00  0.75869960723E+01  0.75869960723E+01  0.00000000000E+00 0. -1.
         21   -1    0    0  501  503 -0.00000000000E+00 -0.00000000000E+00 -0.10223480426E+02  0.10223480426E+02  0.00000000000E+00 0.  1.
          5    1    1    2  501    0  0.92065176800E+00 -0.43535837156E+01 -0.73575677298E+01  0.97992394473E+01  0.47000000000E+01 0.  1.
         -5    1    1    2    0  502 -0.92065176800E+00  0.43535837156E+01  0.47210833760E+01  0.80112370511E+01  0.47000000000E+01 0. -1.
<mgrwt>
<rscale>  2 0.64723482E+01</rscale>
<asrwt>0</asrwt>
<pdfrwt beam="1">  1       21 0.11672302E-02 0.64723482E+01</pdfrwt>
<pdfrwt beam="2">  1       21 0.15728431E-02 0.64723482E+01</pdfrwt>
<totfact> 0.14201411E+09</totfact>
</mgrwt>
</event>
<event>
 4    1  0.4084348E+006  0.1476185E+02  0.7546771E-02  0.1875424E+00
         21   -1    0    0  503  502  0.00000000000E+00  0.00000000000E+00  0.13805122166E+02  0.13805122166E+02  0.00000000000E+00 0.  1.
         21   -1    0    0  501  503 -0.00000000000E+00 -0.00000000000E+00 -0.30399485220E+02  0.30399485220E+02  0.00000000000E+00 0. -1.
          5    1    1    2  501    0 -0.12381713178E+02 -0.65203936983E+01 -0.23622086878E+02  0.27855257021E+02  0.47000000000E+01 0. -1.
         -5    1    1    2    0  502  0.12381713178E+02  0.65203936983E+01  0.70277238250E+01  0.16349350365E+02  0.47000000000E+01 0.  1.
<mgrwt>
<rscale>  2 0.14761855E+02</rscale>
<asrwt>0</asrwt>
<pdfrwt beam="1">  1       21 0.21238650E-02 0.14761855E+02</pdfrwt>
<pdfrwt beam="2">  1       21 0.46768438E-02 0.14761855E+02</pdfrwt>
<totfact> 0.18601757E+08</totfact>
</mgrwt>
</event>
<event>
 4    1  0.4084348E+006  0.1050987E+02  0.7546771E-02  0.2047081E+00
         21   -1    0    0  501  502  0.00000000000E+00  0.00000000000E+00  0.15755593832E+03  0.15755593832E+03  0.00000000000E+00 0. -1.
         21   -1    0    0  502  503 -0.00000000000E+00 -0.00000000000E+00 -0.91497393655E+00  0.91497393655E+00  0.00000000000E+00 0. -1.
          5    1    1    2  501    0  0.83589178521E+01  0.43006910698E+01  0.11663174435E+03  0.11710431778E+03  0.47000000000E+01 0. -1.
         -5    1    1    2    0  503 -0.83589178521E+01 -0.43006910698E+01  0.40009220029E+02  0.41366594478E+02  0.47000000000E+01 0. -1.
<mgrwt>
<rscale>  2 0.10509874E+02</rscale>
<asrwt>0</asrwt>
<pdfrwt beam="1">  1       21 0.24239354E-01 0.10509874E+02</pdfrwt>
<pdfrwt beam="2">  1       21 0.14076535E-03 0.10509874E+02</pdfrwt>
<totfact> 0.56165119E+08</totfact>
</mgrwt>
</event>
<event>
 4    1  0.4084348E+006  0.4877540E+01  0.7546771E-02  0.2589347E+00
         21   -1    0    0  503  502  0.00000000000E+00  0.00000000000E+00  0.18480994893E+02  0.18480994893E+02  0.00000000000E+00 0. -1.
         21   -1    0    0  501  503 -0.00000000000E+00 -0.00000000000E+00 -0.14326316529E+01  0.14326316529E+01  0.00000000000E+00 0. -1.
          5    1    1    2  501    0 -0.63916419135E-01 -0.13024268627E+01  0.53528033371E+01  0.72417473449E+01  0.47000000000E+01 0. -1.
         -5    1    1    2    0  502  0.63916419135E-01  0.13024268627E+01  0.11695559903E+02  0.12671879201E+02  0.47000000000E+01 0. -1.
<mgrwt>
<rscale>  2 0.48775405E+01</rscale>
<asrwt>0</asrwt>
<pdfrwt beam="1">  1       21 0.28432298E-02 0.48775405E+01</pdfrwt>
<pdfrwt beam="2">  1       21 0.22040488E-03 0.48775405E+01</pdfrwt>
<totfact> 0.46992033E+09</totfact>
</mgrwt>
</event>
<event>
 4    1  0.4084348E+006  0.5345260E+01  0.7546771E-02  0.2509323E+00
         21   -1    0    0  501  502  0.00000000000E+00  0.00000000000E+00  0.26262957235E+01  0.26262957235E+01  0.00000000000E+00 0. -1.
         21   -1    0    0  502  503 -0.00000000000E+00 -0.00000000000E+00 -0.10905508713E+02  0.10905508713E+02  0.00000000000E+00 0. -1.
          5    1    1    2  501    0  0.17689781859E+01 -0.18309875957E+01 -0.38068160000E+01  0.65622898028E+01  0.47000000000E+01 0. -1.
         -5    1    1    2    0  503 -0.17689781859E+01  0.18309875957E+01 -0.44723969898E+01  0.69695146339E+01  0.47000000000E+01 0. -1.
<mgrwt>
<rscale>  2 0.53452595E+01</rscale>
<asrwt>0</asrwt>
<pdfrwt beam="1">  1       21 0.40404549E-03 0.53452595E+01</pdfrwt>
<pdfrwt beam="2">  1       21 0.16777706E-02 0.53452595E+01</pdfrwt>
<totfact> 0.48065441E+09</totfact>
</mgrwt>
</event>
<event>
 4    1  0.4084348E+006  0.4982526E+01  0.7546771E-02  0.2570263E+00
         21   -1    0    0  503  502  0.00000000000E+00  0.00000000000E+00  0.18149664488E+02  0.18149664488E+02  0.00000000000E+00 0.  1.
         21   -1    0    0  501  503 -0.00000000000E+00 -0.00000000000E+00 -0.14044825372E+01  0.14044825372E+01  0.00000000000E+00 0.  1.
          5    1    1    2  501    0 -0.11675703895E+01 -0.11714709333E+01  0.67930446312E+01  0.84244299584E+01  0.47000000000E+01 0.  1.
         -5    1    1    2    0  502  0.11675703895E+01  0.11714709333E+01  0.99521373197E+01  0.11129717067E+02  0.47000000000E+01 0.  1.
<mgrwt>
<rscale>  2 0.49825259E+01</rscale>
<asrwt>0</asrwt>
<pdfrwt beam="1">  1       21 0.27922559E-02 0.49825259E+01</pdfrwt>
<pdfrwt beam="2">  1       21 0.21607425E-03 0.49825259E+01</pdfrwt>
<totfact> 0.50665765E+09</totfact>
</mgrwt>
</event>
<event>
 4    1  0.4084348E+006  0.5302729E+01  0.7546771E-02  0.2516098E+00
         21   -1    0    0  503  502  0.00000000000E+00  0.00000000000E+00  0.55881127117E+00  0.55881127117E+00  0.00000000000E+00 0.  1.
         21   -1    0    0  501  503 -0.00000000000E+00 -0.00000000000E+00 -0.73103876689E+02  0.73103876689E+02  0.00000000000E+00 0.  1.
          5    1    1    2  501    0  0.24445549406E+01  0.23040849428E+00 -0.56834695058E+02  0.57081533786E+02  0.47000000000E+01 0.  1.
         -5    1    1    2    0  502 -0.24445549406E+01 -0.23040849428E+00 -0.15710370359E+02  0.16581154175E+02  0.47000000000E+01 0.  1.
<mgrwt>
<rscale>  2 0.53027292E+01</rscale>
<asrwt>0</asrwt>
<pdfrwt beam="1">  1       21 0.85970963E-04 0.53027292E+01</pdfrwt>
<pdfrwt beam="2">  1       21 0.11246750E-01 0.53027292E+01</pdfrwt>
<totfact> 0.23704501E+09</totfact>
</mgrwt>
</event>
<event>
 4    1  0.4084348E+006  0.4822530E+01  0.7546771E-02  0.2599633E+00
         21   -1    0    0  501  502  0.00000000000E+00  0.00000000000E+00  0.17526031136E+03  0.17526031136E+03  0.00000000000E+00 0. -1.
         21   -1    0    0  502  503 -0.00000000000E+00 -0.00000000000E+00 -0.20316497742E+00  0.20316497742E+00  0.00000000000E+00 0. -1.
          5    1    1    2  501    0  0.10674707828E+01 -0.16524084625E+00  0.13919676658E+03  0.13928028082E+03  0.47000000000E+01 0. -1.
         -5    1    1    2    0  503 -0.10674707828E+01  0.16524084625E+00  0.35860379799E+02  0.36183195516E+02  0.47000000000E+01 0. -1.
<mgrwt>
<rscale>  2 0.48225303E+01</rscale>
<asrwt>0</asrwt>
<pdfrwt beam="1">  1       21 0.26963004E-01 0.48225303E+01</pdfrwt>
<pdfrwt beam="2">  1       21 0.31256291E-04 0.48225303E+01</pdfrwt>
<totfact> 0.20882034E+09</totfact>
</mgrwt>
</event>
<event>
 4    1  0.4084348E+006  0.5452997E+01  0.7546771E-02  0.2492565E+00
         21   -1    0    0  501  502  0.00000000000E+00  0.00000000000E+00  0.12065990394E+01  0.12065990394E+01  0.00000000000E+00 0.  1.
         21   -1    0    0  502  503 -0.00000000000E+00 -0.00000000000E+00 -0.26113610486E+02  0.26113610486E+02  0.00000000000E+00 0.  1.
          5    1    1    2  501    0 -0.25962346770E+01 -0.95117986752E+00 -0.92127060139E+01  0.10705565363E+02  0.47000000000E+01 0.  1.
         -5    1    1    2    0  503  0.25962346770E+01  0.95117986752E+00 -0.15694305433E+02  0.16614644163E+02  0.47000000000E+01 0.  1.
<mgrwt>
<rscale>  2 0.54529971E+01</rscale>
<asrwt>0</asrwt>
<pdfrwt beam="1">  1       21 0.18563061E-03 0.54529971E+01</pdfrwt>
<pdfrwt beam="2">  1       21 0.40174788E-02 0.54529971E+01</pdfrwt>
<totfact> 0.40300756E+09</totfact>
</mgrwt>
</event>
<event>
 4    1  0.4084348E+006  0.5158510E+01  0.7546771E-02  0.2539780E+00
         21   -1    0    0  501  502  0.00000000000E+00  0.00000000000E+00  0.38354630754E+03  0.38354630754E+03  0.00000000000E+00 0.  1.
         21   -1    0    0  502  503 -0.00000000000E+00 -0.00000000000E+00 -0.80225827917E-01  0.80225827917E-01  0.00000000000E+00 0.  1.
          5    1    1    2  501    0 -0.44364038355E+00 -0.20792808356E+01  0.12120460831E+03  0.12131433263E+03  0.47000000000E+01 0.  1.
         -5    1    1    2    0  503  0.44364038355E+00  0.20792808356E+01  0.26226147340E+03  0.26231220073E+03  0.47000000000E+01 0.  1.
<mgrwt>
<rscale>  2 0.51585100E+01</rscale>
<asrwt>0</asrwt>
<pdfrwt beam="1">  1       21 0.59005656E-01 0.51585100E+01</pdfrwt>
<pdfrwt beam="2">  1       21 0.12342742E-04 0.51585100E+01</pdfrwt>
<totfact> 0.19684399E+09</totfact>
</mgrwt>
</event>
<event>
 4    1  0.4084348E+006  0.5222523E+01  0.7546771E-02  0.2529130E+00
         21   -1    0    0  501  502  0.00000000000E+00  0.00000000000E+00  0.10314211653E+02  0.10314211653E+02  0.00000000000E+00 0. -1.
         21   -1    0    0  502  503 -0.00000000000E+00 -0.00000000000E+00 -0.46940446532E+01  0.46940446532E+01  0.00000000000E+00 0. -1.
          5    1    1    2  501    0  0.17487523855E+01  0.14582898792E+01  0.77687800663E+01  0.93610196024E+01  0.47000000000E+01 0. -1.
         -5    1    1    2    0  503 -0.17487523855E+01 -0.14582898792E+01 -0.21486130666E+01  0.56472367037E+01  0.47000000000E+01 0. -1.
<mgrwt>
<rscale>  2 0.52225228E+01</rscale>
<asrwt>0</asrwt>
<pdfrwt beam="1">  1       21 0.15868018E-02 0.52225228E+01</pdfrwt>
<pdfrwt beam="2">  1       21 0.72216072E-03 0.52225228E+01</pdfrwt>
<totfact> 0.22793451E+09</totfact>
</mgrwt>
</event>
<event>
 4    1  0.4084348E+006  0.5018383E+01  0.7546771E-02  0.2563903E+00
         21   -1    0    0  503  502  0.00000000000E+00  0.00000000000E+00  0.24813044685E-01  0.24813044685E-01  0.00000000000E+00 0. -1.
         21   -1    0    0  501  503 -0.00000000000E+00 -0.00000000000E+00 -0.26097510264E+04  0.26097510264E+04  0.00000000000E+00 0. -1.
          5    1    1    2  501    0  0.83656277232E+00 -0.15473613683E+01 -0.23249238193E+04  0.23249292354E+04  0.47000000000E+01 0. -1.
         -5    1    1    2    0  502 -0.83656277232E+00  0.15473613683E+01 -0.28480239414E+03  0.28484660411E+03  0.47000000000E+01 0. -1.
<mgrwt>
<rscale>  2 0.50183827E+01</rscale>
<asrwt>0</asrwt>
<pdfrwt beam="1">  1       21 0.38184155E-05 0.50183827E+01</pdfrwt>
<pdfrwt beam="2">  1       21 0.40139248E+00 0.50183827E+01</pdfrwt>
<totfact> 0.12570587E+08</totfact>
</mgrwt>
</event>
<event>
 4    1  0.4084348E+006  0.4768931E+01  0.7546771E-02  0.2609853E+00
         21   -1    0    0  503  502  0.00000000000E+00  0.00000000000E+00  0.83520296536E+01  0.83520296536E+01  0.00000000000E+00 0.  1.
         21   -1    0    0  501  503 -0.00000000000E+00 -0.00000000000E+00 -0.29238275667E+01  0.29238275667E+01  0.00000000000E+00 0.  1.
          5    1    1    2  501    0 -0.72752339825E+00 -0.35129812552E+00  0.12365608163E+01  0.49266401655E+01  0.47000000000E+01 0.  1.
         -5    1    1    2    0  502  0.72752339825E+00  0.35129812552E+00  0.41916412706E+01  0.63492170548E+01  0.47000000000E+01 0.  1.
<mgrwt>
<rscale>  2 0.47689308E+01</rscale>
<asrwt>0</asrwt>
<pdfrwt beam="1">  1       21 0.12849276E-02 0.47689308E+01</pdfrwt>
<pdfrwt beam="2">  1       21 0.44981963E-03 0.47689308E+01</pdfrwt>
<totfact> 0.53537731E+09</totfact>
</mgrwt>
</event>
<event>
 4    1  0.4084348E+006  0.5038309E+01  0.7546771E-02  0.2560402E+00
         21   -1    0    0  503  502  0.00000000000E+00  0.00000000000E+00  0.12560149219E+01  0.12560149219E+01  0.00000000000E+00 0. -1.
         21   -1    0    0  501  503 -0.00000000000E+00 -0.00000000000E+00 -0.21142169619E+02  0.21142169619E+02  0.00000000000E+00 0. -1.
          5    1    1    2  501    0  0.13744804511E+01 -0.11854786475E+01 -0.12294137684E+02  0.13286473480E+02  0.47000000000E+01 0. -1.
         -5    1    1    2    0  502 -0.13744804511E+01  0.11854786475E+01 -0.75920170130E+01  0.91117110610E+01  0.47000000000E+01 0. -1.
<mgrwt>
<rscale>  2 0.50383089E+01</rscale>
<asrwt>0</asrwt>
<pdfrwt beam="1">  1       21 0.19323310E-03 0.50383089E+01</pdfrwt>
<pdfrwt beam="2">  1       21 0.32526409E-02 0.50383089E+01</pdfrwt>
<totfact> 0.47859753E+09</totfact>
</mgrwt>
</event>
<event>
 4    1  0.4084348E+006  0.5798168E+01  0.7546771E-02  0.2442456E+00
         21   -1    0    0  501  502  0.00000000000E+00  0.00000000000E+00  0.12801442264E+00  0.12801442264E+00  0.00000000000E+00 0.  1.
         21   -1    0    0  502  503 -0.00000000000E+00 -0.00000000000E+00 -0.36286587342E+03  0.36286587342E+03  0.00000000000E+00 0.  1.
          5    1    1    2  501    0 -0.24397835724E+01  0.23614002685E+01 -0.85971615179E+02  0.86166915760E+02  0.47000000000E+01 0.  1.
         -5    1    1    2    0  503  0.24397835724E+01 -0.23614002685E+01 -0.27676624382E+03  0.27682697208E+03  0.47000000000E+01 0.  1.
<mgrwt>
<rscale>  2 0.57981683E+01</rscale>
<asrwt>0</asrwt>
<pdfrwt beam="1">  1       21 0.19694572E-04 0.57981683E+01</pdfrwt>
<pdfrwt beam="2">  1       21 0.55825389E-01 0.57981683E+01</pdfrwt>
<totfact> 0.12853853E+09</totfact>
</mgrwt>
</event>
<event>
 4    1  0.4084348E+006  0.5091394E+01  0.7546771E-02  0.2551192E+00
         21   -1    0    0  503  502  0.00000000000E+00  0.00000000000E+00  0.11176975270E+02  0.11176975270E+02  0.00000000000E+00 0.  1.
         21   -1    0    0  501  503 -0.00000000000E+00 -0.00000000000E+00 -0.23545808400E+01  0.23545808400E+01  0.00000000000E+00 0.  1.
          5    1    1    2  501    0 -0.19572925193E+01 -0.36006888588E-01  0.52398795790E+01  0.73060679237E+01  0.47000000000E+01 0.  1.
         -5    1    1    2    0  502  0.19572925193E+01  0.36006888588E-01  0.35825148510E+01  0.62254881865E+01  0.47000000000E+01 0.  1.
<mgrwt>
<rscale>  2 0.50913938E+01</rscale>
<asrwt>0</asrwt>
<pdfrwt beam="1">  1       21 0.17195346E-02 0.50913938E+01</pdfrwt>
<pdfrwt beam="2">  1       21 0.36224321E-03 0.50913938E+01</pdfrwt>
<totfact> 0.51257649E+09</totfact>
</mgrwt>
</event>
<event>
 4    1  0.4084348E+006  0.5398438E+01  0.7546771E-02  0.2500980E+00
         21   -1    0    0  501  502  0.00000000000E+00  0.00000000000E+00  0.78215056272E+02  0.78215056272E+02  0.00000000000E+00 0.  1.
         21   -1    0    0  502  503 -0.00000000000E+00 -0.00000000000E+00 -0.77537915074E+00  0.77537915074E+00  0.00000000000E+00 0. -1.
          5    1    1    2  501    0  0.19969797556E+01  0.17507716678E+01  0.67185387787E+02  0.67401924762E+02  0.47000000000E+01 0.  1.
         -5    1    1    2    0  503 -0.19969797556E+01 -0.17507716678E+01  0.10254289335E+02  0.11588510661E+02  0.47000000000E+01 0. -1.
<mgrwt>
<rscale>  2 0.53984377E+01</rscale>
<asrwt>0</asrwt>
<pdfrwt beam="1">  1       21 0.12033079E-01 0.53984377E+01</pdfrwt>
<pdfrwt beam="2">  1       21 0.11928916E-03 0.53984377E+01</pdfrwt>
<totfact> 0.14027712E+09</totfact>
</mgrwt>
</event>
<event>
 4    1  0.4084348E+006  0.1126537E+02  0.7546771E-02  0.2009402E+00
         21   -1    0    0  501  502  0.00000000000E+00  0.00000000000E+00  0.97865535426E+03  0.97865535426E+03  0.00000000000E+00 0.  1.
         21   -1    0    0  502  503 -0.00000000000E+00 -0.00000000000E+00 -0.14198967071E+00  0.14198967071E+00  0.00000000000E+00 0. -1.
          5    1    1    2  501    0  0.10238014152E+02  0.40804328768E-01  0.63337507230E+03  0.63347524877E+03  0.47000000000E+01 0.  1.
         -5    1    1    2    0  503 -0.10238014152E+02 -0.40804328768E-01  0.34513829229E+03  0.34532209516E+03  0.47000000000E+01 0. -1.
<mgrwt>
<rscale>  2 0.11265372E+02</rscale>
<asrwt>0</asrwt>
<pdfrwt beam="1">  1       21 0.15055696E+00 0.11265372E+02</pdfrwt>
<pdfrwt beam="2">  1       21 0.21845348E-04 0.11265372E+02</pdfrwt>
<totfact> 0.21399187E+08</totfact>
</mgrwt>
</event>
<event>
 4    1  0.4084348E+006  0.7777644E+01  0.7546771E-02  0.2229073E+00
         21   -1    0    0  503  502  0.00000000000E+00  0.00000000000E+00  0.10313104332E+02  0.10313104332E+02  0.00000000000E+00 0. -1.
         21   -1    0    0  501  503 -0.00000000000E+00 -0.00000000000E+00 -0.95983452843E+01  0.95983452843E+01  0.00000000000E+00 0. -1.
          5    1    1    2  501    0 -0.19779693196E+00 -0.61937571204E+01 -0.58512158194E+01  0.97328555655E+01  0.47000000000E+01 0. -1.
         -5    1    1    2    0  502  0.19779693196E+00  0.61937571204E+01  0.65659748668E+01  0.10178594050E+02  0.47000000000E+01 0. -1.
<mgrwt>
<rscale>  2 0.77776443E+01</rscale>
<asrwt>0</asrwt>
<pdfrwt beam="1">  1       21 0.15866314E-02 0.77776443E+01</pdfrwt>
<pdfrwt beam="2">  1       21 0.14766685E-02 0.77776443E+01</pdfrwt>
<totfact> 0.11474771E+09</totfact>
</mgrwt>
</event>
<event>
 4    1  0.4084348E+006  0.6578370E+01  0.7546771E-02  0.2345723E+00
         21   -1    0    0  503  502  0.00000000000E+00  0.00000000000E+00  0.14732469695E+03  0.14732469695E+03  0.00000000000E+00 0. -1.
         21   -1    0    0  501  503 -0.00000000000E+00 -0.00000000000E+00 -0.29715454091E+00  0.29715454091E+00  0.00000000000E+00 0. -1.
          5    1    1    2  501    0 -0.44139297107E+01  0.13046736291E+01  0.65599967562E+02  0.65928982192E+02  0.47000000000E+01 0. -1.
         -5    1    1    2    0  502  0.44139297107E+01 -0.13046736291E+01  0.81427574846E+02  0.81692869298E+02  0.47000000000E+01 0. -1.
<mgrwt>
<rscale>  2 0.65783698E+01</rscale>
<asrwt>0</asrwt>
<pdfrwt beam="1">  1       21 0.22665280E-01 0.65783698E+01</pdfrwt>
<pdfrwt beam="2">  1       21 0.45716201E-04 0.65783698E+01</pdfrwt>
<totfact> 0.21763471E+09</totfact>
</mgrwt>
</event>
<event>
 4    1  0.4084348E+006  0.1581727E+02  0.7546771E-02  0.1844107E+00
         21   -1    0    0  503  502  0.00000000000E+00  0.00000000000E+00  0.10884550711E+01  0.10884550711E+01  0.00000000000E+00 0. -1.
         21   -1    0    0  501  503 -0.00000000000E+00 -0.00000000000E+00 -0.37082065629E+03  0.37082065629E+03  0.00000000000E+00 0.  1.
          5    1    1    2  501    0 -0.14022938083E+02 -0.56083253057E+01 -0.29951834551E+03  0.29993570211E+03  0.47000000000E+01 0.  1.
         -5    1    1    2    0  502  0.14022938083E+02  0.56083253057E+01 -0.70213855707E+02  0.71973409246E+02  0.47000000000E+01 0. -1.
<mgrwt>
<rscale>  2 0.15817272E+02</rscale>
<asrwt>0</asrwt>
<pdfrwt beam="1">  1       21 0.16745465E-03 0.15817272E+02</pdfrwt>
<pdfrwt beam="2">  1       21 0.57049325E-01 0.15817272E+02</pdfrwt>
<totfact> 0.10957916E+08</totfact>
</mgrwt>
</event>
<event>
 4    1  0.4084348E+006  0.5113525E+01  0.7546771E-02  0.2547400E+00
         21   -1    0    0  503  502  0.00000000000E+00  0.00000000000E+00  0.64197785022E+00  0.64197785022E+00  0.00000000000E+00 0.  1.
         21   -1    0    0  501  503 -0.00000000000E+00 -0.00000000000E+00 -0.43112338754E+02  0.43112338754E+02  0.00000000000E+00 0.  1.
          5    1    1    2  501    0 -0.81647330274E+00 -0.18416051597E+01 -0.26377249005E+02  0.26868334584E+02  0.47000000000E+01 0. -1.
         -5    1    1    2    0  502  0.81647330274E+00  0.18416051597E+01 -0.16093111899E+02  0.16885982021E+02  0.47000000000E+01 0. -1.
<mgrwt>
<rscale>  2 0.51135250E+01</rscale>
<asrwt>0</asrwt>
<pdfrwt beam="1">  1       21 0.98765815E-04 0.51135250E+01</pdfrwt>
<pdfrwt beam="2">  1       21 0.66326680E-02 0.51135250E+01</pdfrwt>
<totfact> 0.42128688E+09</totfact>
</mgrwt>
</event>
<event>
 4    1  0.4084348E+006  0.8038740E+01  0.7546771E-02  0.2207483E+00
         21   -1    0    0  501  502  0.00000000000E+00  0.00000000000E+00  0.17952932712E+01  0.17952932712E+01  0.00000000000E+00 0.  1.
         21   -1    0    0  502  503 -0.00000000000E+00 -0.00000000000E+00 -0.39743981601E+02  0.39743981601E+02  0.00000000000E+00 0.  1.
          5    1    1    2  501    0  0.60680224096E+01  0.23896525501E+01 -0.12595267513E+02  0.14941957670E+02  0.47000000000E+01 0.  1.
         -5    1    1    2    0  503 -0.60680224096E+01 -0.23896525501E+01 -0.25353420817E+02  0.26597317203E+02  0.47000000000E+01 0.  1.
<mgrwt>
<rscale>  2 0.80387397E+01</rscale>
<asrwt>0</asrwt>
<pdfrwt beam="1">  1       21 0.27619898E-03 0.80387397E+01</pdfrwt>
<pdfrwt beam="2">  1       21 0.61144584E-02 0.80387397E+01</pdfrwt>
<totfact> 0.17115768E+09</totfact>
</mgrwt>
</event>
<event>
 4    1  0.4084348E+006  0.6046214E+01  0.7546771E-02  0.2409447E+00
         21   -1    0    0  503  502  0.00000000000E+00  0.00000000000E+00  0.19324919286E+02  0.19324919286E+02  0.00000000000E+00 0. -1.
         21   -1    0    0  501  503 -0.00000000000E+00 -0.00000000000E+00 -0.24668994090E+01  0.24668994090E+01  0.00000000000E+00 0.  1.
          5    1    1    2  501    0 -0.46008747192E+00  0.37755824492E+01  0.31676042283E+01  0.68257175344E+01  0.47000000000E+01 0.  1.
         -5    1    1    2    0  502  0.46008747192E+00 -0.37755824492E+01  0.13690415649E+02  0.14966101160E+02  0.47000000000E+01 0. -1.
<mgrwt>
<rscale>  2 0.60462140E+01</rscale>
<asrwt>0</asrwt>
<pdfrwt beam="1">  1       21 0.29730644E-02 0.60462140E+01</pdfrwt>
<pdfrwt beam="2">  1       21 0.37952300E-03 0.60462140E+01</pdfrwt>
<totfact> 0.25831589E+09</totfact>
</mgrwt>
</event>
<event>
 4    1  0.4084348E+006  0.8156940E+01  0.7546771E-02  0.2198077E+00
         21   -1    0    0  501  502  0.00000000000E+00  0.00000000000E+00  0.20817807006E+01  0.20817807006E+01  0.00000000000E+00 0.  1.
         21   -1    0    0  502  503 -0.00000000000E+00 -0.00000000000E+00 -0.38725167901E+02  0.38725167901E+02  0.00000000000E+00 0.  1.
          5    1    1    2  501    0 -0.15270532844E+01  0.64895135023E+01 -0.97942973332E+01  0.12746134217E+02  0.47000000000E+01 0.  1.
         -5    1    1    2    0  503  0.15270532844E+01 -0.64895135023E+01 -0.26849089868E+02  0.28060814385E+02  0.47000000000E+01 0.  1.
<mgrwt>
<rscale>  2 0.81569404E+01</rscale>
<asrwt>0</asrwt>
<pdfrwt beam="1">  1       21 0.32027398E-03 0.81569404E+01</pdfrwt>
<pdfrwt beam="2">  1       21 0.59577176E-02 0.81569404E+01</pdfrwt>
<totfact> 0.14625039E+09</totfact>
</mgrwt>
</event>
<event>
 4    1  0.4084348E+006  0.5113002E+01  0.7546771E-02  0.2547489E+00
         21   -1    0    0  501  502  0.00000000000E+00  0.00000000000E+00  0.13753195895E+00  0.13753195895E+00  0.00000000000E+00 0. -1.
         21   -1    0    0  502  503 -0.00000000000E+00 -0.00000000000E+00 -0.28202097276E+03  0.28202097276E+03  0.00000000000E+00 0. -1.
          5    1    1    2  501    0 -0.10906732251E+01  0.16921060138E+01 -0.60391877833E+02  0.60607934291E+02  0.47000000000E+01 0. -1.
         -5    1    1    2    0  503  0.10906732251E+01 -0.16921060138E+01 -0.22149156297E+03  0.22155057042E+03  0.47000000000E+01 0. -1.
<mgrwt>
<rscale>  2 0.51130021E+01</rscale>
<asrwt>0</asrwt>
<pdfrwt beam="1">  1       21 0.21158555E-04 0.51130021E+01</pdfrwt>
<pdfrwt beam="2">  1       21 0.43388268E-01 0.51130021E+01</pdfrwt>
<totfact> 0.16554705E+09</totfact>
</mgrwt>
</event>
<event>
 4    1  0.4084348E+006  0.6102581E+01  0.7546771E-02  0.2402261E+00
         21   -1    0    0  503  502  0.00000000000E+00  0.00000000000E+00  0.16024704641E+02  0.16024704641E+02  0.00000000000E+00 0. -1.
         21   -1    0    0  501  503 -0.00000000000E+00 -0.00000000000E+00 -0.25708440088E+01  0.25708440088E+01  0.00000000000E+00 0.  1.
          5    1    1    2  501    0  0.38286440311E+01 -0.70212370310E+00  0.38458983024E+01  0.72133505782E+01  0.47000000000E+01 0.  1.
         -5    1    1    2    0  502 -0.38286440311E+01  0.70212370310E+00  0.96079623294E+01  0.11382198071E+02  0.47000000000E+01 0.  1.
<mgrwt>
<rscale>  2 0.61025808E+01</rscale>
<asrwt>0</asrwt>
<pdfrwt beam="1">  1       21 0.24653391E-02 0.61025808E+01</pdfrwt>
<pdfrwt beam="2">  1       21 0.39551447E-03 0.61025808E+01</pdfrwt>
<totfact> 0.32275240E+09</totfact>
</mgrwt>
</event>
<event>
 4    1  0.4084348E+006  0.7498537E+01  0.7546771E-02  0.2253487E+00
         21   -1    0    0  501  502  0.00000000000E+00  0.00000000000E+00  0.39280016189E+02  0.39280016189E+02  0.00000000000E+00 0.  1.
         21   -1    0    0  502  503 -0.00000000000E+00 -0.00000000000E+00 -0.10375112914E+02  0.10375112914E+02  0.00000000000E+00 0. -1.
          5    1    1    2  501    0  0.58054405817E+01  0.65948105032E+00  0.37503729025E+02  0.38246016085E+02  0.47000000000E+01 0.  1.
         -5    1    1    2    0  503 -0.58054405817E+01 -0.65948105032E+00 -0.85988257493E+01  0.11409113019E+02  0.47000000000E+01 0. -1.
<mgrwt>
<rscale>  2 0.74985369E+01</rscale>
<asrwt>0</asrwt>
<pdfrwt beam="1">  1       21 0.60430793E-02 0.74985369E+01</pdfrwt>
<pdfrwt beam="2">  1       21 0.15961712E-02 0.74985369E+01</pdfrwt>
<totfact> 0.13827878E+08</totfact>
</mgrwt>
</event>
<event>
 4    1  0.4084348E+006  0.4995407E+01  0.7546771E-02  0.2567969E+00
         21   -1    0    0  503  502  0.00000000000E+00  0.00000000000E+00  0.16267574777E+04  0.16267574777E+04  0.00000000000E+00 0.  1.
         21   -1    0    0  501  503 -0.00000000000E+00 -0.00000000000E+00 -0.15598513151E-01  0.15598513151E-01  0.00000000000E+00 0.  1.
          5    1    1    2  501    0  0.16922923137E+01 -0.15575507634E-01  0.70861359354E+03  0.70863120101E+03  0.47000000000E+01 0.  1.
         -5    1    1    2    0  502 -0.16922923137E+01  0.15575507634E-01  0.91812828566E+03  0.91814187522E+03  0.47000000000E+01 0.  1.
<mgrwt>
<rscale>  2 0.49954075E+01</rscale>
<asrwt>0</asrwt>
<pdfrwt beam="1">  1       21 0.25013457E+00 0.49954075E+01</pdfrwt>
<pdfrwt beam="2">  1       21 0.24010742E-05 0.49954075E+01</pdfrwt>
<totfact> 0.91115808E+08</totfact>
</mgrwt>
</event>
<event>
 4    1  0.4084348E+006  0.5434443E+01  0.7546771E-02  0.2495411E+00
         21   -1    0    0  503  502  0.00000000000E+00  0.00000000000E+00  0.12202751134E+03  0.12202751134E+03  0.00000000000E+00 0.  1.
         21   -1    0    0  501  503 -0.00000000000E+00 -0.00000000000E+00 -0.20238241845E+01  0.20238241845E+01  0.00000000000E+00 0.  1.
          5    1    1    2  501    0 -0.23535867268E+01 -0.13797837262E+01  0.18029176288E+01  0.57257039382E+01  0.47000000000E+01 0.  1.
         -5    1    1    2    0  502  0.23535867268E+01  0.13797837262E+01  0.11820076953E+03  0.11832563159E+03  0.47000000000E+01 0.  1.
<mgrwt>
<rscale>  2 0.54344433E+01</rscale>
<asrwt>0</asrwt>
<pdfrwt beam="1">  1       21 0.18773458E-01 0.54344433E+01</pdfrwt>
<pdfrwt beam="2">  1       21 0.31135766E-03 0.54344433E+01</pdfrwt>
<totfact> 0.19222186E+08</totfact>
</mgrwt>
</event>
<event>
 4    1  0.4084348E+006  0.7452122E+01  0.7546771E-02  0.2257691E+00
         21   -1    0    0  503  502  0.00000000000E+00  0.00000000000E+00  0.11836265965E+00  0.11836265965E+00  0.00000000000E+00 0. -1.
         21   -1    0    0  501  503 -0.00000000000E+00 -0.00000000000E+00 -0.60645101891E+03  0.60645101891E+03  0.00000000000E+00 0.  1.
          5    1    1    2  501    0  0.25529041415E+01  0.51891048504E+01 -0.44745499298E+03  0.44751704423E+03  0.47000000000E+01 0.  1.
         -5    1    1    2    0  502 -0.25529041415E+01 -0.51891048504E+01 -0.15887766326E+03  0.15905233734E+03  0.47000000000E+01 0. -1.
<mgrwt>
<rscale>  2 0.74521224E+01</rscale>
<asrwt>0</asrwt>
<pdfrwt beam="1">  1       21 0.18209466E-04 0.74521224E+01</pdfrwt>
<pdfrwt beam="2">  1       21 0.93301046E-01 0.74521224E+01</pdfrwt>
<totfact> 0.62735675E+08</totfact>
</mgrwt>
</event>
<event>
 4    1  0.4084348E+006  0.5605275E+01  0.7546771E-02  0.2469815E+00
         21   -1    0    0  501  502  0.00000000000E+00  0.00000000000E+00  0.18541763565E+01  0.18541763565E+01  0.00000000000E+00 0. -1.
         21   -1    0    0  502  503 -0.00000000000E+00 -0.00000000000E+00 -0.17448862485E+02  0.17448862485E+02  0.00000000000E+00 0.  1.
          5    1    1    2  501    0  0.28949141556E+01  0.97395329715E+00 -0.61573343924E+01  0.83265767163E+01  0.47000000000E+01 0.  1.
         -5    1    1    2    0  503 -0.28949141556E+01 -0.97395329715E+00 -0.94373517358E+01  0.10976462125E+02  0.47000000000E+01 0. -1.
<mgrwt>
<rscale>  2 0.56052755E+01</rscale>
<asrwt>0</asrwt>
<pdfrwt beam="1">  1       21 0.28525788E-03 0.56052755E+01</pdfrwt>
<pdfrwt beam="2">  1       21 0.26844406E-02 0.56052755E+01</pdfrwt>
<totfact> 0.41404966E+09</totfact>
</mgrwt>
</event>
<event>
 4    1  0.4084348E+006  0.4938220E+01  0.7546771E-02  0.2578232E+00
         21   -1    0    0  501  502  0.00000000000E+00  0.00000000000E+00  0.24231651146E+00  0.24231651146E+00  0.00000000000E+00 0.  1.
         21   -1    0    0  502  503 -0.00000000000E+00 -0.00000000000E+00 -0.53276704791E+03  0.53276704791E+03  0.00000000000E+00 0.  1.
          5    1    1    2  501    0 -0.58310492420E+00  0.13985727205E+01 -0.26244606193E+02  0.26705156267E+02  0.47000000000E+01 0.  1.
         -5    1    1    2    0  503  0.58310492420E+00 -0.13985727205E+01 -0.50628012521E+03  0.50630420816E+03  0.47000000000E+01 0.  1.
<mgrwt>
<rscale>  2 0.49382200E+01</rscale>
<asrwt>0</asrwt>
<pdfrwt beam="1">  1       21 0.37279690E-04 0.49382200E+01</pdfrwt>
<pdfrwt beam="2">  1       21 0.81963662E-01 0.49382200E+01</pdfrwt>
<totfact> 0.23755780E+08</totfact>
</mgrwt>
</event>
<event>
 4    1  0.4084348E+006  0.5272558E+01  0.7546771E-02  0.2520961E+00
         21   -1    0    0  501  502  0.00000000000E+00  0.00000000000E+00  0.42138050706E+03  0.42138050706E+03  0.00000000000E+00 0. -1.
         21   -1    0    0  502  503 -0.00000000000E+00 -0.00000000000E+00 -0.69605123527E-01  0.69605123527E-01  0.00000000000E+00 0. -1.
          5    1    1    2  501    0  0.15940767396E+01  0.17801080337E+01  0.25879007297E+03  0.25884377863E+03  0.47000000000E+01 0. -1.
         -5    1    1    2    0  503 -0.15940767396E+01 -0.17801080337E+01  0.16252082897E+03  0.16260633356E+03  0.47000000000E+01 0. -1.
<mgrwt>
<rscale>  2 0.52725578E+01</rscale>
<asrwt>0</asrwt>
<pdfrwt beam="1">  1       21 0.64825728E-01 0.52725578E+01</pdfrwt>
<pdfrwt beam="2">  1       21 0.10708818E-04 0.52725578E+01</pdfrwt>
<totfact> 0.20343909E+09</totfact>
</mgrwt>
</event>
<event>
 4    1  0.4084348E+006  0.7051444E+01  0.7546771E-02  0.2295838E+00
         21   -1    0    0  503  502  0.00000000000E+00  0.00000000000E+00  0.25189953397E+01  0.25189953397E+01  0.00000000000E+00 0.  1.
         21   -1    0    0  501  503 -0.00000000000E+00 -0.00000000000E+00 -0.24387012870E+02  0.24387012870E+02  0.00000000000E+00 0.  1.
          5    1    1    2  501    0 -0.52294694536E+01  0.53433546399E+00 -0.16807088727E+02  0.18226384629E+02  0.47000000000E+01 0.  1.
         -5    1    1    2    0  502  0.52294694536E+01 -0.53433546399E+00 -0.50609288031E+01  0.86796235808E+01  0.47000000000E+01 0.  1.
<mgrwt>
<rscale>  2 0.70514442E+01</rscale>
<asrwt>0</asrwt>
<pdfrwt beam="1">  1       21 0.38753773E-03 0.70514442E+01</pdfrwt>
<pdfrwt beam="2">  1       21 0.37518482E-02 0.70514442E+01</pdfrwt>
<totfact> 0.20216402E+09</totfact>
</mgrwt>
</event>
<event>
 4    1  0.4084348E+006  0.6858897E+01  0.7546771E-02  0.2315458E+00
         21   -1    0    0  501  502  0.00000000000E+00  0.00000000000E+00  0.20049011218E+03  0.20049011218E+03  0.00000000000E+00 0. -1.
         21   -1    0    0  502  503 -0.00000000000E+00 -0.00000000000E+00 -0.52360540195E+00  0.52360540195E+00  0.00000000000E+00 0.  1.
          5    1    1    2  501    0  0.49730098596E+01 -0.47290143350E+00  0.17464722388E+03  0.17478185624E+03  0.47000000000E+01 0. -1.
         -5    1    1    2    0  503 -0.49730098596E+01  0.47290143350E+00  0.25319282901E+02  0.26231861342E+02  0.47000000000E+01 0.  1.
<mgrwt>
<rscale>  2 0.68588966E+01</rscale>
<asrwt>0</asrwt>
<pdfrwt beam="1">  1       21 0.30844571E-01 0.68588966E+01</pdfrwt>
<pdfrwt beam="2">  1       21 0.80554837E-04 0.68588966E+01</pdfrwt>
<totfact> 0.62424922E+08</totfact>
</mgrwt>
</event>
<event>
 4    1  0.4084348E+006  0.5000654E+01  0.7546771E-02  0.2567038E+00
         21   -1    0    0  501  502  0.00000000000E+00  0.00000000000E+00  0.28695651714E+01  0.28695651714E+01  0.00000000000E+00 0. -1.
         21   -1    0    0  502  503 -0.00000000000E+00 -0.00000000000E+00 -0.24565610643E+02  0.24565610643E+02  0.00000000000E+00 0. -1.
          5    1    1    2  501    0  0.13616278394E+01 -0.10307827723E+01  0.17105294269E+00  0.50035789797E+01  0.47000000000E+01 0. -1.
         -5    1    1    2    0  503 -0.13616278394E+01  0.10307827723E+01 -0.21867098414E+02  0.22431596835E+02  0.47000000000E+01 0. -1.
<mgrwt>
<rscale>  2 0.50006543E+01</rscale>
<asrwt>0</asrwt>
<pdfrwt beam="1">  1       21 0.44147158E-03 0.50006543E+01</pdfrwt>
<pdfrwt beam="2">  1       21 0.37793246E-02 0.50006543E+01</pdfrwt>
<totfact> 0.12461965E+09</totfact>
</mgrwt>
</event>
<event>
 4    1  0.4084348E+006  0.5254581E+01  0.7546771E-02  0.2523881E+00
         21   -1    0    0  501  502  0.00000000000E+00  0.00000000000E+00  0.13357287155E+03  0.13357287155E+03  0.00000000000E+00 0. -1.
         21   -1    0    0  502  503 -0.00000000000E+00 -0.00000000000E+00 -0.38498240750E+00  0.38498240750E+00  0.00000000000E+00 0. -1.
          5    1    1    2  501    0 -0.15060052357E+01 -0.18034884124E+01  0.11217263784E+03  0.11229564240E+03  0.47000000000E+01 0. -1.
         -5    1    1    2    0  503  0.15060052357E+01  0.18034884124E+01  0.21015251305E+02  0.21662211559E+02  0.47000000000E+01 0. -1.
<mgrwt>
<rscale>  2 0.52545811E+01</rscale>
<asrwt>0</asrwt>
<pdfrwt beam="1">  1       21 0.20549636E-01 0.52545811E+01</pdfrwt>
<pdfrwt beam="2">  1       21 0.59228169E-04 0.52545811E+01</pdfrwt>
<totfact> 0.15029044E+09</totfact>
</mgrwt>
</event>
<event>
 4    1  0.4084348E+006  0.6358428E+01  0.7546771E-02  0.2370984E+00
         21   -1    0    0  501  502  0.00000000000E+00  0.00000000000E+00  0.38096746310E+02  0.38096746310E+02  0.00000000000E+00 0.  1.
         21   -1    0    0  502  503 -0.00000000000E+00 -0.00000000000E+00 -0.12310431473E+01  0.12310431473E+01  0.00000000000E+00 0.  1.
          5    1    1    2  501    0  0.19116785862E+01  0.38321126754E+01  0.25736033144E+02  0.26509866174E+02  0.47000000000E+01 0.  1.
         -5    1    1    2    0  503 -0.19116785862E+01 -0.38321126754E+01  0.11129670019E+02  0.12817923283E+02  0.47000000000E+01 0.  1.
<mgrwt>
<rscale>  2 0.63584277E+01</rscale>
<asrwt>0</asrwt>
<pdfrwt beam="1">  1       21 0.58610370E-02 0.63584277E+01</pdfrwt>
<pdfrwt beam="2">  1       21 0.18939128E-03 0.63584277E+01</pdfrwt>
<totfact> 0.25717542E+09</totfact>
</mgrwt>
</event>
<event>
 4    1  0.4084348E+006  0.5006399E+01  0.7546771E-02  0.2566020E+00
         21   -1    0    0  501  502  0.00000000000E+00  0.00000000000E+00  0.28341394171E+01  0.28341394171E+01  0.00000000000E+00 0. -1.
         21   -1    0    0  502  503 -0.00000000000E+00 -0.00000000000E+00 -0.10447916060E+02  0.10447916060E+02  0.00000000000E+00 0.  1.
          5    1    1    2  501    0  0.15755455527E+01 -0.70120733099E+00 -0.12045515146E+01  0.51492698376E+01  0.47000000000E+01 0. -1.
         -5    1    1    2    0  503 -0.15755455527E+01  0.70120733099E+00 -0.64092251280E+01  0.81327856390E+01  0.47000000000E+01 0. -1.
<mgrwt>
<rscale>  2 0.50063995E+01</rscale>
<asrwt>0</asrwt>
<pdfrwt beam="1">  1       21 0.43602146E-03 0.50063995E+01</pdfrwt>
<pdfrwt beam="2">  1       21 0.16073717E-02 0.50063995E+01</pdfrwt>
<totfact> 0.42988798E+09</totfact>
</mgrwt>
</event>
<event>
 4    1  0.4084348E+006  0.6667149E+01  0.7546771E-02  0.2335918E+00
         21   -1    0    0  503  502  0.00000000000E+00  0.00000000000E+00  0.11112274125E+02  0.11112274125E+02  0.00000000000E+00 0.  1.
         21   -1    0    0  501  503 -0.00000000000E+00 -0.00000000000E+00 -0.79829681143E+01  0.79829681143E+01  0.00000000000E+00 0. -1.
          5    1    1    2  501    0 -0.41487931195E+01 -0.22690068736E+01 -0.51791932473E+01  0.84424474671E+01  0.47000000000E+01 0. -1.
         -5    1    1    2    0  502  0.41487931195E+01  0.22690068736E+01  0.83084992584E+01  0.10652794773E+02  0.47000000000E+01 0.  1.
<mgrwt>
<rscale>  2 0.66671491E+01</rscale>
<asrwt>0</asrwt>
<pdfrwt beam="1">  1       21 0.17095806E-02 0.66671491E+01</pdfrwt>
<pdfrwt beam="2">  1       21 0.12281489E-02 0.66671491E+01</pdfrwt>
<totfact> 0.11992607E+09</totfact>
</mgrwt>
</event>
<event>
 4    1  0.4084348E+006  0.5920094E+01  0.7546771E-02  0.2425941E+00
         21   -1    0    0  501  502  0.00000000000E+00  0.00000000000E+00  0.72036554194E+00  0.72036554194E+00  0.00000000000E+00 0. -1.
         21   -1    0    0  502  503 -0.00000000000E+00 -0.00000000000E+00 -0.15605273018E+03  0.15605273018E+03  0.00000000000E+00 0. -1.
          5    1    1    2  501    0  0.29853788105E+01 -0.20112247132E+01 -0.12636944469E+02  0.13954923038E+02  0.47000000000E+01 0. -1.
         -5    1    1    2    0  503 -0.29853788105E+01  0.20112247132E+01 -0.14269542017E+03  0.14281817268E+03  0.47000000000E+01 0. -1.
<mgrwt>
<rscale>  2 0.59200939E+01</rscale>
<asrwt>0</asrwt>
<pdfrwt beam="1">  1       21 0.11082548E-03 0.59200939E+01</pdfrwt>
<pdfrwt beam="2">  1       21 0.24008109E-01 0.59200939E+01</pdfrwt>
<totfact> 0.55697629E+08</totfact>
</mgrwt>
</event>
<event>
 4    1  0.4084348E+006  0.4907131E+01  0.7546771E-02  0.2583897E+00
         21   -1    0    0  501  502  0.00000000000E+00  0.00000000000E+00  0.97352146560E+01  0.97352146560E+01  0.00000000000E+00 0.  1.
         21   -1    0    0  502  503 -0.00000000000E+00 -0.00000000000E+00 -0.93302624162E+01  0.93302624162E+01  0.00000000000E+00 0.  1.
          5    1    1    2  501    0  0.77692962701E+00  0.11774187519E+01  0.83745199945E+01  0.97063133939E+01  0.47000000000E+01 0.  1.
         -5    1    1    2    0  503 -0.77692962701E+00 -0.11774187519E+01 -0.79695677546E+01  0.93591636783E+01  0.47000000000E+01 0.  1.
<mgrwt>
<rscale>  2 0.49071310E+01</rscale>
<asrwt>0</asrwt>
<pdfrwt beam="1">  1       21 0.14977253E-02 0.49071310E+01</pdfrwt>
<pdfrwt beam="2">  1       21 0.14354250E-02 0.49071310E+01</pdfrwt>
<totfact> 0.89181050E+08</totfact>
</mgrwt>
</event>
<event>
 4    1  0.4084348E+006  0.6628666E+01  0.7546771E-02  0.2340141E+00
         21   -1    0    0  501  502  0.00000000000E+00  0.00000000000E+00  0.30353676680E+01  0.30353676680E+01  0.00000000000E+00 0.  1.
         21   -1    0    0  502  503 -0.00000000000E+00 -0.00000000000E+00 -0.51968541351E+02  0.51968541351E+02  0.00000000000E+00 0. -1.
          5    1    1    2  501    0  0.31904996159E+01  0.34161273728E+01 -0.11068900488E+01  0.67204478725E+01  0.47000000000E+01 0.  1.
         -5    1    1    2    0  503 -0.31904996159E+01 -0.34161273728E+01 -0.47826283634E+02  0.48283461146E+02  0.47000000000E+01 0. -1.
<mgrwt>
<rscale>  2 0.66286661E+01</rscale>
<asrwt>0</asrwt>
<pdfrwt beam="1">  1       21 0.46697967E-03 0.66286661E+01</pdfrwt>
<pdfrwt beam="2">  1       21 0.79951598E-02 0.66286661E+01</pdfrwt>
<totfact> 0.47812116E+08</totfact>
</mgrwt>
</event>
<event>
 4    1  0.4084348E+006  0.6421610E+01  0.7546771E-02  0.2363581E+00
         21   -1    0    0  503  502  0.00000000000E+00  0.00000000000E+00  0.10839819784E+02  0.10839819784E+02  0.00000000000E+00 0.  1.
         21   -1    0    0  501  503 -0.00000000000E+00 -0.00000000000E+00 -0.85915629498E+01  0.85915629498E+01  0.00000000000E+00 0. -1.
          5    1    1    2  501    0 -0.17810964874E+01  0.39968444898E+01 -0.61283232740E+01  0.88765655928E+01  0.47000000000E+01 0. -1.
         -5    1    1    2    0  502  0.17810964874E+01 -0.39968444898E+01  0.83765801086E+01  0.10554817141E+02  0.47000000000E+01 0.  1.
<mgrwt>
<rscale>  2 0.64216097E+01</rscale>
<asrwt>0</asrwt>
<pdfrwt beam="1">  1       21 0.16676646E-02 0.64216097E+01</pdfrwt>
<pdfrwt beam="2">  1       21 0.13217789E-02 0.64216097E+01</pdfrwt>
<totfact> 0.10868409E+09</totfact>
</mgrwt>
</event>
<event>
 4    1  0.4084348E+006  0.7813040E+01  0.7546771E-02  0.2226078E+00
         21   -1    0    0  503  502  0.00000000000E+00  0.00000000000E+00  0.33548869963E+01  0.33548869963E+01  0.00000000000E+00 0.  1.
         21   -1    0    0  501  503 -0.00000000000E+00 -0.00000000000E+00 -0.23910495771E+02  0.23910495771E+02  0.00000000000E+00 0. -1.
          5    1    1    2  501    0 -0.14537131304E+01  0.60696217482E+01 -0.36128347967E+01  0.86079129468E+01  0.47000000000E+01 0.  1.
         -5    1    1    2    0  502  0.14537131304E+01 -0.60696217482E+01 -0.16942773978E+02  0.18657469820E+02  0.47000000000E+01 0. -1.
<mgrwt>
<rscale>  2 0.78130397E+01</rscale>
<asrwt>0</asrwt>
<pdfrwt beam="1">  1       21 0.51613644E-03 0.78130397E+01</pdfrwt>
<pdfrwt beam="2">  1       21 0.36785380E-02 0.78130397E+01</pdfrwt>
<totfact> 0.15023410E+09</totfact>
</mgrwt>
</event>
<event>
 4    1  0.4084348E+006  0.5262105E+01  0.7546771E-02  0.2522656E+00
         21   -1    0    0  501  502  0.00000000000E+00  0.00000000000E+00  0.13968437733E+03  0.13968437733E+03  0.00000000000E+00 0. -1.
         21   -1    0    0  502  503 -0.00000000000E+00 -0.00000000000E+00 -0.23060465994E+00  0.23060465994E+00  0.00000000000E+00 0.  1.
          5    1    1    2  501    0  0.20729625707E+01  0.11413037924E+01  0.43515057880E+02  0.43832066007E+02  0.47000000000E+01 0.  1.
         -5    1    1    2    0  503 -0.20729625707E+01 -0.11413037924E+01  0.95938714795E+02  0.96082915988E+02  0.47000000000E+01 0. -1.
<mgrwt>
<rscale>  2 0.52621049E+01</rscale>
<asrwt>0</asrwt>
<pdfrwt beam="1">  1       21 0.21489837E-01 0.52621049E+01</pdfrwt>
<pdfrwt beam="2">  1       21 0.35477752E-04 0.52621049E+01</pdfrwt>
<totfact> 0.27661052E+09</totfact>
</mgrwt>
</event>
<event>
 4    1  0.4084348E+006  0.7959778E+01  0.7546771E-02  0.2213892E+00
         21   -1    0    0  503  502  0.00000000000E+00  0.00000000000E+00  0.12330415303E+01  0.12330415303E+01  0.00000000000E+00 0.  1.
         21   -1    0    0  501  503 -0.00000000000E+00 -0.00000000000E+00 -0.55920994150E+02  0.55920994150E+02  0.00000000000E+00 0. -1.
          5    1    1    2  501    0 -0.36445230845E+01  0.52901341925E+01 -0.19203788141E+02  0.20788062614E+02  0.47000000000E+01 0.  1.
         -5    1    1    2    0  502  0.36445230845E+01 -0.52901341925E+01 -0.35484164479E+02  0.36365973066E+02  0.47000000000E+01 0.  1.
<mgrwt>
<rscale>  2 0.79597782E+01</rscale>
<asrwt>0</asrwt>
<pdfrwt beam="1">  1       21 0.18969874E-03 0.79597782E+01</pdfrwt>
<pdfrwt beam="2">  1       21 0.86032278E-02 0.79597782E+01</pdfrwt>
<totfact> 0.16929181E+09</totfact>
</mgrwt>
</event>
<event>
 4    1  0.4084348E+006  0.6344108E+01  0.7546771E-02  0.2372679E+00
         21   -1    0    0  503  502  0.00000000000E+00  0.00000000000E+00  0.21698235044E+03  0.21698235044E+03  0.00000000000E+00 0.  1.
         21   -1    0    0  501  503 -0.00000000000E+00 -0.00000000000E+00 -0.25078206011E+00  0.25078206011E+00  0.00000000000E+00 0.  1.
          5    1    1    2  501    0  0.12996633772E+01  0.40581504436E+01  0.52943639289E+02  0.53322384147E+02  0.47000000000E+01 0.  1.
         -5    1    1    2    0  502 -0.12996633772E+01 -0.40581504436E+01  0.16378792909E+03  0.16391074836E+03  0.47000000000E+01 0.  1.
<mgrwt>
<rscale>  2 0.63441083E+01</rscale>
<asrwt>0</asrwt>
<pdfrwt beam="1">  1       21 0.33381750E-01 0.63441083E+01</pdfrwt>
<pdfrwt beam="2">  1       21 0.38582029E-04 0.63441083E+01</pdfrwt>
<totfact> 0.13888408E+09</totfact>
</mgrwt>
</event>
<event>
 4    1  0.4084348E+006  0.5088133E+01  0.7546771E-02  0.2551753E+00
         21   -1    0    0  501  502  0.00000000000E+00  0.00000000000E+00  0.54577327801E-01  0.54577327801E-01  0.00000000000E+00 0. -1.
         21   -1    0    0  502  503 -0.00000000000E+00 -0.00000000000E+00 -0.74249413046E+03  0.74249413046E+03  0.00000000000E+00 0. -1.
          5    1    1    2  501    0 -0.31127634871E+00 -0.19241106304E+01 -0.14810540154E+03  0.14819277668E+03  0.47000000000E+01 0. -1.
         -5    1    1    2    0  503  0.31127634871E+00  0.19241106304E+01 -0.59433415159E+03  0.59435593111E+03  0.47000000000E+01 0. -1.
<mgrwt>
<rscale>  2 0.50881327E+01</rscale>
<asrwt>0</asrwt>
<pdfrwt beam="1">  1       21 0.83962941E-05 0.50881327E+01</pdfrwt>
<pdfrwt beam="2">  1       21 0.11423283E+00 0.50881327E+01</pdfrwt>
<totfact> 0.90568920E+08</totfact>
</mgrwt>
</event>
<event>
 4    1  0.4084348E+006  0.6873389E+01  0.7546771E-02  0.2313950E+00
         21   -1    0    0  503  502  0.00000000000E+00  0.00000000000E+00  0.16525990459E+02  0.16525990459E+02  0.00000000000E+00 0. -1.
         21   -1    0    0  501  503 -0.00000000000E+00 -0.00000000000E+00 -0.43505009855E+01  0.43505009855E+01  0.00000000000E+00 0.  1.
          5    1    1    2  501    0  0.46764972451E+01  0.18121405134E+01 -0.24598996767E-01  0.68734332640E+01  0.47000000000E+01 0.  1.
         -5    1    1    2    0  502 -0.46764972451E+01 -0.18121405134E+01  0.12200088471E+02  0.14003058181E+02  0.47000000000E+01 0. -1.
<mgrwt>
<rscale>  2 0.68733892E+01</rscale>
<asrwt>0</asrwt>
<pdfrwt beam="1">  1       21 0.25424600E-02 0.68733892E+01</pdfrwt>
<pdfrwt beam="2">  1       21 0.66930785E-03 0.68733892E+01</pdfrwt>
<totfact> 0.16332221E+09</totfact>
</mgrwt>
</event>
<event>
 4    1  0.4084348E+006  0.5064439E+01  0.7546771E-02  0.2555848E+00
         21   -1    0    0  503  502  0.00000000000E+00  0.00000000000E+00  0.62039743619E+00  0.62039743619E+00  0.00000000000E+00 0.  1.
         21   -1    0    0  501  503 -0.00000000000E+00 -0.00000000000E+00 -0.51968652614E+02  0.51968652614E+02  0.00000000000E+00 0.  1.
          5    1    1    2  501    0 -0.17403950531E+01 -0.72771556059E+00 -0.37564361650E+02  0.37904218909E+02  0.47000000000E+01 0.  1.
         -5    1    1    2    0  502  0.17403950531E+01  0.72771556059E+00 -0.13783893527E+02  0.14684831141E+02  0.47000000000E+01 0.  1.
<mgrwt>
<rscale>  2 0.50644392E+01</rscale>
<asrwt>0</asrwt>
<pdfrwt beam="1">  1       21 0.95445738E-04 0.50644392E+01</pdfrwt>
<pdfrwt beam="2">  1       21 0.79951791E-02 0.50644392E+01</pdfrwt>
<totfact> 0.33058200E+09</totfact>
</mgrwt>
</event>
<event>
 4    1  0.4084348E+006  0.8189495E+01  0.7546771E-02  0.2195525E+00
         21   -1    0    0  503  502  0.00000000000E+00  0.00000000000E+00  0.17222234497E+03  0.17222234497E+03  0.00000000000E+00 0. -1.
         21   -1    0    0  501  503 -0.00000000000E+00 -0.00000000000E+00 -0.38961967288E+00  0.38961967288E+00  0.00000000000E+00 0.  1.
          5    1    1    2  501    0 -0.20965794575E+01  0.63704140353E+01  0.87841693734E+02  0.88222621693E+02  0.47000000000E+01 0. -1.
         -5    1    1    2    0  502  0.20965794575E+01 -0.63704140353E+01  0.83991031562E+02  0.84389342948E+02  0.47000000000E+01 0.  1.
<mgrwt>
<rscale>  2 0.81894945E+01</rscale>
<asrwt>0</asrwt>
<pdfrwt beam="1">  1       21 0.26495685E-01 0.81894945E+01</pdfrwt>
<pdfrwt beam="2">  1       21 0.59941626E-04 0.81894945E+01</pdfrwt>
<totfact> 0.13535089E+09</totfact>
</mgrwt>
</event>
<event>
 4    1  0.4084348E+006  0.1453342E+02  0.7546771E-02  0.1882649E+00
         21   -1    0    0  503  502  0.00000000000E+00  0.00000000000E+00  0.39633202698E+01  0.39633202698E+01  0.00000000000E+00 0. -1.
         21   -1    0    0  501  503 -0.00000000000E+00 -0.00000000000E+00 -0.53557507868E+02  0.53557507868E+02  0.00000000000E+00 0.  1.
          5    1    1    2  501    0 -0.48903544831E+01 -0.12853585337E+02 -0.22778807301E+02  0.27020256939E+02  0.47000000000E+01 0.  1.
         -5    1    1    2    0  502  0.48903544831E+01  0.12853585337E+02 -0.26815380298E+02  0.30500571199E+02  0.47000000000E+01 0. -1.
<mgrwt>
<rscale>  2 0.14533417E+02</rscale>
<asrwt>0</asrwt>
<pdfrwt beam="1">  1       21 0.60974165E-03 0.14533417E+02</pdfrwt>
<pdfrwt beam="2">  1       21 0.82396157E-02 0.14533417E+02</pdfrwt>
<totfact> 0.48077113E+08</totfact>
</mgrwt>
</event>
<event>
 4    1  0.4084348E+006  0.6028025E+01  0.7546771E-02  0.2411790E+00
         21   -1    0    0  503  502  0.00000000000E+00  0.00000000000E+00  0.36422390703E+02  0.36422390703E+02  0.00000000000E+00 0.  1.
         21   -1    0    0  501  503 -0.00000000000E+00 -0.00000000000E+00 -0.10045051787E+01  0.10045051787E+01  0.00000000000E+00 0.  1.
          5    1    1    2  501    0  0.34538869966E+01 -0.15224142482E+01  0.19253988484E+02  0.20175558309E+02  0.47000000000E+01 0.  1.
         -5    1    1    2    0  502 -0.34538869966E+01  0.15224142482E+01  0.16163897041E+02  0.17251337573E+02  0.47000000000E+01 0.  1.
<mgrwt>
<rscale>  2 0.60280246E+01</rscale>
<asrwt>0</asrwt>
<pdfrwt beam="1">  1       21 0.56034437E-02 0.60280246E+01</pdfrwt>
<pdfrwt beam="2">  1       21 0.15453929E-03 0.60280246E+01</pdfrwt>
<totfact> 0.34641154E+09</totfact>
</mgrwt>
</event>
<event>
 4    1  0.4084348E+006  0.5103055E+01  0.7546771E-02  0.2549190E+00
         21   -1    0    0  501  502  0.00000000000E+00  0.00000000000E+00  0.40924311637E+02  0.40924311637E+02  0.00000000000E+00 0. -1.
         21   -1    0    0  502  503 -0.00000000000E+00 -0.00000000000E+00 -0.14352294765E+01  0.14352294765E+01  0.00000000000E+00 0.  1.
          5    1    1    2  501    0 -0.19322088004E+01 -0.46663033149E+00  0.35546390729E+02  0.35910821052E+02  0.47000000000E+01 0. -1.
         -5    1    1    2    0  503  0.19322088004E+01  0.46663033149E+00  0.39426914312E+01  0.64487200618E+01  0.47000000000E+01 0.  1.
<mgrwt>
<rscale>  2 0.51030554E+01</rscale>
<asrwt>0</asrwt>
<pdfrwt beam="1">  1       21 0.62960471E-02 0.51030554E+01</pdfrwt>
<pdfrwt beam="2">  1       21 0.22080457E-03 0.51030554E+01</pdfrwt>
<totfact> 0.15459590E+09</totfact>
</mgrwt>
</event>
<event>
 4    1  0.4084348E+006  0.5580989E+01  0.7546771E-02  0.2473373E+00
         21   -1    0    0  501  502  0.00000000000E+00  0.00000000000E+00  0.21638219630E+02  0.21638219630E+02  0.00000000000E+00 0.  1.
         21   -1    0    0  502  503 -0.00000000000E+00 -0.00000000000E+00 -0.20098629168E+01  0.20098629168E+01  0.00000000000E+00 0.  1.
          5    1    1    2  501    0 -0.23124412483E+01  0.19261490501E+01  0.16113185863E+02  0.17052336888E+02  0.47000000000E+01 0.  1.
         -5    1    1    2    0  503  0.23124412483E+01 -0.19261490501E+01  0.35151708507E+01  0.65957456591E+01  0.47000000000E+01 0.  1.
<mgrwt>
<rscale>  2 0.55809887E+01</rscale>
<asrwt>0</asrwt>
<pdfrwt beam="1">  1       21 0.33289567E-02 0.55809887E+01</pdfrwt>
<pdfrwt beam="2">  1       21 0.30920970E-03 0.55809887E+01</pdfrwt>
<totfact> 0.27053587E+09</totfact>
</mgrwt>
</event>
<event>
 4    1  0.4084348E+006  0.7990993E+01  0.7546771E-02  0.2211346E+00
         21   -1    0    0  503  502  0.00000000000E+00  0.00000000000E+00  0.43009367670E+02  0.43009367670E+02  0.00000000000E+00 0.  1.
         21   -1    0    0  501  503 -0.00000000000E+00 -0.00000000000E+00 -0.15967839626E+01  0.15967839626E+01  0.00000000000E+00 0.  1.
          5    1    1    2  501    0  0.18987448171E+01 -0.61774375335E+01  0.14797274006E+02  0.16817112843E+02  0.47000000000E+01 0.  1.
         -5    1    1    2    0  502 -0.18987448171E+01  0.61774375335E+01  0.26615309701E+02  0.27789038789E+02  0.47000000000E+01 0.  1.
<mgrwt>
<rscale>  2 0.79909928E+01</rscale>
<asrwt>0</asrwt>
<pdfrwt beam="1">  1       21 0.66168249E-02 0.79909928E+01</pdfrwt>
<pdfrwt beam="2">  1       21 0.24565910E-03 0.79909928E+01</pdfrwt>
<totfact> 0.17783772E+09</totfact>
</mgrwt>
</event>
<event>
 4    1  0.4084348E+006  0.1085217E+02  0.7546771E-02  0.2029504E+00
         21   -1    0    0  503  502  0.00000000000E+00  0.00000000000E+00  0.57885163636E+01  0.57885163636E+01  0.00000000000E+00 0.  1.
         21   -1    0    0  501  503 -0.00000000000E+00 -0.00000000000E+00 -0.30564227925E+02  0.30564227925E+02  0.00000000000E+00 0. -1.
          5    1    1    2  501    0  0.88801602674E+01  0.41015004469E+01 -0.22897826497E+02  0.25339297753E+02  0.47000000000E+01 0.  1.
         -5    1    1    2    0  502 -0.88801602674E+01 -0.41015004469E+01 -0.18778850642E+01  0.11013446536E+02  0.47000000000E+01 0. -1.
<mgrwt>
<rscale>  2 0.10852168E+02</rscale>
<asrwt>0</asrwt>
<pdfrwt beam="1">  1       21 0.89054099E-03 0.10852168E+02</pdfrwt>
<pdfrwt beam="2">  1       21 0.47021889E-02 0.10852168E+02</pdfrwt>
<totfact> 0.57996951E+08</totfact>
</mgrwt>
</event>
<event>
 4    1  0.4084348E+006  0.6588184E+01  0.7546771E-02  0.2344628E+00
         21   -1    0    0  501  502  0.00000000000E+00  0.00000000000E+00  0.64092018811E+02  0.64092018811E+02  0.00000000000E+00 0.  1.
         21   -1    0    0  502  503 -0.00000000000E+00 -0.00000000000E+00 -0.70368007156E+00  0.70368007156E+00  0.00000000000E+00 0. -1.
          5    1    1    2  501    0  0.13492067277E+01  0.44151788864E+01  0.37976980022E+02  0.38544197682E+02  0.47000000000E+01 0.  1.
         -5    1    1    2    0  503 -0.13492067277E+01 -0.44151788864E+01  0.25411358717E+02  0.26251501200E+02  0.47000000000E+01 0.  1.
<mgrwt>
<rscale>  2 0.65881836E+01</rscale>
<asrwt>0</asrwt>
<pdfrwt beam="1">  1       21 0.98603060E-02 0.65881836E+01</pdfrwt>
<pdfrwt beam="2">  1       21 0.10825852E-03 0.65881836E+01</pdfrwt>
<totfact> 0.25651901E+09</totfact>
</mgrwt>
</event>
<event>
 4    1  0.4084348E+006  0.9801045E+01  0.7546771E-02  0.2086490E+00
         21   -1    0    0  501  502  0.00000000000E+00  0.00000000000E+00  0.73542072902E+03  0.73542072902E+03  0.00000000000E+00 0.  1.
         21   -1    0    0  502  503 -0.00000000000E+00 -0.00000000000E+00 -0.35795677204E+00  0.35795677204E+00  0.00000000000E+00 0.  1.
          5    1    1    2  501    0  0.81904517955E+01 -0.26243071232E+01  0.66071316621E+03  0.66078585676E+03  0.47000000000E+01 0.  1.
         -5    1    1    2    0  503 -0.81904517955E+01  0.26243071232E+01  0.74349606037E+02  0.74992829033E+02  0.47000000000E+01 0.  1.
<mgrwt>
<rscale>  2 0.98010453E+01</rscale>
<asrwt>0</asrwt>
<pdfrwt beam="1">  1       21 0.11314044E+00 0.98010453E+01</pdfrwt>
<pdfrwt beam="2">  1       21 0.55070861E-04 0.98010453E+01</pdfrwt>
<totfact> 0.10726720E+08</totfact>
</mgrwt>
</event>
<event>
 4    1  0.4084348E+006  0.8922120E+01  0.7546771E-02  0.2142077E+00
         21   -1    0    0  501  502  0.00000000000E+00  0.00000000000E+00  0.17828794510E+03  0.17828794510E+03  0.00000000000E+00 0. -1.
         21   -1    0    0  502  503 -0.00000000000E+00 -0.00000000000E+00 -0.99528260546E+00  0.99528260546E+00  0.00000000000E+00 0.  1.
          5    1    1    2  501    0  0.61714511964E+01 -0.44076546718E+01  0.15521035971E+03  0.15546658802E+03  0.47000000000E+01 0. -1.
         -5    1    1    2    0  503 -0.61714511964E+01  0.44076546718E+01  0.22082302780E+02  0.23816639679E+02  0.47000000000E+01 0.  1.
<mgrwt>
<rscale>  2 0.89221202E+01</rscale>
<asrwt>0</asrwt>
<pdfrwt beam="1">  1       21 0.27428889E-01 0.89221202E+01</pdfrwt>
<pdfrwt beam="2">  1       21 0.15312054E-03 0.89221202E+01</pdfrwt>
<totfact> 0.37142681E+08</totfact>
</mgrwt>
</event>
<event>
 4    1  0.4084348E+006  0.9196539E+01  0.7546771E-02  0.2123821E+00
         21   -1    0    0  503  502  0.00000000000E+00  0.00000000000E+00  0.96371348848E+01  0.96371348848E+01  0.00000000000E+00 0.  1.
         21   -1    0    0  501  503 -0.00000000000E+00 -0.00000000000E+00 -0.90963711496E+01  0.90963711496E+01  0.00000000000E+00 0. -1.
          5    1    1    2  501    0  0.72004077082E+01  0.32619707540E+01  0.20279954365E+01  0.94174885110E+01  0.47000000000E+01 0. -1.
         -5    1    1    2    0  502 -0.72004077082E+01 -0.32619707540E+01 -0.14872317013E+01  0.93160175234E+01  0.47000000000E+01 0.  1.
<mgrwt>
<rscale>  2 0.91965387E+01</rscale>
<asrwt>0</asrwt>
<pdfrwt beam="1">  1       21 0.14826361E-02 0.91965387E+01</pdfrwt>
<pdfrwt beam="2">  1       21 0.13994417E-02 0.91965387E+01</pdfrwt>
<totfact> 0.15306682E+09</totfact>
</mgrwt>
</event>
<event>
 4    1  0.4084348E+006  0.6357514E+01  0.7546771E-02  0.2371092E+00
         21   -1    0    0  503  502  0.00000000000E+00  0.00000000000E+00  0.18957541817E+01  0.18957541817E+01  0.00000000000E+00 0.  1.
         21   -1    0    0  501  503 -0.00000000000E+00 -0.00000000000E+00 -0.28338137049E+02  0.28338137049E+02  0.00000000000E+00 0.  1.
          5    1    1    2  501    0  0.52325822887E+00 -0.42490221212E+01 -0.56983654282E+01  0.85375263814E+01  0.47000000000E+01 0.  1.
         -5    1    1    2    0  502 -0.52325822887E+00  0.42490221212E+01 -0.20744017439E+02  0.21696364850E+02  0.47000000000E+01 0.  1.
<mgrwt>
<rscale>  2 0.63575143E+01</rscale>
<asrwt>0</asrwt>
<pdfrwt beam="1">  1       21 0.29165450E-03 0.63575143E+01</pdfrwt>
<pdfrwt beam="2">  1       21 0.43597132E-02 0.63575143E+01</pdfrwt>
<totfact> 0.22109776E+09</totfact>
</mgrwt>
</event>
<event>
 4    1  0.4084348E+006  0.5765465E+01  0.7546771E-02  0.2446986E+00
         21   -1    0    0  501  502  0.00000000000E+00  0.00000000000E+00  0.19461140299E-01  0.19461140299E-01  0.00000000000E+00 0.  1.
         21   -1    0    0  502  503 -0.00000000000E+00 -0.00000000000E+00 -0.20073716010E+04  0.20073716010E+04  0.00000000000E+00 0.  1.
          5    1    1    2  501    0 -0.15669479050E+01 -0.29487728029E+01 -0.13912527611E+04  0.13912647073E+04  0.47000000000E+01 0.  1.
         -5    1    1    2    0  503  0.15669479050E+01  0.29487728029E+01 -0.61609937873E+03  0.61612635479E+03  0.47000000000E+01 0.  1.
<mgrwt>
<rscale>  2 0.57654650E+01</rscale>
<asrwt>0</asrwt>
<pdfrwt beam="1">  1       21 0.29946519E-05 0.57654650E+01</pdfrwt>
<pdfrwt beam="2">  1       21 0.30876140E+00 0.57654650E+01</pdfrwt>
<totfact> 0.42847536E+08</totfact>
</mgrwt>
</event>
<event>
 4    1  0.4084348E+006  0.5558308E+01  0.7546771E-02  0.2476719E+00
         21   -1    0    0  501  502  0.00000000000E+00  0.00000000000E+00  0.76201567816E+00  0.76201567816E+00  0.00000000000E+00 0. -1.
         21   -1    0    0  502  503 -0.00000000000E+00 -0.00000000000E+00 -0.42714518980E+02  0.42714518980E+02  0.00000000000E+00 0.  1.
          5    1    1    2  501    0 -0.99678011247E+00 -0.27948562593E+01 -0.25877060169E+02  0.26467282352E+02  0.47000000000E+01 0.  1.
         -5    1    1    2    0  503  0.99678011247E+00  0.27948562593E+01 -0.16075443133E+02  0.17009252307E+02  0.47000000000E+01 0. -1.
<mgrwt>
<rscale>  2 0.55583084E+01</rscale>
<asrwt>0</asrwt>
<pdfrwt beam="1">  1       21 0.11723320E-03 0.55583084E+01</pdfrwt>
<pdfrwt beam="2">  1       21 0.65714632E-02 0.55583084E+01</pdfrwt>
<totfact> 0.36846861E+09</totfact>
</mgrwt>
</event>
<event>
 4    1  0.4084348E+006  0.7493028E+01  0.7546771E-02  0.2253984E+00
         21   -1    0    0  503  502  0.00000000000E+00  0.00000000000E+00  0.15506673629E+01  0.15506673629E+01  0.00000000000E+00 0. -1.
         21   -1    0    0  501  503 -0.00000000000E+00 -0.00000000000E+00 -0.15115671271E+03  0.15115671271E+03  0.00000000000E+00 0.  1.
          5    1    1    2  501    0  0.30638532703E+01  0.49667160903E+01 -0.14138699564E+03  0.14158540886E+03  0.47000000000E+01 0.  1.
         -5    1    1    2    0  502 -0.30638532703E+01 -0.49667160903E+01 -0.82190497037E+01  0.11121971211E+02  0.47000000000E+01 0. -1.
<mgrwt>
<rscale>  2 0.74930278E+01</rscale>
<asrwt>0</asrwt>
<pdfrwt beam="1">  1       21 0.23856409E-03 0.74930278E+01</pdfrwt>
<pdfrwt beam="2">  1       21 0.23254891E-01 0.74930278E+01</pdfrwt>
<totfact> 0.24109999E+08</totfact>
</mgrwt>
</event>
<event>
 4    1  0.4084348E+006  0.8917601E+01  0.7546771E-02  0.2142385E+00
         21   -1    0    0  501  502  0.00000000000E+00  0.00000000000E+00  0.19862561483E+03  0.19862561483E+03  0.00000000000E+00 0.  1.
         21   -1    0    0  502  503 -0.00000000000E+00 -0.00000000000E+00 -0.40546765514E+00  0.40546765514E+00  0.00000000000E+00 0. -1.
          5    1    1    2  501    0  0.29789166990E+01  0.69684769923E+01  0.11026904078E+03  0.11062904217E+03  0.47000000000E+01 0.  1.
         -5    1    1    2    0  503 -0.29789166990E+01 -0.69684769923E+01  0.87951106393E+02  0.88402040316E+02  0.47000000000E+01 0. -1.
<mgrwt>
<rscale>  2 0.89176015E+01</rscale>
<asrwt>0</asrwt>
<pdfrwt beam="1">  1       21 0.30557709E-01 0.89176015E+01</pdfrwt>
<pdfrwt beam="2">  1       21 0.62379798E-04 0.89176015E+01</pdfrwt>
<totfact> 0.10568660E+09</totfact>
</mgrwt>
</event>
<event>
 4    1  0.4084348E+006  0.5942624E+01  0.7546771E-02  0.2422951E+00
         21   -1    0    0  503  502  0.00000000000E+00  0.00000000000E+00  0.23167161486E+02  0.23167161486E+02  0.00000000000E+00 0.  1.
         21   -1    0    0  501  503 -0.00000000000E+00 -0.00000000000E+00 -0.46958671941E+01  0.46958671941E+01  0.00000000000E+00 0.  1.
          5    1    1    2  501    0 -0.30879238058E+01 -0.19208096753E+01 -0.22135278395E+01  0.63414894730E+01  0.47000000000E+01 0.  1.
         -5    1    1    2    0  502  0.30879238058E+01  0.19208096753E+01  0.20684822131E+02  0.21521539207E+02  0.47000000000E+01 0.  1.
<mgrwt>
<rscale>  2 0.59426243E+01</rscale>
<asrwt>0</asrwt>
<pdfrwt beam="1">  1       21 0.35641786E-02 0.59426243E+01</pdfrwt>
<pdfrwt beam="2">  1       21 0.72244112E-03 0.59426243E+01</pdfrwt>
<totfact> 0.79852077E+08</totfact>
</mgrwt>
</event>
<event>
 4    1  0.4084348E+006  0.5794871E+01  0.7546771E-02  0.2442911E+00
         21   -1    0    0  503  502  0.00000000000E+00  0.00000000000E+00  0.15681406348E+02  0.15681406348E+02  0.00000000000E+00 0. -1.
         21   -1    0    0  501  503 -0.00000000000E+00 -0.00000000000E+00 -0.31507819971E+01  0.31507819971E+01  0.00000000000E+00 0. -1.
          5    1    1    2  501    0  0.22306770126E+00  0.33824204679E+01  0.93583752167E+00  0.58699505354E+01  0.47000000000E+01 0. -1.
         -5    1    1    2    0  502 -0.22306770126E+00 -0.33824204679E+01  0.11594786830E+02  0.12962237810E+02  0.47000000000E+01 0. -1.
<mgrwt>
<rscale>  2 0.57948708E+01</rscale>
<asrwt>0</asrwt>
<pdfrwt beam="1">  1       21 0.24125240E-02 0.57948708E+01</pdfrwt>
<pdfrwt beam="2">  1       21 0.48473570E-03 0.57948708E+01</pdfrwt>
<totfact> 0.24003966E+09</totfact>
</mgrwt>
</event>
<event>
 4    1  0.4084348E+006  0.5357956E+01  0.7546771E-02  0.2507318E+00
         21   -1    0    0  501  502  0.00000000000E+00  0.00000000000E+00  0.45763901850E+03  0.45763901850E+03  0.00000000000E+00 0. -1.
         21   -1    0    0  502  503 -0.00000000000E+00 -0.00000000000E+00 -0.80780518189E-01  0.80780518189E-01  0.00000000000E+00 0. -1.
          5    1    1    2  501    0  0.25721875175E+01  0.39282986187E-01  0.33696269273E+03  0.33700528777E+03  0.47000000000E+01 0. -1.
         -5    1    1    2    0  503 -0.25721875175E+01 -0.39282986187E-01  0.12059554526E+03  0.12071451125E+03  0.47000000000E+01 0. -1.
<mgrwt>
<rscale>  2 0.53579559E+01</rscale>
<asrwt>0</asrwt>
<pdfrwt beam="1">  1       21 0.70403927E-01 0.53579559E+01</pdfrwt>
<pdfrwt beam="2">  1       21 0.12428138E-04 0.53579559E+01</pdfrwt>
<totfact> 0.14490808E+09</totfact>
</mgrwt>
</event>
<event>
 4    1  0.4084348E+006  0.6316414E+01  0.7546771E-02  0.2375975E+00
         21   -1    0    0  503  502  0.00000000000E+00  0.00000000000E+00  0.46280546953E-01  0.46280546953E-01  0.00000000000E+00 0.  1.
         21   -1    0    0  501  503 -0.00000000000E+00 -0.00000000000E+00 -0.13858474043E+04  0.13858474043E+04  0.00000000000E+00 0. -1.
          5    1    1    2  501    0  0.37965820184E+01  0.18420228453E+01 -0.11189063355E+04  0.11189241640E+04  0.47000000000E+01 0. -1.
         -5    1    1    2    0  502 -0.37965820184E+01 -0.18420228453E+01 -0.26689478819E+03  0.26696952082E+03  0.47000000000E+01 0.  1.
<mgrwt>
<rscale>  2 0.63164138E+01</rscale>
<asrwt>0</asrwt>
<pdfrwt beam="1">  1       21 0.71193790E-05 0.63164138E+01</pdfrwt>
<pdfrwt beam="2">  1       21 0.21322841E+00 0.63164138E+01</pdfrwt>
<totfact> 0.33854629E+08</totfact>
</mgrwt>
</event>
<event>
 4    1  0.4084348E+006  0.9158255E+01  0.7546771E-02  0.2126316E+00
         21   -1    0    0  503  502  0.00000000000E+00  0.00000000000E+00  0.87697565115E+01  0.87697565115E+01  0.00000000000E+00 0.  1.
         21   -1    0    0  501  503 -0.00000000000E+00 -0.00000000000E+00 -0.95782406391E+01  0.95782406391E+01  0.00000000000E+00 0. -1.
          5    1    1    2  501    0 -0.31155599840E+01 -0.72164344285E+01 -0.50064284037E-01  0.91583921246E+01  0.47000000000E+01 0. -1.
         -5    1    1    2    0  502  0.31155599840E+01  0.72164344285E+01 -0.75841984355E+00  0.91896050260E+01  0.47000000000E+01 0.  1.
<mgrwt>
<rscale>  2 0.91582553E+01</rscale>
<asrwt>0</asrwt>
<pdfrwt beam="1">  1       21 0.13491933E-02 0.91582553E+01</pdfrwt>
<pdfrwt beam="2">  1       21 0.14735755E-02 0.91582553E+01</pdfrwt>
<totfact> 0.16245296E+09</totfact>
</mgrwt>
</event>
<event>
 4    1  0.4084348E+006  0.6986034E+01  0.7546771E-02  0.2302404E+00
         21   -1    0    0  503  502  0.00000000000E+00  0.00000000000E+00  0.21799649973E+02  0.21799649973E+02  0.00000000000E+00 0. -1.
         21   -1    0    0  501  503 -0.00000000000E+00 -0.00000000000E+00 -0.56527616426E+01  0.56527616426E+01  0.00000000000E+00 0. -1.
          5    1    1    2  501    0  0.43948308867E+00  0.51499047930E+01 -0.25937605802E+01  0.74519969612E+01  0.47000000000E+01 0. -1.
         -5    1    1    2    0  502 -0.43948308867E+00 -0.51499047930E+01  0.18740648911E+02  0.20000414654E+02  0.47000000000E+01 0. -1.
<mgrwt>
<rscale>  2 0.69860336E+01</rscale>
<asrwt>0</asrwt>
<pdfrwt beam="1">  1       21 0.33537923E-02 0.69860336E+01</pdfrwt>
<pdfrwt beam="2">  1       21 0.86965565E-03 0.69860336E+01</pdfrwt>
<totfact> 0.76032064E+08</totfact>
</mgrwt>
</event>
<event>
 4    1  0.4084348E+006  0.5926032E+01  0.7546771E-02  0.2425151E+00
         21   -1    0    0  503  502  0.00000000000E+00  0.00000000000E+00  0.24994441069E+01  0.24994441069E+01  0.00000000000E+00 0. -1.
         21   -1    0    0  501  503 -0.00000000000E+00 -0.00000000000E+00 -0.14078908596E+02  0.14078908596E+02  0.00000000000E+00 0. -1.
          5    1    1    2  501    0 -0.32067509247E+01 -0.16566856505E+01 -0.54158627059E+01  0.80280400900E+01  0.47000000000E+01 0. -1.
         -5    1    1    2    0  502  0.32067509247E+01  0.16566856505E+01 -0.61636017833E+01  0.85503126130E+01  0.47000000000E+01 0. -1.
<mgrwt>
<rscale>  2 0.59260323E+01</rscale>
<asrwt>0</asrwt>
<pdfrwt beam="1">  1       21 0.38452987E-03 0.59260323E+01</pdfrwt>
<pdfrwt beam="2">  1       21 0.21659859E-02 0.59260323E+01</pdfrwt>
<totfact> 0.39397176E+09</totfact>
</mgrwt>
</event>
<event>
 4    1  0.4084348E+006  0.7222497E+01  0.7546771E-02  0.2279131E+00
         21   -1    0    0  503  502  0.00000000000E+00  0.00000000000E+00  0.23284188827E+00  0.23284188827E+00  0.00000000000E+00 0.  1.
         21   -1    0    0  501  503 -0.00000000000E+00 -0.00000000000E+00 -0.29188807706E+03  0.29188807706E+03  0.00000000000E+00 0. -1.
          5    1    1    2  501    0 -0.12579444895E+01  0.53377939622E+01 -0.21625035182E+03  0.21637092949E+03  0.47000000000E+01 0.  1.
         -5    1    1    2    0  502  0.12579444895E+01 -0.53377939622E+01 -0.75404883353E+02  0.75749989453E+02  0.47000000000E+01 0.  1.
<mgrwt>
<rscale>  2 0.72224974E+01</rscale>
<asrwt>0</asrwt>
<pdfrwt beam="1">  1       21 0.35821779E-04 0.72224974E+01</pdfrwt>
<pdfrwt beam="2">  1       21 0.44905921E-01 0.72224974E+01</pdfrwt>
<totfact> 0.99797155E+08</totfact>
</mgrwt>
</event>
<event>
 4    1  0.4084348E+006  0.7343454E+01  0.7546771E-02  0.2267701E+00
         21   -1    0    0  501  502  0.00000000000E+00  0.00000000000E+00  0.32513897334E+02  0.32513897334E+02  0.00000000000E+00 0.  1.
         21   -1    0    0  502  503 -0.00000000000E+00 -0.00000000000E+00 -0.32112128864E+01  0.32112128864E+01  0.00000000000E+00 0.  1.
          5    1    1    2  501    0  0.56402471019E+01 -0.15466837840E+00  0.27072039060E+02  0.28050340613E+02  0.47000000000E+01 0.  1.
         -5    1    1    2    0  503 -0.56402471019E+01  0.15466837840E+00  0.22306453883E+01  0.76747696074E+01  0.47000000000E+01 0.  1.
<mgrwt>
<rscale>  2 0.73434535E+01</rscale>
<asrwt>0</asrwt>
<pdfrwt beam="1">  1       21 0.50021378E-02 0.73434535E+01</pdfrwt>
<pdfrwt beam="2">  1       21 0.49403277E-03 0.73434535E+01</pdfrwt>
<totfact> 0.96539807E+08</totfact>
</mgrwt>
</event>
<event>
 4    1  0.4084348E+006  0.2656583E+02  0.7546771E-02  0.1639479E+00
         21   -1    0    0  503  502  0.00000000000E+00  0.00000000000E+00  0.18162920799E+03  0.18162920799E+03  0.00000000000E+00 0.  1.
         21   -1    0    0  501  503 -0.00000000000E+00 -0.00000000000E+00 -0.14542097309E+02  0.14542097309E+02  0.00000000000E+00 0. -1.
          5    1    1    2  501    0 -0.14605435995E+02  0.21687197458E+02 -0.42151562274E+00  0.26569173296E+02  0.47000000000E+01 0. -1.
         -5    1    1    2    0  502  0.14605435995E+02 -0.21687197458E+02  0.16750862630E+03  0.16960213200E+03  0.47000000000E+01 0.  1.
<mgrwt>
<rscale>  2 0.26565829E+02</rscale>
<asrwt>0</asrwt>
<pdfrwt beam="1">  1       21 0.27942954E-01 0.26565829E+02</pdfrwt>
<pdfrwt beam="2">  1       21 0.22372459E-02 0.26565829E+02</pdfrwt>
<totfact> 0.10267319E+07</totfact>
</mgrwt>
</event>
<event>
 4    1  0.4084348E+006  0.5574627E+01  0.7546771E-02  0.2474309E+00
         21   -1    0    0  501  502  0.00000000000E+00  0.00000000000E+00  0.18181129672E+02  0.18181129672E+02  0.00000000000E+00 0.  1.
         21   -1    0    0  502  503 -0.00000000000E+00 -0.00000000000E+00 -0.34185028905E+01  0.34185028905E+01  0.00000000000E+00 0. -1.
          5    1    1    2  501    0  0.82990451120E+00 -0.28805777294E+01  0.15017894036E+02  0.16019163861E+02  0.47000000000E+01 0.  1.
         -5    1    1    2    0  503 -0.82990451120E+00  0.28805777294E+01 -0.25526725422E+00  0.55804687011E+01  0.47000000000E+01 0. -1.
<mgrwt>
<rscale>  2 0.55746273E+01</rscale>
<asrwt>0</asrwt>
<pdfrwt beam="1">  1       21 0.27970968E-02 0.55746273E+01</pdfrwt>
<pdfrwt beam="2">  1       21 0.52592353E-03 0.55746273E+01</pdfrwt>
<totfact> 0.16739095E+09</totfact>
</mgrwt>
</event>
<event>
 4    1  0.4084348E+006  0.5350670E+01  0.7546771E-02  0.2508468E+00
         21   -1    0    0  501  502  0.00000000000E+00  0.00000000000E+00  0.18556170414E+02  0.18556170414E+02  0.00000000000E+00 0.  1.
         21   -1    0    0  502  503 -0.00000000000E+00 -0.00000000000E+00 -0.33724842681E+01  0.33724842681E+01  0.00000000000E+00 0.  1.
          5    1    1    2  501    0 -0.21482351255E+01  0.13873562858E+01  0.15667676500E+02  0.16556139602E+02  0.47000000000E+01 0.  1.
         -5    1    1    2    0  503  0.21482351255E+01 -0.13873562858E+01 -0.48399035430E+00  0.53725150797E+01  0.47000000000E+01 0.  1.
<mgrwt>
<rscale>  2 0.53506702E+01</rscale>
<asrwt>0</asrwt>
<pdfrwt beam="1">  1       21 0.28547954E-02 0.53506702E+01</pdfrwt>
<pdfrwt beam="2">  1       21 0.51884374E-03 0.53506702E+01</pdfrwt>
<totfact> 0.15957326E+09</totfact>
</mgrwt>
</event>
<event>
 4    1  0.4084348E+006  0.5737166E+01  0.7546771E-02  0.2450941E+00
         21   -1    0    0  503  502  0.00000000000E+00  0.00000000000E+00  0.52594021496E+00  0.52594021496E+00  0.00000000000E+00 0. -1.
         21   -1    0    0  501  503 -0.00000000000E+00 -0.00000000000E+00 -0.20434631580E+03  0.20434631580E+03  0.00000000000E+00 0.  1.
          5    1    1    2  501    0  0.85682600823E-01  0.32890319039E+01 -0.18723026217E+03  0.18731814153E+03  0.47000000000E+01 0.  1.
         -5    1    1    2    0  502 -0.85682600823E-01 -0.32890319039E+01 -0.16590113411E+02  0.17554114485E+02  0.47000000000E+01 0. -1.
<mgrwt>
<rscale>  2 0.57371659E+01</rscale>
<asrwt>0</asrwt>
<pdfrwt beam="1">  1       21 0.80913962E-04 0.57371659E+01</pdfrwt>
<pdfrwt beam="2">  1       21 0.31437862E-01 0.57371659E+01</pdfrwt>
<totfact> 0.52982596E+08</totfact>
</mgrwt>
</event>
<event>
 4    1  0.4084348E+006  0.5183110E+01  0.7546771E-02  0.2535661E+00
         21   -1    0    0  503  502  0.00000000000E+00  0.00000000000E+00  0.47206349724E+02  0.47206349724E+02  0.00000000000E+00 0. -1.
         21   -1    0    0  501  503 -0.00000000000E+00 -0.00000000000E+00 -0.56921924746E+00  0.56921924746E+00  0.00000000000E+00 0. -1.
          5    1    1    2  501    0  0.19560387324E+01 -0.97392894252E+00  0.22957537366E+02  0.23535359505E+02  0.47000000000E+01 0. -1.
         -5    1    1    2    0  502 -0.19560387324E+01  0.97392894252E+00  0.23679593110E+02  0.24240209466E+02  0.47000000000E+01 0. -1.
<mgrwt>
<rscale>  2 0.51831096E+01</rscale>
<asrwt>0</asrwt>
<pdfrwt beam="1">  1       21 0.72625123E-02 0.51831096E+01</pdfrwt>
<pdfrwt beam="2">  1       21 0.87572229E-04 0.51831096E+01</pdfrwt>
<totfact> 0.43793554E+09</totfact>
</mgrwt>
</event>
<event>
 4    1  0.4084348E+006  0.5214250E+01  0.7546771E-02  0.2530494E+00
         21   -1    0    0  503  502  0.00000000000E+00  0.00000000000E+00  0.24045103121E+02  0.24045103121E+02  0.00000000000E+00 0. -1.
         21   -1    0    0  501  503 -0.00000000000E+00 -0.00000000000E+00 -0.15978737660E+01  0.15978737660E+01  0.00000000000E+00 0.  1.
          5    1    1    2  501    0  0.21836083207E+01 -0.57467835722E+00  0.42910362706E+01  0.67528803327E+01  0.47000000000E+01 0.  1.
         -5    1    1    2    0  502 -0.21836083207E+01  0.57467835722E+00  0.18156193085E+02  0.18890096555E+02  0.47000000000E+01 0. -1.
<mgrwt>
<rscale>  2 0.52142498E+01</rscale>
<asrwt>0</asrwt>
<pdfrwt beam="1">  1       21 0.36992464E-02 0.52142498E+01</pdfrwt>
<pdfrwt beam="2">  1       21 0.24582675E-03 0.52142498E+01</pdfrwt>
<totfact> 0.29735870E+09</totfact>
</mgrwt>
</event>
<event>
 4    1  0.4084348E+006  0.1116737E+02  0.7546771E-02  0.2014066E+00
         21   -1    0    0  503  502  0.00000000000E+00  0.00000000000E+00  0.77865505276E+01  0.77865505276E+01  0.00000000000E+00 0.  1.
         21   -1    0    0  501  503 -0.00000000000E+00 -0.00000000000E+00 -0.72466380612E+02  0.72466380612E+02  0.00000000000E+00 0. -1.
          5    1    1    2  501    0 -0.22559609328E+01 -0.98757632125E+01 -0.67755606947E+02  0.68669733737E+02  0.47000000000E+01 0. -1.
         -5    1    1    2    0  502  0.22559609328E+01  0.98757632125E+01  0.30757768626E+01  0.11583197403E+02  0.47000000000E+01 0.  1.
<mgrwt>
<rscale>  2 0.11167366E+02</rscale>
<asrwt>0</asrwt>
<pdfrwt beam="1">  1       21 0.11979309E-02 0.11167366E+02</pdfrwt>
<pdfrwt beam="2">  1       21 0.11148674E-01 0.11167366E+02</pdfrwt>
<totfact> 0.98508028E+07</totfact>
</mgrwt>
</event>
<event>
 4    1  0.4084348E+006  0.5372642E+01  0.7546771E-02  0.2505010E+00
         21   -1    0    0  501  502  0.00000000000E+00  0.00000000000E+00  0.49272455731E+00  0.49272455731E+00  0.00000000000E+00 0. -1.
         21   -1    0    0  502  503 -0.00000000000E+00 -0.00000000000E+00 -0.84546360734E+02  0.84546360734E+02  0.00000000000E+00 0. -1.
          5    1    1    2  501    0 -0.88411662543E-02  0.26029216951E+01 -0.18464303645E+02  0.19230075107E+02  0.47000000000E+01 0. -1.
         -5    1    1    2    0  503  0.88411662543E-02 -0.26029216951E+01 -0.65589332532E+02  0.65809010184E+02  0.47000000000E+01 0. -1.
<mgrwt>
<rscale>  2 0.53726418E+01</rscale>
<asrwt>0</asrwt>
<pdfrwt beam="1">  1       21 0.75803820E-04 0.53726418E+01</pdfrwt>
<pdfrwt beam="2">  1       21 0.13007125E-01 0.53726418E+01</pdfrwt>
<totfact> 0.22682827E+09</totfact>
</mgrwt>
</event>
<event>
 4    1  0.4084348E+006  0.9512509E+01  0.7546771E-02  0.2103841E+00
         21   -1    0    0  501  502  0.00000000000E+00  0.00000000000E+00  0.30007387627E+02  0.30007387627E+02  0.00000000000E+00 0. -1.
         21   -1    0    0  502  503 -0.00000000000E+00 -0.00000000000E+00 -0.95139629653E+01  0.95139629653E+01  0.00000000000E+00 0.  1.
          5    1    1    2  501    0 -0.71424277476E+01 -0.41693588171E+01  0.26578200691E+02  0.28229214992E+02  0.47000000000E+01 0. -1.
         -5    1    1    2    0  503  0.71424277476E+01  0.41693588171E+01 -0.60847760299E+01  0.11292135600E+02  0.47000000000E+01 0.  1.
<mgrwt>
<rscale>  2 0.95125090E+01</rscale>
<asrwt>0</asrwt>
<pdfrwt beam="1">  1       21 0.46165211E-02 0.95125090E+01</pdfrwt>
<pdfrwt beam="2">  1       21 0.14636866E-02 0.95125090E+01</pdfrwt>
<totfact> 0.26978246E+08</totfact>
</mgrwt>
</event>
<event>
 4    1  0.4084348E+006  0.1054404E+02  0.7546771E-02  0.2045287E+00
         21   -1    0    0  503  502  0.00000000000E+00  0.00000000000E+00  0.41234337388E+01  0.41234337388E+01  0.00000000000E+00 0. -1.
         21   -1    0    0  501  503 -0.00000000000E+00 -0.00000000000E+00 -0.36219141981E+02  0.36219141981E+02  0.00000000000E+00 0. -1.
          5    1    1    2  501    0 -0.17216532000E+01  0.92802307328E+01 -0.26245471998E+02  0.28284299047E+02  0.47000000000E+01 0. -1.
         -5    1    1    2    0  502  0.17216532000E+01 -0.92802307328E+01 -0.58502362440E+01  0.12058276672E+02  0.47000000000E+01 0. -1.
<mgrwt>
<rscale>  2 0.10544040E+02</rscale>
<asrwt>0</asrwt>
<pdfrwt beam="1">  1       21 0.63437443E-03 0.10544040E+02</pdfrwt>
<pdfrwt beam="2">  1       21 0.55721756E-02 0.10544040E+02</pdfrwt>
<totfact> 0.71808246E+08</totfact>
</mgrwt>
</event>
<event>
 4    1  0.4084348E+006  0.8664581E+01  0.7546771E-02  0.2160041E+00
         21   -1    0    0  503  502  0.00000000000E+00  0.00000000000E+00  0.53181340210E+01  0.53181340210E+01  0.00000000000E+00 0.  1.
         21   -1    0    0  501  503 -0.00000000000E+00 -0.00000000000E+00 -0.14154384010E+02  0.14154384010E+02  0.00000000000E+00 0.  1.
          5    1    1    2  501    0 -0.72296074823E+01 -0.84719592462E+00 -0.39163335997E+01  0.95085558392E+01  0.47000000000E+01 0.  1.
         -5    1    1    2    0  502  0.72296074823E+01  0.84719592462E+00 -0.49199163896E+01  0.99639621920E+01  0.47000000000E+01 0.  1.
<mgrwt>
<rscale>  2 0.86645811E+01</rscale>
<asrwt>0</asrwt>
<pdfrwt beam="1">  1       21 0.81817448E-03 0.86645811E+01</pdfrwt>
<pdfrwt beam="2">  1       21 0.21775975E-02 0.86645811E+01</pdfrwt>
<totfact> 0.18197628E+09</totfact>
</mgrwt>
</event>
<event>
 4    1  0.4084348E+006  0.8677827E+01  0.7546771E-02  0.2159096E+00
         21   -1    0    0  501  502  0.00000000000E+00  0.00000000000E+00  0.57466655905E+01  0.57466655905E+01  0.00000000000E+00 0.  1.
         21   -1    0    0  502  503 -0.00000000000E+00 -0.00000000000E+00 -0.58063076207E+02  0.58063076207E+02  0.00000000000E+00 0. -1.
          5    1    1    2  501    0 -0.48712961033E+01 -0.54300235000E+01  0.19165089862E+01  0.88869391598E+01  0.47000000000E+01 0.  1.
         -5    1    1    2    0  503  0.48712961033E+01  0.54300235000E+01 -0.54232919602E+02  0.54922802637E+02  0.47000000000E+01 0. -1.
<mgrwt>
<rscale>  2 0.86778270E+01</rscale>
<asrwt>0</asrwt>
<pdfrwt beam="1">  1       21 0.88410241E-03 0.86778270E+01</pdfrwt>
<pdfrwt beam="2">  1       21 0.89327808E-02 0.86778270E+01</pdfrwt>
<totfact> 0.19264299E+08</totfact>
</mgrwt>
</event>
<event>
 4    1  0.4084348E+006  0.7854555E+01  0.7546771E-02  0.2222593E+00
         21   -1    0    0  503  502  0.00000000000E+00  0.00000000000E+00  0.18650253452E+01  0.18650253452E+01  0.00000000000E+00 0. -1.
         21   -1    0    0  501  503 -0.00000000000E+00 -0.00000000000E+00 -0.33250616301E+02  0.33250616301E+02  0.00000000000E+00 0.  1.
          5    1    1    2  501    0 -0.13007609308E+01 -0.61572759818E+01 -0.14433085790E+02  0.16431919910E+02  0.47000000000E+01 0.  1.
         -5    1    1    2    0  502  0.13007609308E+01  0.61572759818E+01 -0.16952505166E+02  0.18683721736E+02  0.47000000000E+01 0. -1.
<mgrwt>
<rscale>  2 0.78545545E+01</rscale>
<asrwt>0</asrwt>
<pdfrwt beam="1">  1       21 0.28692699E-03 0.78545545E+01</pdfrwt>
<pdfrwt beam="2">  1       21 0.51154791E-02 0.78545545E+01</pdfrwt>
<totfact> 0.20939227E+09</totfact>
</mgrwt>
</event>
<event>
 4    1  0.4084348E+006  0.7941685E+01  0.7546771E-02  0.2215375E+00
         21   -1    0    0  501  502  0.00000000000E+00  0.00000000000E+00  0.15702988920E+03  0.15702988920E+03  0.00000000000E+00 0.  1.
         21   -1    0    0  502  503 -0.00000000000E+00 -0.00000000000E+00 -0.40309639490E+00  0.40309639490E+00  0.00000000000E+00 0.  1.
          5    1    1    2  501    0  0.54224274876E+01 -0.34025941027E+01  0.73591004954E+02  0.74018284070E+02  0.47000000000E+01 0.  1.
         -5    1    1    2    0  503 -0.54224274876E+01  0.34025941027E+01  0.83035787855E+02  0.83414701529E+02  0.47000000000E+01 0.  1.
<mgrwt>
<rscale>  2 0.79416854E+01</rscale>
<asrwt>0</asrwt>
<pdfrwt beam="1">  1       21 0.24158396E-01 0.79416854E+01</pdfrwt>
<pdfrwt beam="2">  1       21 0.62014955E-04 0.79416854E+01</pdfrwt>
<totfact> 0.14811375E+09</totfact>
</mgrwt>
</event>
<event>
 4    1  0.4084348E+006  0.7208448E+01  0.7546771E-02  0.2280478E+00
         21   -1    0    0  503  502  0.00000000000E+00  0.00000000000E+00  0.19911477906E+02  0.19911477906E+02  0.00000000000E+00 0. -1.
         21   -1    0    0  501  503 -0.00000000000E+00 -0.00000000000E+00 -0.35173153504E+01  0.35173153504E+01  0.00000000000E+00 0.  1.
          5    1    1    2  501    0 -0.54630451582E+01  0.16387255006E+00  0.22462119545E+01  0.75503102425E+01  0.47000000000E+01 0.  1.
         -5    1    1    2    0  502  0.54630451582E+01 -0.16387255006E+00  0.14147950601E+02  0.15878483014E+02  0.47000000000E+01 0. -1.
<mgrwt>
<rscale>  2 0.72084476E+01</rscale>
<asrwt>0</asrwt>
<pdfrwt beam="1">  1       21 0.30633042E-02 0.72084476E+01</pdfrwt>
<pdfrwt beam="2">  1       21 0.54112545E-03 0.72084476E+01</pdfrwt>
<totfact> 0.17378493E+09</totfact>
</mgrwt>
</event>
<event>
 4    1  0.4084348E+006  0.9217127E+01  0.7546771E-02  0.2122486E+00
         21   -1    0    0  501  502  0.00000000000E+00  0.00000000000E+00  0.52658211196E+01  0.52658211196E+01  0.00000000000E+00 0.  1.
         21   -1    0    0  502  503 -0.00000000000E+00 -0.00000000000E+00 -0.18206522418E+02  0.18206522418E+02  0.00000000000E+00 0. -1.
          5    1    1    2  501    0 -0.50923437741E+01  0.60772913375E+01 -0.25100452307E+01  0.95527881885E+01  0.47000000000E+01 0.  1.
         -5    1    1    2    0  503  0.50923437741E+01 -0.60772913375E+01 -0.10430656067E+02  0.13919555349E+02  0.47000000000E+01 0. -1.
<mgrwt>
<rscale>  2 0.92171273E+01</rscale>
<asrwt>0</asrwt>
<pdfrwt beam="1">  1       21 0.81012633E-03 0.92171273E+01</pdfrwt>
<pdfrwt beam="2">  1       21 0.28010034E-02 0.92171273E+01</pdfrwt>
<totfact> 0.13238878E+09</totfact>
</mgrwt>
</event>
<event>
 4    1  0.4084348E+006  0.8011110E+01  0.7546771E-02  0.2209714E+00
         21   -1    0    0  503  502  0.00000000000E+00  0.00000000000E+00  0.10921479342E+03  0.10921479342E+03  0.00000000000E+00 0. -1.
         21   -1    0    0  501  503 -0.00000000000E+00 -0.00000000000E+00 -0.76346903470E+00  0.76346903470E+00  0.00000000000E+00 0. -1.
          5    1    1    2  501    0  0.41687856440E+01  0.49708255229E+01  0.27835692520E+02  0.28965559863E+02  0.47000000000E+01 0. -1.
         -5    1    1    2    0  502 -0.41687856440E+01 -0.49708255229E+01  0.80615631866E+02  0.81012702592E+02  0.47000000000E+01 0. -1.
<mgrwt>
<rscale>  2 0.80111098E+01</rscale>
<asrwt>0</asrwt>
<pdfrwt beam="1">  1       21 0.16802264E-01 0.80111098E+01</pdfrwt>
<pdfrwt beam="2">  1       21 0.11745686E-03 0.80111098E+01</pdfrwt>
<totfact> 0.11364367E+09</totfact>
</mgrwt>
</event>
<event>
 4    1  0.4084348E+006  0.6352007E+01  0.7546771E-02  0.2371744E+00
         21   -1    0    0  503  502  0.00000000000E+00  0.00000000000E+00  0.56548134334E+00  0.56548134334E+00  0.00000000000E+00 0. -1.
         21   -1    0    0  501  503 -0.00000000000E+00 -0.00000000000E+00 -0.72190164211E+02  0.72190164211E+02  0.00000000000E+00 0.  1.
          5    1    1    2  501    0 -0.17982541265E+01 -0.38761152430E+01 -0.39733108498E+02  0.40237642802E+02  0.47000000000E+01 0.  1.
         -5    1    1    2    0  502  0.17982541265E+01  0.38761152430E+01 -0.31891574369E+02  0.32518002753E+02  0.47000000000E+01 0. -1.
<mgrwt>
<rscale>  2 0.63520066E+01</rscale>
<asrwt>0</asrwt>
<pdfrwt beam="1">  1       21 0.86997113E-04 0.63520066E+01</pdfrwt>
<pdfrwt beam="2">  1       21 0.11106181E-01 0.63520066E+01</pdfrwt>
<totfact> 0.27821458E+09</totfact>
</mgrwt>
</event>
<event>
 4    1  0.4084348E+006  0.7279987E+01  0.7546771E-02  0.2273660E+00
         21   -1    0    0  501  502  0.00000000000E+00  0.00000000000E+00  0.21188469191E+01  0.21188469191E+01  0.00000000000E+00 0. -1.
         21   -1    0    0  502  503 -0.00000000000E+00 -0.00000000000E+00 -0.25015325870E+02  0.25015325870E+02  0.00000000000E+00 0.  1.
          5    1    1    2  501    0  0.45864942114E+01  0.31420178167E+01 -0.11585698941E+02  0.13683078055E+02  0.47000000000E+01 0. -1.
         -5    1    1    2    0  503 -0.45864942114E+01 -0.31420178167E+01 -0.11310780011E+02  0.13451094735E+02  0.47000000000E+01 0.  1.
<mgrwt>
<rscale>  2 0.72799866E+01</rscale>
<asrwt>0</asrwt>
<pdfrwt beam="1">  1       21 0.32597647E-03 0.72799866E+01</pdfrwt>
<pdfrwt beam="2">  1       21 0.38485114E-02 0.72799866E+01</pdfrwt>
<totfact> 0.25380336E+09</totfact>
</mgrwt>
</event>
<event>
 4    1  0.4084348E+006  0.4982610E+01  0.7546771E-02  0.2570248E+00
         21   -1    0    0  501  502  0.00000000000E+00  0.00000000000E+00  0.33105781538E+03  0.33105781538E+03  0.00000000000E+00 0.  1.
         21   -1    0    0  502  503 -0.00000000000E+00 -0.00000000000E+00 -0.91803213995E-01  0.91803213995E-01  0.00000000000E+00 0. -1.
          5    1    1    2  501    0  0.16351683032E+01  0.25026368665E+00  0.23633887019E+03  0.23639138725E+03  0.47000000000E+01 0.  1.
         -5    1    1    2    0  503 -0.16351683032E+01 -0.25026368665E+00  0.94627141979E+02  0.94758231338E+02  0.47000000000E+01 0. -1.
<mgrwt>
<rscale>  2 0.49826105E+01</rscale>
<asrwt>0</asrwt>
<pdfrwt beam="1">  1       21 0.50931016E-01 0.49826105E+01</pdfrwt>
<pdfrwt beam="2">  1       21 0.14123836E-04 0.49826105E+01</pdfrwt>
<totfact> 0.20843244E+09</totfact>
</mgrwt>
</event>
<event>
 4    1  0.4084348E+006  0.7609656E+01  0.7546771E-02  0.2243594E+00
         21   -1    0    0  503  502  0.00000000000E+00  0.00000000000E+00  0.12312115254E+04  0.12312115254E+04  0.00000000000E+00 0. -1.
         21   -1    0    0  501  503 -0.00000000000E+00 -0.00000000000E+00 -0.71005634257E-01  0.71005634257E-01  0.00000000000E+00 0.  1.
          5    1    1    2  501    0  0.40895969445E+01 -0.43694456625E+01  0.25784925440E+03  0.25796151817E+03  0.47000000000E+01 0.  1.
         -5    1    1    2    0  502 -0.40895969445E+01  0.43694456625E+01  0.97329126537E+03  0.97332101287E+03  0.47000000000E+01 0. -1.
<mgrwt>
<rscale>  2 0.76096556E+01</rscale>
<asrwt>0</asrwt>
<pdfrwt beam="1">  1       21 0.18940006E+00 0.76096556E+01</pdfrwt>
<pdfrwt beam="2">  1       21 0.10924930E-04 0.76096556E+01</pdfrwt>
<totfact> 0.27448000E+08</totfact>
</mgrwt>
</event>
<event>
 4    1  0.4084348E+006  0.6157816E+01  0.7546771E-02  0.2395325E+00
         21   -1    0    0  501  502  0.00000000000E+00  0.00000000000E+00  0.13731603608E+01  0.13731603608E+01  0.00000000000E+00 0. -1.
         21   -1    0    0  502  503 -0.00000000000E+00 -0.00000000000E+00 -0.27977522193E+02  0.27977522193E+02  0.00000000000E+00 0. -1.
          5    1    1    2  501    0  0.35981245830E+01 -0.16977021676E+01 -0.11629768696E+02  0.13159415377E+02  0.47000000000E+01 0. -1.
         -5    1    1    2    0  503 -0.35981245830E+01  0.16977021676E+01 -0.14974593137E+02  0.16191267176E+02  0.47000000000E+01 0. -1.
<mgrwt>
<rscale>  2 0.61578156E+01</rscale>
<asrwt>0</asrwt>
<pdfrwt beam="1">  1       21 0.21125546E-03 0.61578156E+01</pdfrwt>
<pdfrwt beam="2">  1       21 0.43042339E-02 0.61578156E+01</pdfrwt>
<totfact> 0.34120935E+09</totfact>
</mgrwt>
</event>
<event>
 4    1  0.4084348E+006  0.7817232E+01  0.7546771E-02  0.2225725E+00
         21   -1    0    0  501  502  0.00000000000E+00  0.00000000000E+00  0.31685599145E+02  0.31685599145E+02  0.00000000000E+00 0.  1.
         21   -1    0    0  502  503 -0.00000000000E+00 -0.00000000000E+00 -0.21397458244E+01  0.21397458244E+01  0.00000000000E+00 0.  1.
          5    1    1    2  501    0  0.15823573582E+01 -0.60427862295E+01  0.20085604847E+02  0.21553204919E+02  0.47000000000E+01 0.  1.
         -5    1    1    2    0  503 -0.15823573582E+01  0.60427862295E+01  0.94602484737E+01  0.12272140050E+02  0.47000000000E+01 0.  1.
<mgrwt>
<rscale>  2 0.78172323E+01</rscale>
<asrwt>0</asrwt>
<pdfrwt beam="1">  1       21 0.48747072E-02 0.78172323E+01</pdfrwt>
<pdfrwt beam="2">  1       21 0.32919169E-03 0.78172323E+01</pdfrwt>
<totfact> 0.18528721E+09</totfact>
</mgrwt>
</event>
<event>
 4    1  0.4084348E+006  0.5980634E+01  0.7546771E-02  0.2417951E+00
         21   -1    0    0  501  502  0.00000000000E+00  0.00000000000E+00  0.21365907140E+02  0.21365907140E+02  0.00000000000E+00 0.  1.
         21   -1    0    0  502  503 -0.00000000000E+00 -0.00000000000E+00 -0.44854441343E+01  0.44854441343E+01  0.00000000000E+00 0.  1.
          5    1    1    2  501    0  0.18054884650E+01  0.32277235482E+01  0.18673396600E+02  0.19607746645E+02  0.47000000000E+01 0.  1.
         -5    1    1    2    0  503 -0.18054884650E+01 -0.32277235482E+01 -0.17929335941E+01  0.62436046298E+01  0.47000000000E+01 0.  1.
<mgrwt>
<rscale>  2 0.59806344E+01</rscale>
<asrwt>0</asrwt>
<pdfrwt beam="1">  1       21 0.32870626E-02 0.59806344E+01</pdfrwt>
<pdfrwt beam="2">  1       21 0.69006834E-03 0.59806344E+01</pdfrwt>
<totfact> 0.96319531E+08</totfact>
</mgrwt>
</event>
<event>
 4    1  0.4084348E+006  0.5256146E+01  0.7546771E-02  0.2523626E+00
         21   -1    0    0  503  502  0.00000000000E+00  0.00000000000E+00  0.35981604185E+03  0.35981604185E+03  0.00000000000E+00 0. -1.
         21   -1    0    0  501  503 -0.00000000000E+00 -0.00000000000E+00 -0.77564069942E-01  0.77564069942E-01  0.00000000000E+00 0.  1.
          5    1    1    2  501    0  0.11551072051E+00  0.23502603238E+01  0.16178957410E+03  0.16187493121E+03  0.47000000000E+01 0. -1.
         -5    1    1    2    0  502 -0.11551072051E+00 -0.23502603238E+01  0.19794890368E+03  0.19801867471E+03  0.47000000000E+01 0. -1.
<mgrwt>
<rscale>  2 0.52561456E+01</rscale>
<asrwt>0</asrwt>
<pdfrwt beam="1">  1       21 0.55354978E-01 0.52561456E+01</pdfrwt>
<pdfrwt beam="2">  1       21 0.11933222E-04 0.52561456E+01</pdfrwt>
<totfact> 0.23484675E+09</totfact>
</mgrwt>
</event>
<event>
 4    1  0.4084348E+006  0.5507252E+01  0.7546771E-02  0.2484337E+00
         21   -1    0    0  501  502  0.00000000000E+00  0.00000000000E+00  0.31990660567E+03  0.31990660567E+03  0.00000000000E+00 0.  1.
         21   -1    0    0  502  503 -0.00000000000E+00 -0.00000000000E+00 -0.10149046838E+00  0.10149046838E+00  0.00000000000E+00 0. -1.
          5    1    1    2  501    0 -0.11727677139E+01  0.26200087104E+01  0.20095832493E+03  0.20103377375E+03  0.47000000000E+01 0.  1.
         -5    1    1    2    0  503  0.11727677139E+01 -0.26200087104E+01  0.11884679026E+03  0.11897432238E+03  0.47000000000E+01 0.  1.
<mgrwt>
<rscale>  2 0.55072525E+01</rscale>
<asrwt>0</asrwt>
<pdfrwt beam="1">  1       21 0.49215594E-01 0.55072525E+01</pdfrwt>
<pdfrwt beam="2">  1       21 0.15614174E-04 0.55072525E+01</pdfrwt>
<totfact> 0.21106288E+09</totfact>
</mgrwt>
</event>
<event>
 4    1  0.4084348E+006  0.7280700E+01  0.7546771E-02  0.2273592E+00
         21   -1    0    0  501  502  0.00000000000E+00  0.00000000000E+00  0.14087482614E+01  0.14087482614E+01  0.00000000000E+00 0. -1.
         21   -1    0    0  502  503 -0.00000000000E+00 -0.00000000000E+00 -0.45797125089E+02  0.45797125089E+02  0.00000000000E+00 0. -1.
          5    1    1    2  501    0  0.55350360371E+01  0.53101216342E+00 -0.12225670636E+02  0.14229392831E+02  0.47000000000E+01 0. -1.
         -5    1    1    2    0  503 -0.55350360371E+01 -0.53101216342E+00 -0.32162706191E+02  0.32976480519E+02  0.47000000000E+01 0. -1.
<mgrwt>
<rscale>  2 0.72807004E+01</rscale>
<asrwt>0</asrwt>
<pdfrwt beam="1">  1       21 0.21673050E-03 0.72807004E+01</pdfrwt>
<pdfrwt beam="2">  1       21 0.70457115E-02 0.72807004E+01</pdfrwt>
<totfact> 0.17975694E+09</totfact>
</mgrwt>
</event>
<event>
 4    1  0.4084348E+006  0.5990390E+01  0.7546771E-02  0.2416676E+00
         21   -1    0    0  501  502  0.00000000000E+00  0.00000000000E+00  0.13258599727E+01  0.13258599727E+01  0.00000000000E+00 0.  1.
         21   -1    0    0  502  503 -0.00000000000E+00 -0.00000000000E+00 -0.27225902974E+02  0.27225902974E+02  0.00000000000E+00 0. -1.
          5    1    1    2  501    0  0.35132898047E+01  0.12048109904E+01 -0.14046530448E+02  0.15270553114E+02  0.47000000000E+01 0. -1.
         -5    1    1    2    0  503 -0.35132898047E+01 -0.12048109904E+01 -0.11853512553E+02  0.13281209833E+02  0.47000000000E+01 0.  1.
<mgrwt>
<rscale>  2 0.59903902E+01</rscale>
<asrwt>0</asrwt>
<pdfrwt beam="1">  1       21 0.20397848E-03 0.59903902E+01</pdfrwt>
<pdfrwt beam="2">  1       21 0.41886001E-02 0.59903902E+01</pdfrwt>
<totfact> 0.36363268E+09</totfact>
</mgrwt>
</event>
<event>
 4    1  0.4084348E+006  0.4879343E+01  0.7546771E-02  0.2589014E+00
         21   -1    0    0  501  502  0.00000000000E+00  0.00000000000E+00  0.29143058699E+03  0.29143058699E+03  0.00000000000E+00 0. -1.
         21   -1    0    0  502  503 -0.00000000000E+00 -0.00000000000E+00 -0.85155140818E-01  0.85155140818E-01  0.00000000000E+00 0. -1.
          5    1    1    2  501    0 -0.10727895710E+01 -0.75306740237E+00  0.17506050189E+03  0.17512848800E+03  0.47000000000E+01 0. -1.
         -5    1    1    2    0  503  0.10727895710E+01  0.75306740237E+00  0.11628492996E+03  0.11638725413E+03  0.47000000000E+01 0. -1.
<mgrwt>
<rscale>  2 0.48793430E+01</rscale>
<asrwt>0</asrwt>
<pdfrwt beam="1">  1       21 0.44834677E-01 0.48793430E+01</pdfrwt>
<pdfrwt beam="2">  1       21 0.13101024E-04 0.48793430E+01</pdfrwt>
<totfact> 0.28283366E+09</totfact>
</mgrwt>
</event>
<event>
 4    1  0.4084348E+006  0.5428295E+01  0.7546771E-02  0.2496357E+00
         21   -1    0    0  501  502  0.00000000000E+00  0.00000000000E+00  0.58197415264E+01  0.58197415264E+01  0.00000000000E+00 0. -1.
         21   -1    0    0  502  503 -0.00000000000E+00 -0.00000000000E+00 -0.54921752639E+01  0.54921752639E+01  0.00000000000E+00 0. -1.
          5    1    1    2  501    0  0.43327252390E+00 -0.26811669936E+01 -0.14169617063E+01  0.56101837764E+01  0.47000000000E+01 0. -1.
         -5    1    1    2    0  503 -0.43327252390E+00  0.26811669936E+01  0.17445279688E+01  0.57017330139E+01  0.47000000000E+01 0. -1.
<mgrwt>
<rscale>  2 0.54282945E+01</rscale>
<asrwt>0</asrwt>
<pdfrwt beam="1">  1       21 0.89534485E-03 0.54282945E+01</pdfrwt>
<pdfrwt beam="2">  1       21 0.84495004E-03 0.54282945E+01</pdfrwt>
<totfact> 0.42563606E+09</totfact>
</mgrwt>
</event>
<event>
 4    1  0.4084348E+006  0.4850634E+01  0.7546771E-02  0.2594353E+00
         21   -1    0    0  503  502  0.00000000000E+00  0.00000000000E+00  0.20368745917E+02  0.20368745917E+02  0.00000000000E+00 0.  1.
         21   -1    0    0  501  503 -0.00000000000E+00 -0.00000000000E+00 -0.29295287572E+01  0.29295287572E+01  0.00000000000E+00 0.  1.
          5    1    1    2  501    0  0.88430038188E+00 -0.81034989275E+00 -0.34647808412E+00  0.48629930266E+01  0.47000000000E+01 0.  1.
         -5    1    1    2    0  502 -0.88430038188E+00  0.81034989275E+00  0.17785695244E+02  0.18435281648E+02  0.47000000000E+01 0.  1.
<mgrwt>
<rscale>  2 0.48506344E+01</rscale>
<asrwt>0</asrwt>
<pdfrwt beam="1">  1       21 0.31336531E-02 0.48506344E+01</pdfrwt>
<pdfrwt beam="2">  1       21 0.45069674E-03 0.48506344E+01</pdfrwt>
<totfact> 0.15399790E+09</totfact>
</mgrwt>
</event>
<event>
 4    1  0.4084348E+006  0.7122885E+01  0.7546771E-02  0.2288781E+00
         21   -1    0    0  503  502  0.00000000000E+00  0.00000000000E+00  0.27114260112E+01  0.27114260112E+01  0.00000000000E+00 0.  1.
         21   -1    0    0  501  503 -0.00000000000E+00 -0.00000000000E+00 -0.25532235876E+02  0.25532235876E+02  0.00000000000E+00 0.  1.
          5    1    1    2  501    0  0.48713282732E+01  0.22171273627E+01 -0.18709258083E+02  0.20019286474E+02  0.47000000000E+01 0.  1.
         -5    1    1    2    0  502 -0.48713282732E+01 -0.22171273627E+01 -0.41115517810E+01  0.82243754131E+01  0.47000000000E+01 0.  1.
<mgrwt>
<rscale>  2 0.71228852E+01</rscale>
<asrwt>0</asrwt>
<pdfrwt beam="1">  1       21 0.41714246E-03 0.71228852E+01</pdfrwt>
<pdfrwt beam="2">  1       21 0.39280364E-02 0.71228852E+01</pdfrwt>
<totfact> 0.17172497E+09</totfact>
</mgrwt>
</event>
<event>
 4    1  0.4084348E+006  0.7038821E+01  0.7546771E-02  0.2297098E+00
         21   -1    0    0  501  502  0.00000000000E+00  0.00000000000E+00  0.92818994395E+02  0.92818994395E+02  0.00000000000E+00 0.  1.
         21   -1    0    0  502  503 -0.00000000000E+00 -0.00000000000E+00 -0.77169693683E+00  0.77169693683E+00  0.00000000000E+00 0. -1.
          5    1    1    2  501    0 -0.44921350895E+01  0.26973560817E+01  0.72006757943E+02  0.72349970262E+02  0.47000000000E+01 0.  1.
         -5    1    1    2    0  503  0.44921350895E+01 -0.26973560817E+01  0.20040539515E+02  0.21240721069E+02  0.47000000000E+01 0. -1.
<mgrwt>
<rscale>  2 0.70388215E+01</rscale>
<asrwt>0</asrwt>
<pdfrwt beam="1">  1       21 0.14279836E-01 0.70388215E+01</pdfrwt>
<pdfrwt beam="2">  1       21 0.11872268E-03 0.70388215E+01</pdfrwt>
<totfact> 0.13316337E+09</totfact>
</mgrwt>
</event>
<event>
 4    1  0.4084348E+006  0.6132431E+01  0.7546771E-02  0.2398500E+00
         21   -1    0    0  501  502  0.00000000000E+00  0.00000000000E+00  0.17277372965E+02  0.17277372965E+02  0.00000000000E+00 0.  1.
         21   -1    0    0  502  503 -0.00000000000E+00 -0.00000000000E+00 -0.44556696414E+01  0.44556696414E+01  0.00000000000E+00 0.  1.
          5    1    1    2  501    0 -0.33412325316E+01 -0.20863555860E+01  0.14182417240E+02  0.15451461848E+02  0.47000000000E+01 0.  1.
         -5    1    1    2    0  503  0.33412325316E+01  0.20863555860E+01 -0.13607139167E+01  0.62815807584E+01  0.47000000000E+01 0.  1.
<mgrwt>
<rscale>  2 0.61324314E+01</rscale>
<asrwt>0</asrwt>
<pdfrwt beam="1">  1       21 0.26580573E-02 0.61324314E+01</pdfrwt>
<pdfrwt beam="2">  1       21 0.68548765E-03 0.61324314E+01</pdfrwt>
<totfact> 0.13516363E+09</totfact>
</mgrwt>
</event>
<event>
 4    1  0.4084348E+006  0.9022083E+01  0.7546771E-02  0.2135325E+00
         21   -1    0    0  503  502  0.00000000000E+00  0.00000000000E+00  0.56518594297E+02  0.56518594297E+02  0.00000000000E+00 0. -1.
         21   -1    0    0  501  503 -0.00000000000E+00 -0.00000000000E+00 -0.18285490514E+01  0.18285490514E+01  0.00000000000E+00 0.  1.
          5    1    1    2  501    0 -0.75985033226E+01  0.12532895517E+01  0.13900408869E+02  0.16571643074E+02  0.47000000000E+01 0.  1.
         -5    1    1    2    0  502  0.75985033226E+01 -0.12532895517E+01  0.40789636377E+02  0.41775500274E+02  0.47000000000E+01 0. -1.
<mgrwt>
<rscale>  2 0.90220833E+01</rscale>
<asrwt>0</asrwt>
<pdfrwt beam="1">  1       21 0.86951670E-02 0.90220833E+01</pdfrwt>
<pdfrwt beam="2">  1       21 0.28131528E-03 0.90220833E+01</pdfrwt>
<totfact> 0.10431859E+09</totfact>
</mgrwt>
</event>
<event>
 4    1  0.4084348E+006  0.8796758E+01  0.7546771E-02  0.2150716E+00
         21   -1    0    0  501  502  0.00000000000E+00  0.00000000000E+00  0.11381113353E+02  0.11381113353E+02  0.00000000000E+00 0.  1.
         21   -1    0    0  502  503 -0.00000000000E+00 -0.00000000000E+00 -0.68029166096E+01  0.68029166096E+01  0.00000000000E+00 0. -1.
          5    1    1    2  501    0 -0.60456919927E+01 -0.43292686514E+01  0.20778266960E+01  0.90388230708E+01  0.47000000000E+01 0. -1.
         -5    1    1    2    0  503  0.60456919927E+01  0.43292686514E+01  0.25003700477E+01  0.91452068922E+01  0.47000000000E+01 0.  1.
<mgrwt>
<rscale>  2 0.87967584E+01</rscale>
<asrwt>0</asrwt>
<pdfrwt beam="1">  1       21 0.17509405E-02 0.87967584E+01</pdfrwt>
<pdfrwt beam="2">  1       21 0.10466026E-02 0.87967584E+01</pdfrwt>
<totfact> 0.17766569E+09</totfact>
</mgrwt>
</event>
<event>
 4    1  0.4084348E+006  0.7076233E+01  0.7546771E-02  0.2293376E+00
         21   -1    0    0  503  502  0.00000000000E+00  0.00000000000E+00  0.14730984109E+00  0.14730984109E+00  0.00000000000E+00 0. -1.
         21   -1    0    0  501  503 -0.00000000000E+00 -0.00000000000E+00 -0.59925452916E+03  0.59925452916E+03  0.00000000000E+00 0.  1.
          5    1    1    2  501    0 -0.47716748435E+00 -0.52683374649E+01 -0.49671205547E+03  0.49676245743E+03  0.47000000000E+01 0.  1.
         -5    1    1    2    0  502  0.47716748435E+00  0.52683374649E+01 -0.10239516385E+03  0.10263938156E+03  0.47000000000E+01 0. -1.
<mgrwt>
<rscale>  2 0.70762326E+01</rscale>
<asrwt>0</asrwt>
<pdfrwt beam="1">  1       21 0.22662916E-04 0.70762326E+01</pdfrwt>
<pdfrwt beam="2">  1       21 0.92193561E-01 0.70762326E+01</pdfrwt>
<totfact> 0.46481763E+08</totfact>
</mgrwt>
</event>
<event>
 4    1  0.4084348E+006  0.6172462E+01  0.7546771E-02  0.2393504E+00
         21   -1    0    0  503  502  0.00000000000E+00  0.00000000000E+00  0.98127565722E+01  0.98127565722E+01  0.00000000000E+00 0. -1.
         21   -1    0    0  501  503 -0.00000000000E+00 -0.00000000000E+00 -0.62891721680E+01  0.62891721680E+01  0.00000000000E+00 0. -1.
          5    1    1    2  501    0 -0.23992125181E+01  0.32020409121E+01  0.67420067310E+01  0.91407845107E+01  0.47000000000E+01 0. -1.
         -5    1    1    2    0  502  0.23992125181E+01 -0.32020409121E+01 -0.32184223268E+01  0.69611442295E+01  0.47000000000E+01 0. -1.
<mgrwt>
<rscale>  2 0.61724620E+01</rscale>
<asrwt>0</asrwt>
<pdfrwt beam="1">  1       21 0.15096549E-02 0.61724620E+01</pdfrwt>
<pdfrwt beam="2">  1       21 0.96756495E-03 0.61724620E+01</pdfrwt>
<totfact> 0.18888462E+09</totfact>
</mgrwt>
</event>
<event>
 4    1  0.4084348E+006  0.9069677E+01  0.7546771E-02  0.2132151E+00
         21   -1    0    0  503  502  0.00000000000E+00  0.00000000000E+00  0.17361743231E+01  0.17361743231E+01  0.00000000000E+00 0.  1.
         21   -1    0    0  501  503 -0.00000000000E+00 -0.00000000000E+00 -0.47454005433E+02  0.47454005433E+02  0.00000000000E+00 0. -1.
          5    1    1    2  501    0 -0.50990621432E+01  0.58453922099E+01 -0.23833569520E+02  0.25500942745E+02  0.47000000000E+01 0. -1.
         -5    1    1    2    0  502  0.50990621432E+01 -0.58453922099E+01 -0.21884261590E+02  0.23689237011E+02  0.47000000000E+01 0.  1.
<mgrwt>
<rscale>  2 0.90696772E+01</rscale>
<asrwt>0</asrwt>
<pdfrwt beam="1">  1       21 0.26710380E-03 0.90696772E+01</pdfrwt>
<pdfrwt beam="2">  1       21 0.73006147E-02 0.90696772E+01</pdfrwt>
<totfact> 0.14776843E+09</totfact>
</mgrwt>
</event>
<event>
 4    1  0.4084348E+006  0.6546092E+01  0.7546771E-02  0.2349342E+00
         21   -1    0    0  501  502  0.00000000000E+00  0.00000000000E+00  0.30036613228E+03  0.30036613228E+03  0.00000000000E+00 0.  1.
         21   -1    0    0  502  503 -0.00000000000E+00 -0.00000000000E+00 -0.78461931520E+00  0.78461931520E+00  0.00000000000E+00 0. -1.
          5    1    1    2  501    0 -0.24955220804E-01 -0.45563905813E+01  0.28599071909E+03  0.28606562660E+03  0.47000000000E+01 0.  1.
         -5    1    1    2    0  503  0.24955220804E-01  0.45563905813E+01  0.13590793873E+02  0.15085124991E+02  0.47000000000E+01 0. -1.
<mgrwt>
<rscale>  2 0.65460918E+01</rscale>
<asrwt>0</asrwt>
<pdfrwt beam="1">  1       21 0.46210082E-01 0.65460918E+01</pdfrwt>
<pdfrwt beam="2">  1       21 0.12071090E-03 0.65460918E+01</pdfrwt>
<totfact> 0.17312608E+08</totfact>
</mgrwt>
</event>
<event>
 4    1  0.4084348E+006  0.5283746E+01  0.7546771E-02  0.2519152E+00
         21   -1    0    0  501  502  0.00000000000E+00  0.00000000000E+00  0.38257378332E+00  0.38257378332E+00  0.00000000000E+00 0. -1.
         21   -1    0    0  502  503 -0.00000000000E+00 -0.00000000000E+00 -0.81538550779E+02  0.81538550779E+02  0.00000000000E+00 0. -1.
          5    1    1    2  501    0 -0.23982305829E+01  0.27651871046E+00 -0.27302989238E+02  0.27809552205E+02  0.47000000000E+01 0. -1.
         -5    1    1    2    0  503  0.23982305829E+01 -0.27651871046E+00 -0.53852987758E+02  0.54111572357E+02  0.47000000000E+01 0. -1.
<mgrwt>
<rscale>  2 0.52837461E+01</rscale>
<asrwt>0</asrwt>
<pdfrwt beam="1">  1       21 0.58857484E-04 0.52837461E+01</pdfrwt>
<pdfrwt beam="2">  1       21 0.12544397E-01 0.52837461E+01</pdfrwt>
<totfact> 0.33062906E+09</totfact>
</mgrwt>
</event>
<event>
 4    1  0.4084348E+006  0.7390737E+01  0.7546771E-02  0.2263316E+00
         21   -1    0    0  503  502  0.00000000000E+00  0.00000000000E+00  0.14131860831E+02  0.14131860831E+02  0.00000000000E+00 0.  1.
         21   -1    0    0  501  503 -0.00000000000E+00 -0.00000000000E+00 -0.55501963328E+01  0.55501963328E+01  0.00000000000E+00 0. -1.
          5    1    1    2  501    0 -0.56835557636E+01  0.47978113535E+00 -0.11314358744E+01  0.74768404553E+01  0.47000000000E+01 0. -1.
         -5    1    1    2    0  502  0.56835557636E+01 -0.47978113535E+00  0.97131003724E+01  0.12205216708E+02  0.47000000000E+01 0.  1.
<mgrwt>
<rscale>  2 0.73907372E+01</rscale>
<asrwt>0</asrwt>
<pdfrwt beam="1">  1       21 0.21741324E-02 0.73907372E+01</pdfrwt>
<pdfrwt beam="2">  1       21 0.85387636E-03 0.73907372E+01</pdfrwt>
<totfact> 0.15349286E+09</totfact>
</mgrwt>
</event>
<event>
 4    1  0.4084348E+006  0.5038845E+01  0.7546771E-02  0.2560309E+00
         21   -1    0    0  501  502  0.00000000000E+00  0.00000000000E+00  0.60212013480E+02  0.60212013480E+02  0.00000000000E+00 0. -1.
         21   -1    0    0  502  503 -0.00000000000E+00 -0.00000000000E+00 -0.72317552713E+00  0.72317552713E+00  0.00000000000E+00 0. -1.
          5    1    1    2  501    0 -0.13283326279E+01  0.12391489410E+01  0.49416923958E+02  0.49673155035E+02  0.47000000000E+01 0. -1.
         -5    1    1    2    0  503  0.13283326279E+01 -0.12391489410E+01  0.10071913995E+02  0.11262033972E+02  0.47000000000E+01 0. -1.
<mgrwt>
<rscale>  2 0.50388449E+01</rscale>
<asrwt>0</asrwt>
<pdfrwt beam="1">  1       21 0.92633827E-02 0.50388449E+01</pdfrwt>
<pdfrwt beam="2">  1       21 0.11125782E-03 0.50388449E+01</pdfrwt>
<totfact> 0.21504994E+09</totfact>
</mgrwt>
</event>
<event>
 4    1  0.4084348E+006  0.5316807E+01  0.7546771E-02  0.2513845E+00
         21   -1    0    0  501  502  0.00000000000E+00  0.00000000000E+00  0.16701189291E+00  0.16701189291E+00  0.00000000000E+00 0.  1.
         21   -1    0    0  502  503 -0.00000000000E+00 -0.00000000000E+00 -0.21957304479E+03  0.21957304479E+03  0.00000000000E+00 0.  1.
          5    1    1    2  501    0 -0.24269550167E+01  0.53696316974E+00 -0.57109786784E+02  0.57356744909E+02  0.47000000000E+01 0.  1.
         -5    1    1    2    0  503  0.24269550167E+01 -0.53696316974E+00 -0.16229624612E+03  0.16238331178E+03  0.47000000000E+01 0.  1.
<mgrwt>
<rscale>  2 0.53168073E+01</rscale>
<asrwt>0</asrwt>
<pdfrwt beam="1">  1       21 0.25694145E-04 0.53168073E+01</pdfrwt>
<pdfrwt beam="2">  1       21 0.33780459E-01 0.53168073E+01</pdfrwt>
<totfact> 0.20333883E+09</totfact>
</mgrwt>
</event>
<event>
 4    1  0.4084348E+006  0.6335945E+01  0.7546771E-02  0.2373648E+00
         21   -1    0    0  503  502  0.00000000000E+00  0.00000000000E+00  0.21560046322E+02  0.21560046322E+02  0.00000000000E+00 0. -1.
         21   -1    0    0  501  503 -0.00000000000E+00 -0.00000000000E+00 -0.20924895890E+01  0.20924895890E+01  0.00000000000E+00 0. -1.
          5    1    1    2  501    0  0.94835912328E-01  0.42479650496E+01  0.58085207171E+01  0.85955287117E+01  0.47000000000E+01 0. -1.
         -5    1    1    2    0  502 -0.94835912328E-01 -0.42479650496E+01  0.13659036016E+02  0.15057007199E+02  0.47000000000E+01 0. -1.
<mgrwt>
<rscale>  2 0.63359451E+01</rscale>
<asrwt>0</asrwt>
<pdfrwt beam="1">  1       21 0.33169300E-02 0.63359451E+01</pdfrwt>
<pdfrwt beam="2">  1       21 0.32192149E-03 0.63359451E+01</pdfrwt>
<totfact> 0.28773544E+09</totfact>
</mgrwt>
</event>
<event>
 4    1  0.4084348E+006  0.6260964E+01  0.7546771E-02  0.2382648E+00
         21   -1    0    0  501  502  0.00000000000E+00  0.00000000000E+00  0.72222807098E+02  0.72222807098E+02  0.00000000000E+00 0.  1.
         21   -1    0    0  502  503 -0.00000000000E+00 -0.00000000000E+00 -0.61129218920E+00  0.61129218920E+00  0.00000000000E+00 0.  1.
          5    1    1    2  501    0  0.39085533574E+01 -0.13538413849E+01  0.47999205662E+02  0.48405820104E+02  0.47000000000E+01 0.  1.
         -5    1    1    2    0  503 -0.39085533574E+01  0.13538413849E+01  0.23612309247E+02  0.24428279183E+02  0.47000000000E+01 0.  1.
<mgrwt>
<rscale>  2 0.62609644E+01</rscale>
<asrwt>0</asrwt>
<pdfrwt beam="1">  1       21 0.11111194E-01 0.62609644E+01</pdfrwt>
<pdfrwt beam="2">  1       21 0.94045009E-04 0.62609644E+01</pdfrwt>
<totfact> 0.24739019E+09</totfact>
</mgrwt>
</event>
<event>
 4    1  0.4084348E+006  0.5818480E+01  0.7546771E-02  0.2439665E+00
         21   -1    0    0  503  502  0.00000000000E+00  0.00000000000E+00  0.49195386014E+01  0.49195386014E+01  0.00000000000E+00 0.  1.
         21   -1    0    0  501  503 -0.00000000000E+00 -0.00000000000E+00 -0.10512016387E+02  0.10512016387E+02  0.00000000000E+00 0. -1.
          5    1    1    2  501    0  0.34180541101E+01  0.28568693359E+00 -0.73305348681E+01  0.93590305254E+01  0.47000000000E+01 0. -1.
         -5    1    1    2    0  502 -0.34180541101E+01 -0.28568693359E+00  0.17380570830E+01  0.60725244625E+01  0.47000000000E+01 0.  1.
<mgrwt>
<rscale>  2 0.58184801E+01</rscale>
<asrwt>0</asrwt>
<pdfrwt beam="1">  1       21 0.75685210E-03 0.58184801E+01</pdfrwt>
<pdfrwt beam="2">  1       21 0.16172333E-02 0.58184801E+01</pdfrwt>
<totfact> 0.22976180E+09</totfact>
</mgrwt>
</event>
<event>
 4    1  0.4084348E+006  0.5888968E+01  0.7546771E-02  0.2430102E+00
         21   -1    0    0  503  502  0.00000000000E+00  0.00000000000E+00  0.36129502309E+01  0.36129502309E+01  0.00000000000E+00 0. -1.
         21   -1    0    0  501  503 -0.00000000000E+00 -0.00000000000E+00 -0.28025261868E+02  0.28025261868E+02  0.00000000000E+00 0. -1.
          5    1    1    2  501    0 -0.25126136780E+01 -0.25053380765E+01 -0.25033247701E+02  0.25716598470E+02  0.47000000000E+01 0. -1.
         -5    1    1    2    0  502  0.25126136780E+01  0.25053380765E+01  0.62093606476E+00  0.59216136288E+01  0.47000000000E+01 0. -1.
<mgrwt>
<rscale>  2 0.58889682E+01</rscale>
<asrwt>0</asrwt>
<pdfrwt beam="1">  1       21 0.55583849E-03 0.58889682E+01</pdfrwt>
<pdfrwt beam="2">  1       21 0.43115788E-02 0.58889682E+01</pdfrwt>
<totfact> 0.86442245E+08</totfact>
</mgrwt>
</event>
<event>
 4    1  0.4084348E+006  0.6100229E+01  0.7546771E-02  0.2402558E+00
         21   -1    0    0  503  502  0.00000000000E+00  0.00000000000E+00  0.19110117450E+03  0.19110117450E+03  0.00000000000E+00 0. -1.
         21   -1    0    0  501  503 -0.00000000000E+00 -0.00000000000E+00 -0.19959302083E+00  0.19959302083E+00  0.00000000000E+00 0. -1.
          5    1    1    2  501    0 -0.33936371151E+01 -0.18989516231E+01  0.11038378519E+03  0.11055221763E+03  0.47000000000E+01 0. -1.
         -5    1    1    2    0  502  0.33936371151E+01  0.18989516231E+01  0.80517796293E+02  0.80748549894E+02  0.47000000000E+01 0. -1.
<mgrwt>
<rscale>  2 0.61002287E+01</rscale>
<asrwt>0</asrwt>
<pdfrwt beam="1">  1       21 0.29400034E-01 0.61002287E+01</pdfrwt>
<pdfrwt beam="2">  1       21 0.30706771E-04 0.61002287E+01</pdfrwt>
<totfact> 0.22693552E+09</totfact>
</mgrwt>
</event>
<event>
 4    1  0.4084348E+006  0.5819610E+01  0.7546771E-02  0.2439510E+00
         21   -1    0    0  501  502  0.00000000000E+00  0.00000000000E+00  0.64543754829E+01  0.64543754829E+01  0.00000000000E+00 0. -1.
         21   -1    0    0  502  503 -0.00000000000E+00 -0.00000000000E+00 -0.67406583689E+01  0.67406583689E+01  0.00000000000E+00 0. -1.
          5    1    1    2  501    0  0.32900871498E+01 -0.97631177476E+00  0.29622444276E+01  0.65301416664E+01  0.47000000000E+01 0. -1.
         -5    1    1    2    0  503 -0.32900871498E+01  0.97631177476E+00 -0.32485273136E+01  0.66648921853E+01  0.47000000000E+01 0. -1.
<mgrwt>
<rscale>  2 0.58196098E+01</rscale>
<asrwt>0</asrwt>
<pdfrwt beam="1">  1       21 0.99298084E-03 0.58196098E+01</pdfrwt>
<pdfrwt beam="2">  1       21 0.10370244E-02 0.58196098E+01</pdfrwt>
<totfact> 0.29464727E+09</totfact>
</mgrwt>
</event>
<event>
 4    1  0.4084348E+006  0.6726522E+01  0.7546771E-02  0.2329480E+00
         21   -1    0    0  503  502  0.00000000000E+00  0.00000000000E+00  0.45715231593E+01  0.45715231593E+01  0.00000000000E+00 0.  1.
         21   -1    0    0  501  503 -0.00000000000E+00 -0.00000000000E+00 -0.11862018173E+02  0.11862018173E+02  0.00000000000E+00 0. -1.
          5    1    1    2  501    0  0.42511486160E+01 -0.22547365714E+01 -0.69892236478E+01  0.97002757054E+01  0.47000000000E+01 0. -1.
         -5    1    1    2    0  502 -0.42511486160E+01  0.22547365714E+01 -0.30127136562E+00  0.67332656265E+01  0.47000000000E+01 0.  1.
<mgrwt>
<rscale>  2 0.67265222E+01</rscale>
<asrwt>0</asrwt>
<pdfrwt beam="1">  1       21 0.70331126E-03 0.67265222E+01</pdfrwt>
<pdfrwt beam="2">  1       21 0.18249259E-02 0.67265222E+01</pdfrwt>
<totfact> 0.24229773E+09</totfact>
</mgrwt>
</event>
<event>
 4    1  0.4084348E+006  0.5956493E+01  0.7546771E-02  0.2421121E+00
         21   -1    0    0  503  502  0.00000000000E+00  0.00000000000E+00  0.94986172447E+00  0.94986172447E+00  0.00000000000E+00 0. -1.
         21   -1    0    0  501  503 -0.00000000000E+00 -0.00000000000E+00 -0.37440085769E+02  0.37440085769E+02  0.00000000000E+00 0.  1.
          5    1    1    2  501    0 -0.23307134519E+00  0.36517779356E+01 -0.19172987418E+02  0.20076933304E+02  0.47000000000E+01 0.  1.
         -5    1    1    2    0  502  0.23307134519E+00 -0.36517779356E+01 -0.17317236626E+02  0.18313014190E+02  0.47000000000E+01 0. -1.
<mgrwt>
<rscale>  2 0.59564926E+01</rscale>
<asrwt>0</asrwt>
<pdfrwt beam="1">  1       21 0.14613257E-03 0.59564926E+01</pdfrwt>
<pdfrwt beam="2">  1       21 0.57600132E-02 0.59564926E+01</pdfrwt>
<totfact> 0.35485645E+09</totfact>
</mgrwt>
</event>
<event>
 4    1  0.4084348E+006  0.7000304E+01  0.7546771E-02  0.2300963E+00
         21   -1    0    0  503  502  0.00000000000E+00  0.00000000000E+00  0.18688620138E+00  0.18688620138E+00  0.00000000000E+00 0.  1.
         21   -1    0    0  501  503 -0.00000000000E+00 -0.00000000000E+00 -0.26243818678E+03  0.26243818678E+03  0.00000000000E+00 0.  1.
          5    1    1    2  501    0 -0.39765257006E+01  0.33318917665E+01 -0.13495987491E+03  0.13514130418E+03  0.47000000000E+01 0.  1.
         -5    1    1    2    0  502  0.39765257006E+01 -0.33318917665E+01 -0.12729142568E+03  0.12748376881E+03  0.47000000000E+01 0.  1.
<mgrwt>
<rscale>  2 0.70003042E+01</rscale>
<asrwt>0</asrwt>
<pdfrwt beam="1">  1       21 0.28751821E-04 0.70003042E+01</pdfrwt>
<pdfrwt beam="2">  1       21 0.40374969E-01 0.70003042E+01</pdfrwt>
<totfact> 0.15877780E+09</totfact>
</mgrwt>
</event>
<event>
 4    1  0.4084348E+006  0.5620692E+01  0.7546771E-02  0.2467571E+00
         21   -1    0    0  501  502  0.00000000000E+00  0.00000000000E+00  0.42436409188E+01  0.42436409188E+01  0.00000000000E+00 0.  1.
         21   -1    0    0  502  503 -0.00000000000E+00 -0.00000000000E+00 -0.74618951823E+01  0.74618951823E+01  0.00000000000E+00 0.  1.
          5    1    1    2  501    0 -0.25642799612E+01 -0.17107429727E+01 -0.13272851786E+01  0.57752800091E+01  0.47000000000E+01 0.  1.
         -5    1    1    2    0  503  0.25642799612E+01  0.17107429727E+01 -0.18909690849E+01  0.59302560921E+01  0.47000000000E+01 0.  1.
<mgrwt>
<rscale>  2 0.56206915E+01</rscale>
<asrwt>0</asrwt>
<pdfrwt beam="1">  1       21 0.65286784E-03 0.56206915E+01</pdfrwt>
<pdfrwt beam="2">  1       21 0.11479839E-02 0.56206915E+01</pdfrwt>
<totfact> 0.44469272E+09</totfact>
</mgrwt>
</event>
<event>
 4    1  0.4084348E+006  0.8722649E+01  0.7546771E-02  0.2155917E+00
         21   -1    0    0  503  502  0.00000000000E+00  0.00000000000E+00  0.61399617343E+01  0.61399617343E+01  0.00000000000E+00 0.  1.
         21   -1    0    0  501  503 -0.00000000000E+00 -0.00000000000E+00 -0.16550469683E+02  0.16550469683E+02  0.00000000000E+00 0. -1.
          5    1    1    2  501    0 -0.73436057836E+01 -0.25702455561E+00 -0.10892338186E+02  0.13954484537E+02  0.47000000000E+01 0. -1.
         -5    1    1    2    0  502  0.73436057836E+01  0.25702455561E+00  0.48183023718E+00  0.87359468808E+01  0.47000000000E+01 0.  1.
<mgrwt>
<rscale>  2 0.87226491E+01</rscale>
<asrwt>0</asrwt>
<pdfrwt beam="1">  1       21 0.94460951E-03 0.87226491E+01</pdfrwt>
<pdfrwt beam="2">  1       21 0.25462261E-02 0.87226491E+01</pdfrwt>
<totfact> 0.11803893E+09</totfact>
</mgrwt>
</event>
<event>
 4    1  0.4084348E+006  0.5332878E+01  0.7546771E-02  0.2511286E+00
         21   -1    0    0  503  502  0.00000000000E+00  0.00000000000E+00  0.46567887599E+01  0.46567887599E+01  0.00000000000E+00 0.  1.
         21   -1    0    0  501  503 -0.00000000000E+00 -0.00000000000E+00 -0.68001309282E+01  0.68001309282E+01  0.00000000000E+00 0. -1.
          5    1    1    2  501    0 -0.22753719402E+01  0.10827156386E+01 -0.29003932960E+01  0.60705742638E+01  0.47000000000E+01 0. -1.
         -5    1    1    2    0  502  0.22753719402E+01 -0.10827156386E+01  0.75705112770E+00  0.53863454243E+01  0.47000000000E+01 0. -1.
<mgrwt>
<rscale>  2 0.53328783E+01</rscale>
<asrwt>0</asrwt>
<pdfrwt beam="1">  1       21 0.71642905E-03 0.53328783E+01</pdfrwt>
<pdfrwt beam="2">  1       21 0.10461740E-02 0.53328783E+01</pdfrwt>
<totfact> 0.42307971E+09</totfact>
</mgrwt>
</event>
<event>
 4    1  0.4084348E+006  0.6749257E+01  0.7546771E-02  0.2327040E+00
         21   -1    0    0  503  502  0.00000000000E+00  0.00000000000E+00  0.76832116934E+01  0.76832116934E+01  0.00000000000E+00 0.  1.
         21   -1    0    0  501  503 -0.00000000000E+00 -0.00000000000E+00 -0.72804071721E+01  0.72804071721E+01  0.00000000000E+00 0. -1.
          5    1    1    2  501    0  0.46193295264E+01 -0.14574837202E+01 -0.30222564946E+01  0.73950320072E+01  0.47000000000E+01 0. -1.
         -5    1    1    2    0  502 -0.46193295264E+01  0.14574837202E+01  0.34250610160E+01  0.75685868583E+01  0.47000000000E+01 0.  1.
<mgrwt>
<rscale>  2 0.67492566E+01</rscale>
<asrwt>0</asrwt>
<pdfrwt beam="1">  1       21 0.11820326E-02 0.67492566E+01</pdfrwt>
<pdfrwt beam="2">  1       21 0.11200626E-02 0.67492566E+01</pdfrwt>
<totfact> 0.23429992E+09</totfact>
</mgrwt>
</event>
<event>
 4    1  0.4084348E+006  0.4744067E+01  0.7546771E-02  0.2614662E+00
         21   -1    0    0  501  502  0.00000000000E+00  0.00000000000E+00  0.37605456194E+00  0.37605456194E+00  0.00000000000E+00 0.  1.
         21   -1    0    0  502  503 -0.00000000000E+00 -0.00000000000E+00 -0.61617411837E+02  0.61617411837E+02  0.00000000000E+00 0.  1.
          5    1    1    2  501    0  0.52914653951E+00 -0.36902333612E+00 -0.35873090833E+02  0.36185422758E+02  0.47000000000E+01 0.  1.
         -5    1    1    2    0  503 -0.52914653951E+00  0.36902333612E+00 -0.25368266442E+02  0.25808043641E+02  0.47000000000E+01 0.  1.
<mgrwt>
<rscale>  2 0.47440673E+01</rscale>
<asrwt>0</asrwt>
<pdfrwt beam="1">  1       21 0.57854638E-04 0.47440673E+01</pdfrwt>
<pdfrwt beam="2">  1       21 0.94795871E-02 0.47440673E+01</pdfrwt>
<totfact> 0.46473528E+09</totfact>
</mgrwt>
</event>
<event>
 4    1  0.4084348E+006  0.8409853E+01  0.7546771E-02  0.2178667E+00
         21   -1    0    0  501  502  0.00000000000E+00  0.00000000000E+00  0.62135461930E+02  0.62135461930E+02  0.00000000000E+00 0. -1.
         21   -1    0    0  502  503 -0.00000000000E+00 -0.00000000000E+00 -0.14672418987E+01  0.14672418987E+01  0.00000000000E+00 0.  1.
          5    1    1    2  501    0 -0.48460560193E+01  0.50151142154E+01  0.45392826680E+02  0.46165293712E+02  0.47000000000E+01 0. -1.
         -5    1    1    2    0  503  0.48460560193E+01 -0.50151142154E+01  0.15275393351E+02  0.17437410116E+02  0.47000000000E+01 0.  1.
<mgrwt>
<rscale>  2 0.84098531E+01</rscale>
<asrwt>0</asrwt>
<pdfrwt beam="1">  1       21 0.95592998E-02 0.84098531E+01</pdfrwt>
<pdfrwt beam="2">  1       21 0.22572957E-03 0.84098531E+01</pdfrwt>
<totfact> 0.11702969E+09</totfact>
</mgrwt>
</event>
<event>
 4    1  0.4084348E+006  0.1011458E+02  0.7546771E-02  0.2068525E+00
         21   -1    0    0  503  502  0.00000000000E+00  0.00000000000E+00  0.57733070682E+01  0.57733070682E+01  0.00000000000E+00 0. -1.
         21   -1    0    0  501  503 -0.00000000000E+00 -0.00000000000E+00 -0.17883173218E+02  0.17883173218E+02  0.00000000000E+00 0. -1.
          5    1    1    2  501    0  0.89124942084E+01  0.88438017026E+00 -0.71837790142E+01  0.12406101814E+02  0.47000000000E+01 0. -1.
         -5    1    1    2    0  502 -0.89124942084E+01 -0.88438017026E+00 -0.49260871359E+01  0.11250378472E+02  0.47000000000E+01 0. -1.
<mgrwt>
<rscale>  2 0.10114578E+02</rscale>
<asrwt>0</asrwt>
<pdfrwt beam="1">  1       21 0.88820108E-03 0.10114578E+02</pdfrwt>
<pdfrwt beam="2">  1       21 0.27512574E-02 0.10114578E+02</pdfrwt>
<totfact> 0.12600499E+09</totfact>
</mgrwt>
</event>
<event>
 4    1  0.4084348E+006  0.5792398E+01  0.7546771E-02  0.2443253E+00
         21   -1    0    0  501  502  0.00000000000E+00  0.00000000000E+00  0.11304474892E+03  0.11304474892E+03  0.00000000000E+00 0. -1.
         21   -1    0    0  502  503 -0.00000000000E+00 -0.00000000000E+00 -0.33274818417E+00  0.33274818417E+00  0.00000000000E+00 0. -1.
          5    1    1    2  501    0  0.27850408774E+00 -0.33740638149E+01  0.74988338891E+02  0.75211720103E+02  0.47000000000E+01 0. -1.
         -5    1    1    2    0  503 -0.27850408774E+00  0.33740638149E+01  0.37723661846E+02  0.38165777003E+02  0.47000000000E+01 0. -1.
<mgrwt>
<rscale>  2 0.57923977E+01</rscale>
<asrwt>0</asrwt>
<pdfrwt beam="1">  1       21 0.17391469E-01 0.57923977E+01</pdfrwt>
<pdfrwt beam="2">  1       21 0.51192118E-04 0.57923977E+01</pdfrwt>
<totfact> 0.25918420E+09</totfact>
</mgrwt>
</event>
<event>
 4    1  0.4084348E+006  0.4728758E+01  0.7546771E-02  0.2617645E+00
         21   -1    0    0  503  502  0.00000000000E+00  0.00000000000E+00  0.12219268329E+03  0.12219268329E+03  0.00000000000E+00 0. -1.
         21   -1    0    0  501  503 -0.00000000000E+00 -0.00000000000E+00 -0.53574614950E+00  0.53574614950E+00  0.00000000000E+00 0. -1.
          5    1    1    2  501    0  0.80787626578E-02  0.52065723198E+00  0.11035576011E+02  0.12006043775E+02  0.47000000000E+01 0. -1.
         -5    1    1    2    0  502 -0.80787626578E-02 -0.52065723198E+00  0.11062136112E+03  0.11072238566E+03  0.47000000000E+01 0. -1.
<mgrwt>
<rscale>  2 0.47287577E+01</rscale>
<asrwt>0</asrwt>
<pdfrwt beam="1">  1       21 0.18798852E-01 0.47287577E+01</pdfrwt>
<pdfrwt beam="2">  1       21 0.82422582E-04 0.47287577E+01</pdfrwt>
<totfact> 0.10144939E+09</totfact>
</mgrwt>
</event>
<event>
 4    1  0.4084348E+006  0.6014141E+01  0.7546771E-02  0.2413587E+00
         21   -1    0    0  503  502  0.00000000000E+00  0.00000000000E+00  0.20634692559E+01  0.20634692559E+01  0.00000000000E+00 0. -1.
         21   -1    0    0  501  503 -0.00000000000E+00 -0.00000000000E+00 -0.22183760685E+02  0.22183760685E+02  0.00000000000E+00 0. -1.
          5    1    1    2  501    0 -0.34517317694E+01  0.14715453652E+01 -0.15613789589E+02  0.16732014920E+02  0.47000000000E+01 0. -1.
         -5    1    1    2    0  502  0.34517317694E+01 -0.14715453652E+01 -0.45065018401E+01  0.75152150205E+01  0.47000000000E+01 0. -1.
<mgrwt>
<rscale>  2 0.60141415E+01</rscale>
<asrwt>0</asrwt>
<pdfrwt beam="1">  1       21 0.31745681E-03 0.60141415E+01</pdfrwt>
<pdfrwt beam="2">  1       21 0.34128862E-02 0.60141415E+01</pdfrwt>
<totfact> 0.26896516E+09</totfact>
</mgrwt>
</event>
<event>
 4    1  0.4084348E+006  0.5001596E+01  0.7546771E-02  0.2566871E+00
         21   -1    0    0  501  502  0.00000000000E+00  0.00000000000E+00  0.78478909303E+00  0.78478909303E+00  0.00000000000E+00 0. -1.
         21   -1    0    0  502  503 -0.00000000000E+00 -0.00000000000E+00 -0.52881359271E+02  0.52881359271E+02  0.00000000000E+00 0.  1.
          5    1    1    2  501    0 -0.16589022500E+01 -0.41714220095E+00 -0.91367190591E+01  0.10416122093E+02  0.47000000000E+01 0. -1.
         -5    1    1    2    0  503  0.16589022500E+01  0.41714220095E+00 -0.42959851119E+02  0.43250026271E+02  0.47000000000E+01 0.  1.
<mgrwt>
<rscale>  2 0.50015962E+01</rscale>
<asrwt>0</asrwt>
<pdfrwt beam="1">  1       21 0.12073677E-03 0.50015962E+01</pdfrwt>
<pdfrwt beam="2">  1       21 0.81355945E-02 0.50015962E+01</pdfrwt>
<totfact> 0.23265936E+09</totfact>
</mgrwt>
</event>
<event>
 4    1  0.4084348E+006  0.7267742E+01  0.7546771E-02  0.2274819E+00
         21   -1    0    0  501  502  0.00000000000E+00  0.00000000000E+00  0.89732269120E+02  0.89732269120E+02  0.00000000000E+00 0.  1.
         21   -1    0    0  502  503 -0.00000000000E+00 -0.00000000000E+00 -0.68848848717E+00  0.68848848717E+00  0.00000000000E+00 0.  1.
          5    1    1    2  501    0 -0.38040076971E+01 -0.40323197681E+01  0.61738940551E+02  0.62165238338E+02  0.47000000000E+01 0.  1.
         -5    1    1    2    0  503  0.38040076971E+01  0.40323197681E+01  0.27304840082E+02  0.28255519269E+02  0.47000000000E+01 0.  1.
<mgrwt>
<rscale>  2 0.72677422E+01</rscale>
<asrwt>0</asrwt>
<pdfrwt beam="1">  1       21 0.13804955E-01 0.72677422E+01</pdfrwt>
<pdfrwt beam="2">  1       21 0.10592138E-03 0.72677422E+01</pdfrwt>
<totfact> 0.16789867E+09</totfact>
</mgrwt>
</event>
<event>
 4    1  0.4084348E+006  0.9961189E+01  0.7546771E-02  0.2077203E+00
         21   -1    0    0  501  502  0.00000000000E+00  0.00000000000E+00  0.18981214560E+02  0.18981214560E+02  0.00000000000E+00 0.  1.
         21   -1    0    0  502  503 -0.00000000000E+00 -0.00000000000E+00 -0.74171474198E+01  0.74171474198E+01  0.00000000000E+00 0. -1.
          5    1    1    2  501    0 -0.87692066071E+01 -0.48610389916E+00  0.12953541627E+02  0.16340731997E+02  0.47000000000E+01 0.  1.
         -5    1    1    2    0  503  0.87692066071E+01  0.48610389916E+00 -0.13894744869E+01  0.10057629983E+02  0.47000000000E+01 0. -1.
<mgrwt>
<rscale>  2 0.99611888E+01</rscale>
<asrwt>0</asrwt>
<pdfrwt beam="1">  1       21 0.29201868E-02 0.99611888E+01</pdfrwt>
<pdfrwt beam="2">  1       21 0.11410996E-02 0.99611888E+01</pdfrwt>
<totfact> 0.79407185E+08</totfact>
</mgrwt>
</event>
<event>
 4    1  0.4084348E+006  0.5605722E+01  0.7546771E-02  0.2469750E+00
         21   -1    0    0  503  502  0.00000000000E+00  0.00000000000E+00  0.29919571276E+02  0.29919571276E+02  0.00000000000E+00 0.  1.
         21   -1    0    0  501  503 -0.00000000000E+00 -0.00000000000E+00 -0.14196792968E+01  0.14196792968E+01  0.00000000000E+00 0. -1.
          5    1    1    2  501    0  0.22647369642E+01 -0.20506309062E+01  0.62569844958E+01  0.84008318405E+01  0.47000000000E+01 0. -1.
         -5    1    1    2    0  502 -0.22647369642E+01  0.20506309062E+01  0.22242907483E+02  0.22938418733E+02  0.47000000000E+01 0.  1.
<mgrwt>
<rscale>  2 0.56057221E+01</rscale>
<asrwt>0</asrwt>
<pdfrwt beam="1">  1       21 0.46030105E-02 0.56057221E+01</pdfrwt>
<pdfrwt beam="2">  1       21 0.21841222E-03 0.56057221E+01</pdfrwt>
<totfact> 0.27178240E+09</totfact>
</mgrwt>
</event>
<event>
 4    1  0.4084348E+006  0.7395912E+01  0.7546771E-02  0.2262839E+00
         21   -1    0    0  503  502  0.00000000000E+00  0.00000000000E+00  0.70569015894E+01  0.70569015894E+01  0.00000000000E+00 0.  1.
         21   -1    0    0  501  503 -0.00000000000E+00 -0.00000000000E+00 -0.80810827435E+01  0.80810827435E+01  0.00000000000E+00 0.  1.
          5    1    1    2  501    0  0.40997766268E+01  0.39750898560E+01 -0.20413396050E+01  0.76724556131E+01  0.47000000000E+01 0.  1.
         -5    1    1    2    0  502 -0.40997766268E+01 -0.39750898560E+01  0.10171584509E+01  0.74655287199E+01  0.47000000000E+01 0.  1.
<mgrwt>
<rscale>  2 0.73959116E+01</rscale>
<asrwt>0</asrwt>
<pdfrwt beam="1">  1       21 0.10856772E-02 0.73959116E+01</pdfrwt>
<pdfrwt beam="2">  1       21 0.12432435E-02 0.73959116E+01</pdfrwt>
<totfact> 0.24475024E+09</totfact>
</mgrwt>
</event>
<event>
 4    1  0.4084348E+006  0.3012519E+02  0.7546771E-02  0.1596709E+00
         21   -1    0    0  501  502  0.00000000000E+00  0.00000000000E+00  0.67995954390E+03  0.67995954390E+03  0.00000000000E+00 0.  1.
         21   -1    0    0  502  503 -0.00000000000E+00 -0.00000000000E+00 -0.13388211043E+01  0.13388211043E+01  0.00000000000E+00 0. -1.
          5    1    1    2  501    0  0.18130021061E+02 -0.23595330708E+02  0.35825950913E+03  0.35952385620E+03  0.47000000000E+01 0. -1.
         -5    1    1    2    0  503 -0.18130021061E+02  0.23595330708E+02  0.32036121367E+03  0.32177450880E+03  0.47000000000E+01 0.  1.
<mgrwt>
<rscale>  2 0.30125194E+02</rscale>
<asrwt>0</asrwt>
<pdfrwt beam="1">  1       21 0.10460888E+00 0.30125194E+02</pdfrwt>
<pdfrwt beam="2">  1       21 0.20597302E-03 0.30125194E+02</pdfrwt>
<totfact> 0.26808712E+07</totfact>
</mgrwt>
</event>
<event>
 4    1  0.4084348E+006  0.5154829E+01  0.7546771E-02  0.2540399E+00
         21   -1    0    0  501  502  0.00000000000E+00  0.00000000000E+00  0.25672585325E+02  0.25672585325E+02  0.00000000000E+00 0. -1.
         21   -1    0    0  502  503 -0.00000000000E+00 -0.00000000000E+00 -0.88287050243E+01  0.88287050243E+01  0.00000000000E+00 0. -1.
          5    1    1    2  501    0  0.10234965611E+01 -0.18532987456E+01  0.24629871508E+02  0.25163521851E+02  0.47000000000E+01 0. -1.
         -5    1    1    2    0  503 -0.10234965611E+01  0.18532987456E+01 -0.77859912071E+01  0.93377684983E+01  0.47000000000E+01 0. -1.
<mgrwt>
<rscale>  2 0.51548289E+01</rscale>
<asrwt>0</asrwt>
<pdfrwt beam="1">  1       21 0.39496285E-02 0.51548289E+01</pdfrwt>
<pdfrwt beam="2">  1       21 0.13582623E-02 0.51548289E+01</pdfrwt>
<totfact> 0.25244414E+08</totfact>
</mgrwt>
</event>
<event>
 4    1  0.4084348E+006  0.6529005E+01  0.7546771E-02  0.2351270E+00
         21   -1    0    0  501  502  0.00000000000E+00  0.00000000000E+00  0.10978931386E+02  0.10978931386E+02  0.00000000000E+00 0. -1.
         21   -1    0    0  502  503 -0.00000000000E+00 -0.00000000000E+00 -0.38903835019E+01  0.38903835019E+01  0.00000000000E+00 0. -1.
          5    1    1    2  501    0 -0.45308900035E+01  0.94556671165E-01  0.38746609822E+01  0.75921606223E+01  0.47000000000E+01 0. -1.
         -5    1    1    2    0  503  0.45308900035E+01 -0.94556671165E-01  0.32138869020E+01  0.72771542657E+01  0.47000000000E+01 0. -1.
<mgrwt>
<rscale>  2 0.65290049E+01</rscale>
<asrwt>0</asrwt>
<pdfrwt beam="1">  1       21 0.16890664E-02 0.65290049E+01</pdfrwt>
<pdfrwt beam="2">  1       21 0.59852054E-03 0.65290049E+01</pdfrwt>
<totfact> 0.33162380E+09</totfact>
</mgrwt>
</event>
<event>
 4    1  0.4084348E+006  0.4919056E+01  0.7546771E-02  0.2581717E+00
         21   -1    0    0  501  502  0.00000000000E+00  0.00000000000E+00  0.10709622751E+02  0.10709622751E+02  0.00000000000E+00 0. -1.
         21   -1    0    0  502  503 -0.00000000000E+00 -0.00000000000E+00 -0.41430153811E+01  0.41430153811E+01  0.00000000000E+00 0. -1.
          5    1    1    2  501    0 -0.62714274824E+00  0.13091230406E+01  0.82907201301E+01  0.96401842015E+01  0.47000000000E+01 0. -1.
         -5    1    1    2    0  503  0.62714274824E+00 -0.13091230406E+01 -0.17241127607E+01  0.52124539301E+01  0.47000000000E+01 0. -1.
<mgrwt>
<rscale>  2 0.49190559E+01</rscale>
<asrwt>0</asrwt>
<pdfrwt beam="1">  1       21 0.16476343E-02 0.49190559E+01</pdfrwt>
<pdfrwt beam="2">  1       21 0.63738699E-03 0.49190559E+01</pdfrwt>
<totfact> 0.24190676E+09</totfact>
</mgrwt>
</event>
<event>
 4    1  0.4084348E+006  0.1097555E+02  0.7546771E-02  0.2023379E+00
         21   -1    0    0  503  502  0.00000000000E+00  0.00000000000E+00  0.12754887009E+01  0.12754887009E+01  0.00000000000E+00 0. -1.
         21   -1    0    0  501  503 -0.00000000000E+00 -0.00000000000E+00 -0.19200934163E+03  0.19200934163E+03  0.00000000000E+00 0.  1.
          5    1    1    2  501    0  0.85078293089E+01 -0.50979890058E+01 -0.16425653047E+03  0.16462281267E+03  0.47000000000E+01 0.  1.
         -5    1    1    2    0  502 -0.85078293089E+01  0.50979890058E+01 -0.26477322466E+02  0.28662017661E+02  0.47000000000E+01 0. -1.
<mgrwt>
<rscale>  2 0.10975548E+02</rscale>
<asrwt>0</asrwt>
<pdfrwt beam="1">  1       21 0.19622898E-03 0.10975548E+02</pdfrwt>
<pdfrwt beam="2">  1       21 0.29539906E-01 0.10975548E+02</pdfrwt>
<totfact> 0.25617034E+08</totfact>
</mgrwt>
</event>
<event>
 4    1  0.4084348E+006  0.6430522E+01  0.7546771E-02  0.2362546E+00
         21   -1    0    0  501  502  0.00000000000E+00  0.00000000000E+00  0.38471675668E+01  0.38471675668E+01  0.00000000000E+00 0. -1.
         21   -1    0    0  502  503 -0.00000000000E+00 -0.00000000000E+00 -0.16097689842E+02  0.16097689842E+02  0.00000000000E+00 0.  1.
          5    1    1    2  501    0  0.42130431763E+01 -0.12295848956E+01 -0.37669313925E+00  0.64415455864E+01  0.47000000000E+01 0. -1.
         -5    1    1    2    0  503 -0.42130431763E+01  0.12295848956E+01 -0.11873829136E+02  0.13503311823E+02  0.47000000000E+01 0.  1.
<mgrwt>
<rscale>  2 0.64305219E+01</rscale>
<asrwt>0</asrwt>
<pdfrwt beam="1">  1       21 0.59187193E-03 0.64305219E+01</pdfrwt>
<pdfrwt beam="2">  1       21 0.24765677E-02 0.64305219E+01</pdfrwt>
<totfact> 0.19134495E+09</totfact>
</mgrwt>
</event>
<event>
 4    1  0.4084348E+006  0.5746135E+01  0.7546771E-02  0.2449684E+00
         21   -1    0    0  501  502  0.00000000000E+00  0.00000000000E+00  0.25528599669E+00  0.25528599669E+00  0.00000000000E+00 0.  1.
         21   -1    0    0  502  503 -0.00000000000E+00 -0.00000000000E+00 -0.14300737851E+03  0.14300737851E+03  0.00000000000E+00 0.  1.
          5    1    1    2  501    0  0.32403692962E+01  0.65427328053E+00 -0.49229538365E+02  0.49563752021E+02  0.47000000000E+01 0.  1.
         -5    1    1    2    0  503 -0.32403692962E+01 -0.65427328053E+00 -0.93522554147E+02  0.93698912486E+02  0.47000000000E+01 0.  1.
<mgrwt>
<rscale>  2 0.57461349E+01</rscale>
<asrwt>0</asrwt>
<pdfrwt beam="1">  1       21 0.39274717E-04 0.57461349E+01</pdfrwt>
<pdfrwt beam="2">  1       21 0.22001164E-01 0.57461349E+01</pdfrwt>
<totfact> 0.25123626E+09</totfact>
</mgrwt>
</event>
<event>
 4    1  0.4084348E+006  0.5000944E+01  0.7546771E-02  0.2566986E+00
         21   -1    0    0  501  502  0.00000000000E+00  0.00000000000E+00  0.14169391701E+04  0.14169391701E+04  0.00000000000E+00 0.  1.
         21   -1    0    0  502  503 -0.00000000000E+00 -0.00000000000E+00 -0.20647383326E-01  0.20647383326E-01  0.00000000000E+00 0.  1.
          5    1    1    2  501    0  0.51959910714E+00 -0.16277155522E+01  0.97838382414E+03  0.97839660505E+03  0.47000000000E+01 0.  1.
         -5    1    1    2    0  503 -0.51959910714E+00  0.16277155522E+01  0.43853469862E+03  0.43856321247E+03  0.47000000000E+01 0.  1.
<mgrwt>
<rscale>  2 0.50009440E+01</rscale>
<asrwt>0</asrwt>
<pdfrwt beam="1">  1       21 0.21791279E+00 0.50009440E+01</pdfrwt>
<pdfrwt beam="2">  1       21 0.31776554E-05 0.50009440E+01</pdfrwt>
<totfact> 0.84124089E+08</totfact>
</mgrwt>
</event>
<event>
 4    1  0.4084348E+006  0.8590561E+01  0.7546771E-02  0.2165362E+00
         21   -1    0    0  503  502  0.00000000000E+00  0.00000000000E+00  0.23927704575E+02  0.23927704575E+02  0.00000000000E+00 0.  1.
         21   -1    0    0  501  503 -0.00000000000E+00 -0.00000000000E+00 -0.40004109065E+01  0.40004109065E+01  0.00000000000E+00 0. -1.
          5    1    1    2  501    0 -0.43370915775E+00  0.71777181400E+01  0.32808554138E+01  0.91957464937E+01  0.47000000000E+01 0. -1.
         -5    1    1    2    0  502  0.43370915775E+00 -0.71777181400E+01  0.16646438255E+02  0.18732368988E+02  0.47000000000E+01 0.  1.
<mgrwt>
<rscale>  2 0.85905612E+01</rscale>
<asrwt>0</asrwt>
<pdfrwt beam="1">  1       21 0.36811852E-02 0.85905612E+01</pdfrwt>
<pdfrwt beam="2">  1       21 0.61544784E-03 0.85905612E+01</pdfrwt>
<totfact> 0.12463119E+09</totfact>
</mgrwt>
</event>
<event>
 4    1  0.4084348E+006  0.9290705E+01  0.7546771E-02  0.2117754E+00
         21   -1    0    0  503  502  0.00000000000E+00  0.00000000000E+00  0.20886009433E+01  0.20886009433E+01  0.00000000000E+00 0.  1.
         21   -1    0    0  501  503 -0.00000000000E+00 -0.00000000000E+00 -0.42302041015E+02  0.42302041015E+02  0.00000000000E+00 0. -1.
          5    1    1    2  501    0 -0.62832534095E-01  0.80139411227E+01 -0.23475112637E+02  0.25246744613E+02  0.47000000000E+01 0.  1.
         -5    1    1    2    0  502  0.62832534095E-01 -0.80139411227E+01 -0.16738327435E+02  0.19143897345E+02  0.47000000000E+01 0.  1.
<mgrwt>
<rscale>  2 0.92907050E+01</rscale>
<asrwt>0</asrwt>
<pdfrwt beam="1">  1       21 0.32132322E-03 0.92907050E+01</pdfrwt>
<pdfrwt beam="2">  1       21 0.65080063E-02 0.92907050E+01</pdfrwt>
<totfact> 0.13825739E+09</totfact>
</mgrwt>
</event>
<event>
 4    1  0.4084348E+006  0.4926410E+01  0.7546771E-02  0.2580376E+00
         21   -1    0    0  503  502  0.00000000000E+00  0.00000000000E+00  0.56170517474E+02  0.56170517474E+02  0.00000000000E+00 0.  1.
         21   -1    0    0  501  503 -0.00000000000E+00 -0.00000000000E+00 -0.58371532357E+00  0.58371532357E+00  0.00000000000E+00 0.  1.
          5    1    1    2  501    0  0.31260784714E+00  0.14428410832E+01  0.13329538020E+02  0.14210774007E+02  0.47000000000E+01 0.  1.
         -5    1    1    2    0  502 -0.31260784714E+00 -0.14428410832E+01  0.42257264131E+02  0.42543458791E+02  0.47000000000E+01 0.  1.
<mgrwt>
<rscale>  2 0.49264099E+01</rscale>
<asrwt>0</asrwt>
<pdfrwt beam="1">  1       21 0.86416138E-02 0.49264099E+01</pdfrwt>
<pdfrwt beam="2">  1       21 0.89802401E-04 0.49264099E+01</pdfrwt>
<totfact> 0.31032300E+09</totfact>
</mgrwt>
</event>
<event>
 4    1  0.4084348E+006  0.6606048E+01  0.7546771E-02  0.2342643E+00
         21   -1    0    0  501  502  0.00000000000E+00  0.00000000000E+00  0.16069925920E+01  0.16069925920E+01  0.00000000000E+00 0.  1.
         21   -1    0    0  502  503 -0.00000000000E+00 -0.00000000000E+00 -0.37012217320E+02  0.37012217320E+02  0.00000000000E+00 0. -1.
          5    1    1    2  501    0 -0.41696201050E+01  0.20406214541E+01 -0.77382203483E+01  0.10174474035E+02  0.47000000000E+01 0.  1.
         -5    1    1    2    0  503  0.41696201050E+01 -0.20406214541E+01 -0.27667004380E+02  0.28444735876E+02  0.47000000000E+01 0. -1.
<mgrwt>
<rscale>  2 0.66060478E+01</rscale>
<asrwt>0</asrwt>
<pdfrwt beam="1">  1       21 0.24722965E-03 0.66060478E+01</pdfrwt>
<pdfrwt beam="2">  1       21 0.56941869E-02 0.66060478E+01</pdfrwt>
<totfact> 0.19232885E+09</totfact>
</mgrwt>
</event>
<event>
 4    1  0.4084348E+006  0.4750349E+01  0.7546771E-02  0.2613443E+00
         21   -1    0    0  501  502  0.00000000000E+00  0.00000000000E+00  0.43792643327E+01  0.43792643327E+01  0.00000000000E+00 0. -1.
         21   -1    0    0  502  503 -0.00000000000E+00 -0.00000000000E+00 -0.80931352552E+01  0.80931352552E+01  0.00000000000E+00 0. -1.
          5    1    1    2  501    0  0.48946645291E+00 -0.48604534231E+00  0.19019080182E+01  0.51169396706E+01  0.47000000000E+01 0. -1.
         -5    1    1    2    0  503 -0.48946645291E+00  0.48604534231E+00 -0.56157789407E+01  0.73554599172E+01  0.47000000000E+01 0. -1.
<mgrwt>
<rscale>  2 0.47503492E+01</rscale>
<asrwt>0</asrwt>
<pdfrwt beam="1">  1       21 0.67373298E-03 0.47503492E+01</pdfrwt>
<pdfrwt beam="2">  1       21 0.12450977E-02 0.47503492E+01</pdfrwt>
<totfact> 0.32008023E+09</totfact>
</mgrwt>
</event>
<event>
 4    1  0.4084348E+006  0.5362203E+01  0.7546771E-02  0.2506650E+00
         21   -1    0    0  501  502  0.00000000000E+00  0.00000000000E+00  0.62306706428E+01  0.62306706428E+01  0.00000000000E+00 0. -1.
         21   -1    0    0  502  503 -0.00000000000E+00 -0.00000000000E+00 -0.79513390381E+01  0.79513390381E+01  0.00000000000E+00 0. -1.
          5    1    1    2  501    0  0.20344259656E+01 -0.15888152722E+01  0.37330898960E+01  0.65336959793E+01  0.47000000000E+01 0. -1.
         -5    1    1    2    0  503 -0.20344259656E+01  0.15888152722E+01 -0.54537582913E+01  0.76483137016E+01  0.47000000000E+01 0. -1.
<mgrwt>
<rscale>  2 0.53622032E+01</rscale>
<asrwt>0</asrwt>
<pdfrwt beam="1">  1       21 0.95856471E-03 0.53622032E+01</pdfrwt>
<pdfrwt beam="2">  1       21 0.12232829E-02 0.53622032E+01</pdfrwt>
<totfact> 0.22751494E+09</totfact>
</mgrwt>
</event>
<event>
 4    1  0.4084348E+006  0.6894096E+01  0.7546771E-02  0.2311805E+00
         21   -1    0    0  501  502  0.00000000000E+00  0.00000000000E+00  0.37685016599E+03  0.37685016599E+03  0.00000000000E+00 0.  1.
         21   -1    0    0  502  503 -0.00000000000E+00 -0.00000000000E+00 -0.23725086302E+00  0.23725086302E+00  0.00000000000E+00 0. -1.
          5    1    1    2  501    0 -0.43195766787E+01  0.26038083830E+01  0.31734645876E+03  0.31742133426E+03  0.47000000000E+01 0.  1.
         -5    1    1    2    0  503  0.43195766787E+01 -0.26038083830E+01  0.59266456368E+02  0.59666082586E+02  0.47000000000E+01 0. -1.
<mgrwt>
<rscale>  2 0.68940961E+01</rscale>
<asrwt>0</asrwt>
<pdfrwt beam="1">  1       21 0.57976470E-01 0.68940961E+01</pdfrwt>
<pdfrwt beam="2">  1       21 0.36500434E-04 0.68940961E+01</pdfrwt>
<totfact> 0.59203576E+08</totfact>
</mgrwt>
</event>
<event>
 4    1  0.4084348E+006  0.5022548E+01  0.7546771E-02  0.2563169E+00
         21   -1    0    0  501  502  0.00000000000E+00  0.00000000000E+00  0.80775151559E+02  0.80775151559E+02  0.00000000000E+00 0.  1.
         21   -1    0    0  502  503 -0.00000000000E+00 -0.00000000000E+00 -0.31234055836E+00  0.31234055836E+00  0.00000000000E+00 0.  1.
          5    1    1    2  501    0 -0.72380415024E+00 -0.16161968674E+01  0.40700069510E+02  0.41008799579E+02  0.47000000000E+01 0. -1.
         -5    1    1    2    0  503  0.72380415024E+00  0.16161968674E+01  0.39762741491E+02  0.40078692539E+02  0.47000000000E+01 0. -1.
<mgrwt>
<rscale>  2 0.50225476E+01</rscale>
<asrwt>0</asrwt>
<pdfrwt beam="1">  1       21 0.12426930E-01 0.50225476E+01</pdfrwt>
<pdfrwt beam="2">  1       21 0.48052458E-04 0.50225476E+01</pdfrwt>
<totfact> 0.41781242E+09</totfact>
</mgrwt>
</event>
<event>
 4    1  0.4084348E+006  0.4836062E+01  0.7546771E-02  0.2597084E+00
         21   -1    0    0  503  502  0.00000000000E+00  0.00000000000E+00  0.38061301152E+01  0.38061301152E+01  0.00000000000E+00 0.  1.
         21   -1    0    0  501  503 -0.00000000000E+00 -0.00000000000E+00 -0.61598328327E+01  0.61598328327E+01  0.00000000000E+00 0.  1.
          5    1    1    2  501    0  0.49005551990E+00  0.10282713585E+01 -0.14239002846E+01  0.50413280413E+01  0.47000000000E+01 0.  1.
         -5    1    1    2    0  502 -0.49005551990E+00 -0.10282713585E+01 -0.92980243299E+00  0.49246349066E+01  0.47000000000E+01 0.  1.
<mgrwt>
<rscale>  2 0.48360621E+01</rscale>
<asrwt>0</asrwt>
<pdfrwt beam="1">  1       21 0.58555849E-03 0.48360621E+01</pdfrwt>
<pdfrwt beam="2">  1       21 0.94766658E-03 0.48360621E+01</pdfrwt>
<totfact> 0.57896420E+09</totfact>
</mgrwt>
</event>
<event>
 4    1  0.4084348E+006  0.8590337E+01  0.7546771E-02  0.2165379E+00
         21   -1    0    0  501  502  0.00000000000E+00  0.00000000000E+00  0.37723187149E+01  0.37723187149E+01  0.00000000000E+00 0.  1.
         21   -1    0    0  502  503 -0.00000000000E+00 -0.00000000000E+00 -0.19577033243E+02  0.19577033243E+02  0.00000000000E+00 0.  1.
          5    1    1    2  501    0  0.70168749246E+01 -0.15707814317E+01 -0.82264751327E+01  0.11894064954E+02  0.47000000000E+01 0.  1.
         -5    1    1    2    0  503 -0.70168749246E+01  0.15707814317E+01 -0.75782393954E+01  0.11455287004E+02  0.47000000000E+01 0.  1.
<mgrwt>
<rscale>  2 0.85903369E+01</rscale>
<asrwt>0</asrwt>
<pdfrwt beam="1">  1       21 0.58035673E-03 0.85903369E+01</pdfrwt>
<pdfrwt beam="2">  1       21 0.30118512E-02 0.85903369E+01</pdfrwt>
<totfact> 0.18280987E+09</totfact>
</mgrwt>
</event>
<event>
 4    1  0.4084348E+006  0.7567982E+01  0.7546771E-02  0.2247277E+00
         21   -1    0    0  501  502  0.00000000000E+00  0.00000000000E+00  0.13430094894E+00  0.13430094894E+00  0.00000000000E+00 0. -1.
         21   -1    0    0  502  503 -0.00000000000E+00 -0.00000000000E+00 -0.42650229881E+03  0.42650229881E+03  0.00000000000E+00 0.  1.
          5    1    1    2  501    0  0.24037221315E+01 -0.54227733244E+01 -0.21523842885E+03  0.21537143637E+03  0.47000000000E+01 0.  1.
         -5    1    1    2    0  503 -0.24037221315E+01  0.54227733244E+01 -0.21112956902E+03  0.21126516339E+03  0.47000000000E+01 0.  1.
<mgrwt>
<rscale>  2 0.75679819E+01</rscale>
<asrwt>0</asrwt>
<pdfrwt beam="1">  1       21 0.20662124E-04 0.75679819E+01</pdfrwt>
<pdfrwt beam="2">  1       21 0.65614342E-01 0.75679819E+01</pdfrwt>
<totfact> 0.10678662E+09</totfact>
</mgrwt>
</event>
<event>
 4    1  0.4084348E+006  0.8095501E+01  0.7546771E-02  0.2202939E+00
         21   -1    0    0  501  502  0.00000000000E+00  0.00000000000E+00  0.70797247897E+02  0.70797247897E+02  0.00000000000E+00 0.  1.
         21   -1    0    0  502  503 -0.00000000000E+00 -0.00000000000E+00 -0.25168660786E+01  0.25168660786E+01  0.00000000000E+00 0.  1.
          5    1    1    2  501    0 -0.11703629003E+01 -0.64867084523E+01  0.63286600166E+02  0.63802279712E+02  0.47000000000E+01 0.  1.
         -5    1    1    2    0  503  0.11703629003E+01  0.64867084523E+01  0.49937816517E+01  0.95118342631E+01  0.47000000000E+01 0.  1.
<mgrwt>
<rscale>  2 0.80955010E+01</rscale>
<asrwt>0</asrwt>
<pdfrwt beam="1">  1       21 0.10891883E-01 0.80955010E+01</pdfrwt>
<pdfrwt beam="2">  1       21 0.38721022E-03 0.80955010E+01</pdfrwt>
<totfact> 0.43817430E+08</totfact>
</mgrwt>
</event>
<event>
 4    1  0.4084348E+006  0.6494417E+01  0.7546771E-02  0.2355198E+00
         21   -1    0    0  503  502  0.00000000000E+00  0.00000000000E+00  0.22478462478E+01  0.22478462478E+01  0.00000000000E+00 0. -1.
         21   -1    0    0  501  503 -0.00000000000E+00 -0.00000000000E+00 -0.21338782127E+02  0.21338782127E+02  0.00000000000E+00 0. -1.
          5    1    1    2  501    0 -0.10897787783E+01  0.43473945557E+01 -0.13642446403E+02  0.15109394464E+02  0.47000000000E+01 0. -1.
         -5    1    1    2    0  502  0.10897787783E+01 -0.43473945557E+01 -0.54484894764E+01  0.84772339111E+01  0.47000000000E+01 0. -1.
<mgrwt>
<rscale>  2 0.64944174E+01</rscale>
<asrwt>0</asrwt>
<pdfrwt beam="1">  1       21 0.34582250E-03 0.64944174E+01</pdfrwt>
<pdfrwt beam="2">  1       21 0.32828896E-02 0.64944174E+01</pdfrwt>
<totfact> 0.27018448E+09</totfact>
</mgrwt>
</event>
<event>
 4    1  0.4084348E+006  0.5551940E+01  0.7546771E-02  0.2477663E+00
         21   -1    0    0  501  502  0.00000000000E+00  0.00000000000E+00  0.44143776104E+02  0.44143776104E+02  0.00000000000E+00 0.  1.
         21   -1    0    0  502  503 -0.00000000000E+00 -0.00000000000E+00 -0.76616496173E+00  0.76616496173E+00  0.00000000000E+00 0.  1.
          5    1    1    2  501    0  0.29094957976E+01  0.51852411178E+00  0.28373593215E+02  0.28911672815E+02  0.47000000000E+01 0.  1.
         -5    1    1    2    0  503 -0.29094957976E+01 -0.51852411178E+00  0.15004017928E+02  0.15998268251E+02  0.47000000000E+01 0.  1.
<mgrwt>
<rscale>  2 0.55519396E+01</rscale>
<asrwt>0</asrwt>
<pdfrwt beam="1">  1       21 0.67913482E-02 0.55519396E+01</pdfrwt>
<pdfrwt beam="2">  1       21 0.11787157E-03 0.55519396E+01</pdfrwt>
<totfact> 0.34788531E+09</totfact>
</mgrwt>
</event>
<event>
 4    1  0.4084348E+006  0.5011112E+01  0.7546771E-02  0.2565186E+00
         21   -1    0    0  501  502  0.00000000000E+00  0.00000000000E+00  0.26109629236E+02  0.26109629236E+02  0.00000000000E+00 0. -1.
         21   -1    0    0  502  503 -0.00000000000E+00 -0.00000000000E+00 -0.56066700189E+01  0.56066700189E+01  0.00000000000E+00 0.  1.
          5    1    1    2  501    0  0.14723741310E+01 -0.92377560180E+00  0.24685541937E+02  0.25189029907E+02  0.47000000000E+01 0. -1.
         -5    1    1    2    0  503 -0.14723741310E+01  0.92377560180E+00 -0.41825827191E+01  0.65272693484E+01  0.47000000000E+01 0.  1.
<mgrwt>
<rscale>  2 0.50111123E+01</rscale>
<asrwt>0</asrwt>
<pdfrwt beam="1">  1       21 0.40168660E-02 0.50111123E+01</pdfrwt>
<pdfrwt beam="2">  1       21 0.86256463E-03 0.50111123E+01</pdfrwt>
<totfact> 0.45363154E+08</totfact>
</mgrwt>
</event>
<event>
 4    1  0.4084348E+006  0.5074789E+01  0.7546771E-02  0.2554055E+00
         21   -1    0    0  503  502  0.00000000000E+00  0.00000000000E+00  0.48343788343E+02  0.48343788343E+02  0.00000000000E+00 0.  1.
         21   -1    0    0  501  503 -0.00000000000E+00 -0.00000000000E+00 -0.53508703146E+00  0.53508703146E+00  0.00000000000E+00 0.  1.
          5    1    1    2  501    0  0.19125958150E+01  0.73889773250E-01  0.22277307814E+02  0.22848017986E+02  0.47000000000E+01 0.  1.
         -5    1    1    2    0  502 -0.19125958150E+01 -0.73889773250E-01  0.25531393498E+02  0.26030857388E+02  0.47000000000E+01 0.  1.
<mgrwt>
<rscale>  2 0.50747889E+01</rscale>
<asrwt>0</asrwt>
<pdfrwt beam="1">  1       21 0.74375025E-02 0.50747889E+01</pdfrwt>
<pdfrwt beam="2">  1       21 0.82321119E-04 0.50747889E+01</pdfrwt>
<totfact> 0.44916674E+09</totfact>
</mgrwt>
</event>
<event>
 4    1  0.4084348E+006  0.4776402E+01  0.7546771E-02  0.2608417E+00
         21   -1    0    0  501  502  0.00000000000E+00  0.00000000000E+00  0.60957449761E+02  0.60957449761E+02  0.00000000000E+00 0. -1.
         21   -1    0    0  502  503 -0.00000000000E+00 -0.00000000000E+00 -0.53378957161E+00  0.53378957161E+00  0.00000000000E+00 0. -1.
          5    1    1    2  501    0 -0.30494897179E+00  0.79436986496E+00  0.47019866179E+02  0.47261843308E+02  0.47000000000E+01 0. -1.
         -5    1    1    2    0  503  0.30494897179E+00 -0.79436986496E+00  0.13403794010E+02  0.14229396024E+02  0.47000000000E+01 0. -1.
<mgrwt>
<rscale>  2 0.47764021E+01</rscale>
<asrwt>0</asrwt>
<pdfrwt beam="1">  1       21 0.93780637E-02 0.47764021E+01</pdfrwt>
<pdfrwt beam="2">  1       21 0.82121521E-04 0.47764021E+01</pdfrwt>
<totfact> 0.29942015E+09</totfact>
</mgrwt>
</event>
<event>
 4    1  0.4084348E+006  0.6251374E+01  0.7546771E-02  0.2383812E+00
         21   -1    0    0  501  502  0.00000000000E+00  0.00000000000E+00  0.10986558670E+02  0.10986558670E+02  0.00000000000E+00 0. -1.
         21   -1    0    0  502  503 -0.00000000000E+00 -0.00000000000E+00 -0.16518411607E+02  0.16518411607E+02  0.00000000000E+00 0. -1.
          5    1    1    2  501    0 -0.11448678194E+01  0.39596663646E+01  0.94161815254E+01  0.11302395966E+02  0.47000000000E+01 0. -1.
         -5    1    1    2    0  503  0.11448678194E+01 -0.39596663646E+01 -0.14948034462E+02  0.16202574311E+02  0.47000000000E+01 0. -1.
<mgrwt>
<rscale>  2 0.62513743E+01</rscale>
<asrwt>0</asrwt>
<pdfrwt beam="1">  1       21 0.16902398E-02 0.62513743E+01</pdfrwt>
<pdfrwt beam="2">  1       21 0.25412941E-02 0.62513743E+01</pdfrwt>
<totfact> 0.40785049E+08</totfact>
</mgrwt>
</event>
<event>
 4    1  0.4084348E+006  0.6685272E+01  0.7546771E-02  0.2333943E+00
         21   -1    0    0  501  502  0.00000000000E+00  0.00000000000E+00  0.16150819637E+00  0.16150819637E+00  0.00000000000E+00 0. -1.
         21   -1    0    0  502  503 -0.00000000000E+00 -0.00000000000E+00 -0.55467032873E+03  0.55467032873E+03  0.00000000000E+00 0. -1.
          5    1    1    2  501    0  0.14364771211E-01  0.47542248810E+01 -0.80874980298E+02  0.81150818226E+02  0.47000000000E+01 0. -1.
         -5    1    1    2    0  503 -0.14364771211E-01 -0.47542248810E+01 -0.47363384024E+03  0.47368101871E+03  0.47000000000E+01 0. -1.
<mgrwt>
<rscale>  2 0.66852719E+01</rscale>
<asrwt>0</asrwt>
<pdfrwt beam="1">  1       21 0.24847295E-04 0.66852719E+01</pdfrwt>
<pdfrwt beam="2">  1       21 0.85334307E-01 0.66852719E+01</pdfrwt>
<totfact> 0.46324010E+08</totfact>
</mgrwt>
</event>
<event>
 4    1  0.4084348E+006  0.5820130E+01  0.7546771E-02  0.2439439E+00
         21   -1    0    0  501  502  0.00000000000E+00  0.00000000000E+00  0.36787795481E+02  0.36787795481E+02  0.00000000000E+00 0. -1.
         21   -1    0    0  502  503 -0.00000000000E+00 -0.00000000000E+00 -0.10271044073E+01  0.10271044073E+01  0.00000000000E+00 0.  1.
          5    1    1    2  501    0 -0.84278148856E+00 -0.33277062091E+01  0.23963341906E+02  0.24660001309E+02  0.47000000000E+01 0. -1.
         -5    1    1    2    0  503  0.84278148856E+00  0.33277062091E+01  0.11797349168E+02  0.13154898580E+02  0.47000000000E+01 0. -1.
<mgrwt>
<rscale>  2 0.58201297E+01</rscale>
<asrwt>0</asrwt>
<pdfrwt beam="1">  1       21 0.56596598E-02 0.58201297E+01</pdfrwt>
<pdfrwt beam="2">  1       21 0.15801609E-03 0.58201297E+01</pdfrwt>
<totfact> 0.32106434E+09</totfact>
</mgrwt>
</event>
<event>
 4    1  0.4084348E+006  0.9895141E+01  0.7546771E-02  0.2081005E+00
         21   -1    0    0  501  502  0.00000000000E+00  0.00000000000E+00  0.14128045648E+01  0.14128045648E+01  0.00000000000E+00 0. -1.
         21   -1    0    0  502  503 -0.00000000000E+00 -0.00000000000E+00 -0.33478637434E+03  0.33478637434E+03  0.00000000000E+00 0.  1.
          5    1    1    2  501    0 -0.76283090258E+01  0.41991340236E+01 -0.16994251322E+02  0.19665157084E+02  0.47000000000E+01 0. -1.
         -5    1    1    2    0  503  0.76283090258E+01 -0.41991340236E+01 -0.31637931845E+03  0.31653402182E+03  0.47000000000E+01 0.  1.
<mgrwt>
<rscale>  2 0.98951415E+01</rscale>
<asrwt>0</asrwt>
<pdfrwt beam="1">  1       21 0.21735473E-03 0.98951415E+01</pdfrwt>
<pdfrwt beam="2">  1       21 0.51505554E-01 0.98951415E+01</pdfrwt>
<totfact> 0.77733250E+07</totfact>
</mgrwt>
</event>
<event>
 4    1  0.4084348E+006  0.4759977E+01  0.7546771E-02  0.2611580E+00
         21   -1    0    0  503  502  0.00000000000E+00  0.00000000000E+00  0.71305596823E+00  0.71305596823E+00  0.00000000000E+00 0. -1.
         21   -1    0    0  501  503 -0.00000000000E+00 -0.00000000000E+00 -0.14386074457E+03  0.14386074457E+03  0.00000000000E+00 0. -1.
          5    1    1    2  501    0 -0.53164437853E+00 -0.53361033039E+00 -0.13538014306E+03  0.13546379782E+03  0.47000000000E+01 0. -1.
         -5    1    1    2    0  502  0.53164437853E+00  0.53361033039E+00 -0.77675455436E+01  0.91100027169E+01  0.47000000000E+01 0. -1.
<mgrwt>
<rscale>  2 0.47599775E+01</rscale>
<asrwt>0</asrwt>
<pdfrwt beam="1">  1       21 0.10970101E-03 0.47599775E+01</pdfrwt>
<pdfrwt beam="2">  1       21 0.22132403E-01 0.47599775E+01</pdfrwt>
<totfact> 0.53947674E+08</totfact>
</mgrwt>
</event>
<event>
 4    1  0.4084348E+006  0.1042398E+02  0.7546771E-02  0.2051632E+00
         21   -1    0    0  503  502  0.00000000000E+00  0.00000000000E+00  0.46650467822E+03  0.46650467822E+03  0.00000000000E+00 0. -1.
         21   -1    0    0  501  503 -0.00000000000E+00 -0.00000000000E+00 -0.37329263257E+00  0.37329263257E+00  0.00000000000E+00 0.  1.
          5    1    1    2  501    0 -0.44884123712E+01 -0.81500660945E+01  0.89917432048E+02  0.90519633280E+02  0.47000000000E+01 0.  1.
         -5    1    1    2    0  502  0.44884123712E+01  0.81500660945E+01  0.37621395353E+03  0.37635833757E+03  0.47000000000E+01 0. -1.
<mgrwt>
<rscale>  2 0.10423983E+02</rscale>
<asrwt>0</asrwt>
<pdfrwt beam="1">  1       21 0.71769484E-01 0.10423983E+02</pdfrwt>
<pdfrwt beam="2">  1       21 0.57430009E-04 0.10423983E+02</pdfrwt>
<totfact> 0.26497551E+08</totfact>
</mgrwt>
</event>
<event>
 4    1  0.4084348E+006  0.8270632E+01  0.7546771E-02  0.2189234E+00
         21   -1    0    0  503  502  0.00000000000E+00  0.00000000000E+00  0.60553490747E+03  0.60553490747E+03  0.00000000000E+00 0. -1.
         21   -1    0    0  501  503 -0.00000000000E+00 -0.00000000000E+00 -0.11669425493E+01  0.11669425493E+01  0.00000000000E+00 0.  1.
          5    1    1    2  501    0 -0.77970551011E+00  0.67605778534E+01  0.13889340372E+02  0.16165306355E+02  0.47000000000E+01 0.  1.
         -5    1    1    2    0  502  0.77970551011E+00 -0.67605778534E+01  0.59047862455E+03  0.59053654367E+03  0.47000000000E+01 0. -1.
<mgrwt>
<rscale>  2 0.82706320E+01</rscale>
<asrwt>0</asrwt>
<pdfrwt beam="1">  1       21 0.93158965E-01 0.82706320E+01</pdfrwt>
<pdfrwt beam="2">  1       21 0.17953011E-03 0.82706320E+01</pdfrwt>
<totfact> 0.29635015E+07</totfact>
</mgrwt>
</event>
<event>
 4    1  0.4084348E+006  0.5922544E+01  0.7546771E-02  0.2425615E+00
         21   -1    0    0  501  502  0.00000000000E+00  0.00000000000E+00  0.83687886942E+02  0.83687886942E+02  0.00000000000E+00 0. -1.
         21   -1    0    0  502  503 -0.00000000000E+00 -0.00000000000E+00 -0.64953842206E+00  0.64953842206E+00  0.00000000000E+00 0. -1.
          5    1    1    2  501    0  0.31281326183E+01  0.17892231279E+01  0.66634121118E+02  0.66896805830E+02  0.47000000000E+01 0. -1.
         -5    1    1    2    0  503 -0.31281326183E+01 -0.17892231279E+01  0.16404227402E+02  0.17440619534E+02  0.47000000000E+01 0. -1.
<mgrwt>
<rscale>  2 0.59225445E+01</rscale>
<asrwt>0</asrwt>
<pdfrwt beam="1">  1       21 0.12875051E-01 0.59225445E+01</pdfrwt>
<pdfrwt beam="2">  1       21 0.99929054E-04 0.59225445E+01</pdfrwt>
<totfact> 0.17322793E+09</totfact>
</mgrwt>
</event>
<event>
 4    1  0.4084348E+006  0.6349707E+01  0.7546771E-02  0.2372016E+00
         21   -1    0    0  501  502  0.00000000000E+00  0.00000000000E+00  0.12609429611E+01  0.12609429611E+01  0.00000000000E+00 0. -1.
         21   -1    0    0  502  503 -0.00000000000E+00 -0.00000000000E+00 -0.85110397032E+02  0.85110397032E+02  0.00000000000E+00 0. -1.
          5    1    1    2  501    0 -0.42659957085E+01  0.17336165046E+00 -0.78022993823E+01  0.10059555124E+02  0.47000000000E+01 0. -1.
         -5    1    1    2    0  503  0.42659957085E+01 -0.17336165046E+00 -0.76047154688E+02  0.76311784869E+02  0.47000000000E+01 0. -1.
<mgrwt>
<rscale>  2 0.63497066E+01</rscale>
<asrwt>0</asrwt>
<pdfrwt beam="1">  1       21 0.19399129E-03 0.63497066E+01</pdfrwt>
<pdfrwt beam="2">  1       21 0.13093903E-01 0.63497066E+01</pdfrwt>
<totfact> 0.72618470E+08</totfact>
</mgrwt>
</event>
<event>
 4    1  0.4084348E+006  0.5735473E+01  0.7546771E-02  0.2451178E+00
         21   -1    0    0  501  502  0.00000000000E+00  0.00000000000E+00  0.46383655790E-01  0.46383655790E-01  0.00000000000E+00 0.  1.
         21   -1    0    0  502  503 -0.00000000000E+00 -0.00000000000E+00 -0.11210956493E+04  0.11210956493E+04  0.00000000000E+00 0.  1.
          5    1    1    2  501    0  0.31961490765E+00 -0.32716198154E+01 -0.22074385783E+03  0.22081835616E+03  0.47000000000E+01 0.  1.
         -5    1    1    2    0  503 -0.31961490765E+00  0.32716198154E+01 -0.90030540786E+03  0.90032367684E+03  0.47000000000E+01 0.  1.
<mgrwt>
<rscale>  2 0.57354729E+01</rscale>
<asrwt>0</asrwt>
<pdfrwt beam="1">  1       21 0.71362626E-05 0.57354729E+01</pdfrwt>
<pdfrwt beam="2">  1       21 0.17246863E+00 0.57354729E+01</pdfrwt>
<totfact> 0.51239596E+08</totfact>
</mgrwt>
</event>
<event>
 4    1  0.4084348E+006  0.6527264E+01  0.7546771E-02  0.2351467E+00
         21   -1    0    0  503  502  0.00000000000E+00  0.00000000000E+00  0.78314537007E+01  0.78314537007E+01  0.00000000000E+00 0.  1.
         21   -1    0    0  501  503 -0.00000000000E+00 -0.00000000000E+00 -0.54563014117E+01  0.54563014117E+01  0.00000000000E+00 0.  1.
          5    1    1    2  501    0  0.37946868100E+01 -0.24729600613E+01  0.15477672513E+01  0.67082607966E+01  0.47000000000E+01 0.  1.
         -5    1    1    2    0  502 -0.37946868100E+01  0.24729600613E+01  0.82738503776E+00  0.65794943158E+01  0.47000000000E+01 0.  1.
<mgrwt>
<rscale>  2 0.65272643E+01</rscale>
<asrwt>0</asrwt>
<pdfrwt beam="1">  1       21 0.12048390E-02 0.65272643E+01</pdfrwt>
<pdfrwt beam="2">  1       21 0.83943099E-03 0.65272643E+01</pdfrwt>
<totfact> 0.33403412E+09</totfact>
</mgrwt>
</event>
<event>
 4    1  0.4084348E+006  0.6021983E+01  0.7546771E-02  0.2412571E+00
         21   -1    0    0  503  502  0.00000000000E+00  0.00000000000E+00  0.62711293723E+01  0.62711293723E+01  0.00000000000E+00 0. -1.
         21   -1    0    0  501  503 -0.00000000000E+00 -0.00000000000E+00 -0.14763986787E+02  0.14763986787E+02  0.00000000000E+00 0. -1.
          5    1    1    2  501    0  0.28496879824E+00 -0.37540747232E+01 -0.12449594932E+02  0.13829558858E+02  0.47000000000E+01 0. -1.
         -5    1    1    2    0  502 -0.28496879824E+00  0.37540747232E+01  0.39567375171E+01  0.72055573013E+01  0.47000000000E+01 0. -1.
<mgrwt>
<rscale>  2 0.60219834E+01</rscale>
<asrwt>0</asrwt>
<pdfrwt beam="1">  1       21 0.96478914E-03 0.60219834E+01</pdfrwt>
<pdfrwt beam="2">  1       21 0.22713826E-02 0.60219834E+01</pdfrwt>
<totfact> 0.10338695E+09</totfact>
</mgrwt>
</event>
<event>
 4    1  0.4084348E+006  0.5447693E+01  0.7546771E-02  0.2493377E+00
         21   -1    0    0  501  502  0.00000000000E+00  0.00000000000E+00  0.52584493982E+01  0.52584493982E+01  0.00000000000E+00 0.  1.
         21   -1    0    0  502  503 -0.00000000000E+00 -0.00000000000E+00 -0.57889162948E+01  0.57889162948E+01  0.00000000000E+00 0. -1.
          5    1    1    2  501    0 -0.16528605332E+01  0.22034998346E+01 -0.11399494503E+01  0.55656845233E+01  0.47000000000E+01 0. -1.
         -5    1    1    2    0  503  0.16528605332E+01 -0.22034998346E+01  0.60948255362E+00  0.54816811697E+01  0.47000000000E+01 0.  1.
<mgrwt>
<rscale>  2 0.54476930E+01</rscale>
<asrwt>0</asrwt>
<pdfrwt beam="1">  1       21 0.80899222E-03 0.54476930E+01</pdfrwt>
<pdfrwt beam="2">  1       21 0.89060251E-03 0.54476930E+01</pdfrwt>
<totfact> 0.45722131E+09</totfact>
</mgrwt>
</event>
<event>
 4    1  0.4084348E+006  0.5057826E+01  0.7546771E-02  0.2556997E+00
         21   -1    0    0  501  502  0.00000000000E+00  0.00000000000E+00  0.67470880271E-01  0.67470880271E-01  0.00000000000E+00 0.  1.
         21   -1    0    0  502  503 -0.00000000000E+00 -0.00000000000E+00 -0.10081067896E+04  0.10081067896E+04  0.00000000000E+00 0.  1.
          5    1    1    2  501    0 -0.42748055814E+00 -0.18190284334E+01 -0.10585506110E+03  0.10597582537E+03  0.47000000000E+01 0.  1.
         -5    1    1    2    0  503  0.42748055814E+00  0.18190284334E+01 -0.90218425762E+03  0.90219843510E+03  0.47000000000E+01 0.  1.
<mgrwt>
<rscale>  2 0.50578260E+01</rscale>
<asrwt>0</asrwt>
<pdfrwt beam="1">  1       21 0.10379625E-04 0.50578260E+01</pdfrwt>
<pdfrwt beam="2">  1       21 0.15510099E+00 0.50578260E+01</pdfrwt>
<totfact> 0.35933703E+08</totfact>
</mgrwt>
</event>
<event>
 4    1  0.4084348E+006  0.2241296E+02  0.7546771E-02  0.1701206E+00
         21   -1    0    0  503  502  0.00000000000E+00  0.00000000000E+00  0.39865827493E+01  0.39865827493E+01  0.00000000000E+00 0. -1.
         21   -1    0    0  501  503 -0.00000000000E+00 -0.00000000000E+00 -0.12907031832E+03  0.12907031832E+03  0.00000000000E+00 0. -1.
          5    1    1    2  501    0  0.15217958953E+02  0.15769104407E+02 -0.72789566092E+02  0.76162076261E+02  0.47000000000E+01 0. -1.
         -5    1    1    2    0  502 -0.15217958953E+02 -0.15769104407E+02 -0.52294169478E+02  0.56894824808E+02  0.47000000000E+01 0. -1.
<mgrwt>
<rscale>  2 0.22412963E+02</rscale>
<asrwt>0</asrwt>
<pdfrwt beam="1">  1       21 0.61332047E-03 0.22412963E+02</pdfrwt>
<pdfrwt beam="2">  1       21 0.19856971E-01 0.22412963E+02</pdfrwt>
<totfact> 0.12839397E+08</totfact>
</mgrwt>
</event>
<event>
 4    1  0.4084348E+006  0.5414967E+01  0.7546771E-02  0.2498416E+00
         21   -1    0    0  501  502  0.00000000000E+00  0.00000000000E+00  0.12041136880E+03  0.12041136880E+03  0.00000000000E+00 0.  1.
         21   -1    0    0  502  503 -0.00000000000E+00 -0.00000000000E+00 -0.24366345211E+00  0.24366345211E+00  0.00000000000E+00 0.  1.
          5    1    1    2  501    0 -0.24383455130E+01  0.11341679167E+01  0.61577440413E+02  0.61815071249E+02  0.47000000000E+01 0.  1.
         -5    1    1    2    0  503  0.24383455130E+01 -0.11341679167E+01  0.58590264932E+02  0.58839961000E+02  0.47000000000E+01 0.  1.
<mgrwt>
<rscale>  2 0.54149668E+01</rscale>
<asrwt>0</asrwt>
<pdfrwt beam="1">  1       21 0.18524778E-01 0.54149668E+01</pdfrwt>
<pdfrwt beam="2">  1       21 0.37486781E-04 0.54149668E+01</pdfrwt>
<totfact> 0.33469964E+09</totfact>
</mgrwt>
</event>
<event>
 4    1  0.4084348E+006  0.6503522E+01  0.7546771E-02  0.2354160E+00
         21   -1    0    0  501  502  0.00000000000E+00  0.00000000000E+00  0.39750959759E+01  0.39750959759E+01  0.00000000000E+00 0.  1.
         21   -1    0    0  502  503 -0.00000000000E+00 -0.00000000000E+00 -0.11506908169E+03  0.11506908169E+03  0.00000000000E+00 0.  1.
          5    1    1    2  501    0 -0.44543831140E+01  0.60354540830E+00  0.11564154740E+01  0.66055350075E+01  0.47000000000E+01 0.  1.
         -5    1    1    2    0  503  0.44543831140E+01 -0.60354540830E+00 -0.11225040119E+03  0.11243864266E+03  0.47000000000E+01 0.  1.
<mgrwt>
<rscale>  2 0.65035218E+01</rscale>
<asrwt>0</asrwt>
<pdfrwt beam="1">  1       21 0.61155332E-03 0.65035218E+01</pdfrwt>
<pdfrwt beam="2">  1       21 0.17702933E-01 0.65035218E+01</pdfrwt>
<totfact> 0.93419722E+07</totfact>
</mgrwt>
</event>
<event>
 4    1  0.4084348E+006  0.5786751E+01  0.7546771E-02  0.2444033E+00
         21   -1    0    0  501  502  0.00000000000E+00  0.00000000000E+00  0.88626699566E+00  0.88626699566E+00  0.00000000000E+00 0. -1.
         21   -1    0    0  502  503 -0.00000000000E+00 -0.00000000000E+00 -0.58093341243E+02  0.58093341243E+02  0.00000000000E+00 0. -1.
          5    1    1    2  501    0 -0.14013653462E+01  0.30712631557E+01 -0.11167033571E+02  0.12577325669E+02  0.47000000000E+01 0. -1.
         -5    1    1    2    0  503  0.14013653462E+01 -0.30712631557E+01 -0.46040040677E+02  0.46402282570E+02  0.47000000000E+01 0. -1.
<mgrwt>
<rscale>  2 0.57867506E+01</rscale>
<asrwt>0</asrwt>
<pdfrwt beam="1">  1       21 0.13634874E-03 0.57867506E+01</pdfrwt>
<pdfrwt beam="2">  1       21 0.89374393E-02 0.57867506E+01</pdfrwt>
<totfact> 0.19615454E+09</totfact>
</mgrwt>
</event>
<event>
 4    1  0.4084348E+006  0.7081392E+01  0.7546771E-02  0.2292866E+00
         21   -1    0    0  501  502  0.00000000000E+00  0.00000000000E+00  0.13899372681E+02  0.13899372681E+02  0.00000000000E+00 0. -1.
         21   -1    0    0  502  503 -0.00000000000E+00 -0.00000000000E+00 -0.43115615011E+01  0.43115615011E+01  0.00000000000E+00 0.  1.
          5    1    1    2  501    0 -0.42174166077E+01  0.32046083697E+01  0.84726410387E+01  0.11042271678E+02  0.47000000000E+01 0. -1.
         -5    1    1    2    0  503  0.42174166077E+01 -0.32046083697E+01  0.11151701410E+01  0.71686625036E+01  0.47000000000E+01 0.  1.
<mgrwt>
<rscale>  2 0.70813924E+01</rscale>
<asrwt>0</asrwt>
<pdfrwt beam="1">  1       21 0.21383650E-02 0.70813924E+01</pdfrwt>
<pdfrwt beam="2">  1       21 0.66331716E-03 0.70813924E+01</pdfrwt>
<totfact> 0.21777110E+09</totfact>
</mgrwt>
</event>
<event>
 4    1  0.4084348E+006  0.5186351E+01  0.7546771E-02  0.2535120E+00
         21   -1    0    0  503  502  0.00000000000E+00  0.00000000000E+00  0.26442853169E+04  0.26442853169E+04  0.00000000000E+00 0.  1.
         21   -1    0    0  501  503 -0.00000000000E+00 -0.00000000000E+00 -0.13171867959E-01  0.13171867959E-01  0.00000000000E+00 0.  1.
          5    1    1    2  501    0 -0.21352730049E+01  0.49884833247E+00  0.69118997784E+03  0.69120943548E+03  0.47000000000E+01 0.  1.
         -5    1    1    2    0  502  0.21352730049E+01 -0.49884833247E+00  0.19530821671E+04  0.19530890532E+04  0.47000000000E+01 0.  1.
<mgrwt>
<rscale>  2 0.51863514E+01</rscale>
<asrwt>0</asrwt>
<pdfrwt beam="1">  1       21 0.40638839E+00 0.51863514E+01</pdfrwt>
<pdfrwt beam="2">  1       21 0.20285591E-05 0.51863514E+01</pdfrwt>
<totfact> 0.28804606E+08</totfact>
</mgrwt>
</event>
<event>
 4    1  0.4084348E+006  0.9176791E+01  0.7546771E-02  0.2125106E+00
         21   -1    0    0  503  502  0.00000000000E+00  0.00000000000E+00  0.88421505608E+02  0.88421505608E+02  0.00000000000E+00 0.  1.
         21   -1    0    0  501  503 -0.00000000000E+00 -0.00000000000E+00 -0.19354977484E+01  0.19354977484E+01  0.00000000000E+00 0. -1.
          5    1    1    2  501    0 -0.71073107868E+01 -0.34072892621E+01  0.11044793911E+02  0.14359699136E+02  0.47000000000E+01 0.  1.
         -5    1    1    2    0  502  0.71073107868E+01  0.34072892621E+01  0.75441213949E+02  0.75997304221E+02  0.47000000000E+01 0. -1.
<mgrwt>
<rscale>  2 0.91767907E+01</rscale>
<asrwt>0</asrwt>
<pdfrwt beam="1">  1       21 0.13603305E-01 0.91767907E+01</pdfrwt>
<pdfrwt beam="2">  1       21 0.29776895E-03 0.91767907E+01</pdfrwt>
<totfact> 0.47803117E+08</totfact>
</mgrwt>
</event>
<event>
 4    1  0.4084348E+006  0.1117539E+02  0.7546771E-02  0.2013682E+00
         21   -1    0    0  503  502  0.00000000000E+00  0.00000000000E+00  0.29901393389E+03  0.29901393389E+03  0.00000000000E+00 0.  1.
         21   -1    0    0  501  503 -0.00000000000E+00 -0.00000000000E+00 -0.52798601658E+00  0.52798601658E+00  0.00000000000E+00 0. -1.
          5    1    1    2  501    0 -0.51716044444E-01 -0.10138865174E+02  0.21770266780E+03  0.21798931357E+03  0.47000000000E+01 0.  1.
         -5    1    1    2    0  502  0.51716044444E-01  0.10138865174E+02  0.80783280067E+02  0.81552606334E+02  0.47000000000E+01 0. -1.
<mgrwt>
<rscale>  2 0.11175386E+02</rscale>
<asrwt>0</asrwt>
<pdfrwt beam="1">  1       21 0.46002008E-01 0.11175386E+02</pdfrwt>
<pdfrwt beam="2">  1       21 0.81228857E-04 0.11175386E+02</pdfrwt>
<totfact> 0.39730378E+08</totfact>
</mgrwt>
</event>
<event>
 4    1  0.4084348E+006  0.4915651E+01  0.7546771E-02  0.2582338E+00
         21   -1    0    0  503  502  0.00000000000E+00  0.00000000000E+00  0.80027485521E+01  0.80027485521E+01  0.00000000000E+00 0. -1.
         21   -1    0    0  501  503 -0.00000000000E+00 -0.00000000000E+00 -0.10724994508E+02  0.10724994508E+02  0.00000000000E+00 0. -1.
          5    1    1    2  501    0  0.11622237998E+00 -0.14353111123E+01 -0.92981806706E+01  0.10517594279E+02  0.47000000000E+01 0. -1.
         -5    1    1    2    0  502 -0.11622237998E+00  0.14353111123E+01  0.65759347150E+01  0.82101487810E+01  0.47000000000E+01 0. -1.
<mgrwt>
<rscale>  2 0.49156511E+01</rscale>
<asrwt>0</asrwt>
<pdfrwt beam="1">  1       21 0.12311921E-02 0.49156511E+01</pdfrwt>
<pdfrwt beam="2">  1       21 0.16499991E-02 0.49156511E+01</pdfrwt>
<totfact> 0.96661000E+08</totfact>
</mgrwt>
</event>
<event>
 4    1  0.4084348E+006  0.5012153E+01  0.7546771E-02  0.2565002E+00
         21   -1    0    0  503  502  0.00000000000E+00  0.00000000000E+00  0.26366481996E-01  0.26366481996E-01  0.00000000000E+00 0. -1.
         21   -1    0    0  501  503 -0.00000000000E+00 -0.00000000000E+00 -0.96951502603E+03  0.96951502603E+03  0.00000000000E+00 0. -1.
          5    1    1    2  501    0 -0.13549866212E+01 -0.10934735482E+01 -0.54841885973E+03  0.54844176298E+03  0.47000000000E+01 0. -1.
         -5    1    1    2    0  502  0.13549866212E+01  0.10934735482E+01 -0.42106979982E+03  0.42109962954E+03  0.47000000000E+01 0. -1.
<mgrwt>
<rscale>  2 0.50121525E+01</rscale>
<asrwt>0</asrwt>
<pdfrwt beam="1">  1       21 0.40565598E-05 0.50121525E+01</pdfrwt>
<pdfrwt beam="2">  1       21 0.14914961E+00 0.50121525E+01</pdfrwt>
<totfact> 0.13668857E+09</totfact>
</mgrwt>
</event>
<event>
 4    1  0.4084348E+006  0.8016160E+01  0.7546771E-02  0.2209305E+00
         21   -1    0    0  501  502  0.00000000000E+00  0.00000000000E+00  0.19382368259E+01  0.19382368259E+01  0.00000000000E+00 0.  1.
         21   -1    0    0  502  503 -0.00000000000E+00 -0.00000000000E+00 -0.37247816207E+02  0.37247816207E+02  0.00000000000E+00 0. -1.
          5    1    1    2  501    0  0.46210762424E+01 -0.45622881514E+01 -0.11158641524E+02  0.13739508706E+02  0.47000000000E+01 0.  1.
         -5    1    1    2    0  503 -0.46210762424E+01  0.45622881514E+01 -0.24150937857E+02  0.25446544327E+02  0.47000000000E+01 0. -1.
<mgrwt>
<rscale>  2 0.80161599E+01</rscale>
<asrwt>0</asrwt>
<pdfrwt beam="1">  1       21 0.29819028E-03 0.80161599E+01</pdfrwt>
<pdfrwt beam="2">  1       21 0.57304332E-02 0.80161599E+01</pdfrwt>
<totfact> 0.16946745E+09</totfact>
</mgrwt>
</event>
<event>
 4    1  0.4084348E+006  0.5563261E+01  0.7546771E-02  0.2475987E+00
         21   -1    0    0  503  502  0.00000000000E+00  0.00000000000E+00  0.59857887892E+02  0.59857887892E+02  0.00000000000E+00 0. -1.
         21   -1    0    0  501  503 -0.00000000000E+00 -0.00000000000E+00 -0.57162278203E+00  0.57162278203E+00  0.00000000000E+00 0. -1.
          5    1    1    2  501    0 -0.29746792949E+01 -0.10562289059E+00  0.20307818073E+02  0.21056052527E+02  0.47000000000E+01 0. -1.
         -5    1    1    2    0  502  0.29746792949E+01  0.10562289059E+00  0.38978447037E+02  0.39373458148E+02  0.47000000000E+01 0. -1.
<mgrwt>
<rscale>  2 0.55632610E+01</rscale>
<asrwt>0</asrwt>
<pdfrwt beam="1">  1       21 0.92089009E-02 0.55632610E+01</pdfrwt>
<pdfrwt beam="2">  1       21 0.87942014E-04 0.55632610E+01</pdfrwt>
<totfact> 0.32605082E+09</totfact>
</mgrwt>
</event>
<event>
 4    1  0.4084348E+006  0.4937618E+01  0.7546771E-02  0.2578341E+00
         21   -1    0    0  503  502  0.00000000000E+00  0.00000000000E+00  0.15078916021E+03  0.15078916021E+03  0.00000000000E+00 0. -1.
         21   -1    0    0  501  503 -0.00000000000E+00 -0.00000000000E+00 -0.35144307883E+00  0.35144307883E+00  0.00000000000E+00 0. -1.
          5    1    1    2  501    0 -0.11937308865E+01  0.93009773795E+00  0.19689092267E+02  0.20298779015E+02  0.47000000000E+01 0. -1.
         -5    1    1    2    0  502  0.11937308865E+01 -0.93009773795E+00  0.13074862486E+03  0.13084182427E+03  0.47000000000E+01 0. -1.
<mgrwt>
<rscale>  2 0.49376184E+01</rscale>
<asrwt>0</asrwt>
<pdfrwt beam="1">  1       21 0.23198281E-01 0.49376184E+01</pdfrwt>
<pdfrwt beam="2">  1       21 0.54068286E-04 0.49376184E+01</pdfrwt>
<totfact> 0.13194272E+09</totfact>
</mgrwt>
</event>
<event>
 4    1  0.4084348E+006  0.1368785E+02  0.7546771E-02  0.1910966E+00
         21   -1    0    0  503  502  0.00000000000E+00  0.00000000000E+00  0.29070551270E+02  0.29070551270E+02  0.00000000000E+00 0.  1.
         21   -1    0    0  501  503 -0.00000000000E+00 -0.00000000000E+00 -0.64928521869E+01  0.64928521869E+01  0.00000000000E+00 0. -1.
          5    1    1    2  501    0  0.12260089784E+02  0.38674693365E+01  0.12816799697E+02  0.18751732588E+02  0.47000000000E+01 0. -1.
         -5    1    1    2    0  502 -0.12260089784E+02 -0.38674693365E+01  0.97608993861E+01  0.16811670869E+02  0.47000000000E+01 0. -1.
<mgrwt>
<rscale>  2 0.13687846E+02</rscale>
<asrwt>0</asrwt>
<pdfrwt beam="1">  1       21 0.44723924E-02 0.13687846E+02</pdfrwt>
<pdfrwt beam="2">  1       21 0.99890036E-03 0.13687846E+02</pdfrwt>
<totfact> 0.59429979E+08</totfact>
</mgrwt>
</event>
<event>
 4    1  0.4084348E+006  0.6191069E+01  0.7546771E-02  0.2391200E+00
         21   -1    0    0  503  502  0.00000000000E+00  0.00000000000E+00  0.32568694340E+02  0.32568694340E+02  0.00000000000E+00 0.  1.
         21   -1    0    0  501  503 -0.00000000000E+00 -0.00000000000E+00 -0.10256943425E+02  0.10256943425E+02  0.00000000000E+00 0.  1.
          5    1    1    2  501    0  0.35998375079E+01 -0.18112168101E+01 -0.89910780553E+01  0.10916447271E+02  0.47000000000E+01 0.  1.
         -5    1    1    2    0  502 -0.35998375079E+01  0.18112168101E+01  0.31302828971E+02  0.31909190494E+02  0.47000000000E+01 0.  1.
<mgrwt>
<rscale>  2 0.61910691E+01</rscale>
<asrwt>0</asrwt>
<pdfrwt beam="1">  1       21 0.50105683E-02 0.61910691E+01</pdfrwt>
<pdfrwt beam="2">  1       21 0.15779913E-02 0.61910691E+01</pdfrwt>
<totfact> 0.16506585E+08</totfact>
</mgrwt>
</event>
<event>
 4    1  0.4084348E+006  0.1036126E+02  0.7546771E-02  0.2054992E+00
         21   -1    0    0  503  502  0.00000000000E+00  0.00000000000E+00  0.10833450069E+01  0.10833450069E+01  0.00000000000E+00 0. -1.
         21   -1    0    0  501  503 -0.00000000000E+00 -0.00000000000E+00 -0.99106816293E+02  0.99106816293E+02  0.00000000000E+00 0.  1.
          5    1    1    2  501    0 -0.70119326485E+01  0.60082108503E+01 -0.49520574870E+02  0.50592915834E+02  0.47000000000E+01 0.  1.
         -5    1    1    2    0  502  0.70119326485E+01 -0.60082108503E+01 -0.48502896415E+02  0.49597245466E+02  0.47000000000E+01 0.  1.
<mgrwt>
<rscale>  2 0.10361264E+02</rscale>
<asrwt>0</asrwt>
<pdfrwt beam="1">  1       21 0.16666850E-03 0.10361264E+02</pdfrwt>
<pdfrwt beam="2">  1       21 0.15247199E-01 0.10361264E+02</pdfrwt>
<totfact> 0.95635250E+08</totfact>
</mgrwt>
</event>
<event>
 4    1  0.4084348E+006  0.8126016E+01  0.7546771E-02  0.2200516E+00
         21   -1    0    0  503  502  0.00000000000E+00  0.00000000000E+00  0.10314270874E+03  0.10314270874E+03  0.00000000000E+00 0. -1.
         21   -1    0    0  501  503 -0.00000000000E+00 -0.00000000000E+00 -0.13635072051E+01  0.13635072051E+01  0.00000000000E+00 0.  1.
          5    1    1    2  501    0 -0.37586439795E+01  0.54602866365E+01  0.12831746240E+02  0.15188345739E+02  0.47000000000E+01 0.  1.
         -5    1    1    2    0  502  0.37586439795E+01 -0.54602866365E+01  0.88947455290E+02  0.89317870202E+02  0.47000000000E+01 0. -1.
<mgrwt>
<rscale>  2 0.81260159E+01</rscale>
<asrwt>0</asrwt>
<pdfrwt beam="1">  1       21 0.15868103E-01 0.81260159E+01</pdfrwt>
<pdfrwt beam="2">  1       21 0.20977042E-03 0.81260159E+01</pdfrwt>
<totfact> 0.56620577E+08</totfact>
</mgrwt>
</event>
<event>
 4    1  0.4084348E+006  0.5005720E+01  0.7546771E-02  0.2566140E+00
         21   -1    0    0  503  502  0.00000000000E+00  0.00000000000E+00  0.29193951702E+03  0.29193951702E+03  0.00000000000E+00 0. -1.
         21   -1    0    0  501  503 -0.00000000000E+00 -0.00000000000E+00 -0.45707548533E+00  0.45707548533E+00  0.00000000000E+00 0. -1.
          5    1    1    2  501    0 -0.40782648043E+00  0.16735933558E+01  0.13982672706E+02  0.14851679136E+02  0.47000000000E+01 0. -1.
         -5    1    1    2    0  502  0.40782648043E+00 -0.16735933558E+01  0.27749976882E+03  0.27754491336E+03  0.47000000000E+01 0. -1.
<mgrwt>
<rscale>  2 0.50057204E+01</rscale>
<asrwt>0</asrwt>
<pdfrwt beam="1">  1       21 0.44913623E-01 0.50057204E+01</pdfrwt>
<pdfrwt beam="2">  1       21 0.70319539E-04 0.50057204E+01</pdfrwt>
<totfact> 0.31175915E+08</totfact>
</mgrwt>
</event>
<event>
 4    1  0.4084348E+006  0.1719638E+02  0.7546771E-02  0.1807614E+00
         21   -1    0    0  503  502  0.00000000000E+00  0.00000000000E+00  0.24077984129E+01  0.24077984129E+01  0.00000000000E+00 0.  1.
         21   -1    0    0  501  503 -0.00000000000E+00 -0.00000000000E+00 -0.12297213382E+03  0.12297213382E+03  0.00000000000E+00 0.  1.
          5    1    1    2  501    0  0.47136546382E+01  0.15855814057E+02 -0.58046026344E+02  0.60539710553E+02  0.47000000000E+01 0.  1.
         -5    1    1    2    0  502 -0.47136546382E+01 -0.15855814057E+02 -0.62518309059E+02  0.64840221676E+02  0.47000000000E+01 0.  1.
<mgrwt>
<rscale>  2 0.17196377E+02</rscale>
<asrwt>0</asrwt>
<pdfrwt beam="1">  1       21 0.37043047E-03 0.17196377E+02</pdfrwt>
<pdfrwt beam="2">  1       21 0.18918793E-01 0.17196377E+02</pdfrwt>
<totfact> 0.26835594E+08</totfact>
</mgrwt>
</event>
<event>
 4    1  0.4084348E+006  0.4798263E+01  0.7546771E-02  0.2604236E+00
         21   -1    0    0  503  502  0.00000000000E+00  0.00000000000E+00  0.17566806007E+04  0.17566806007E+04  0.00000000000E+00 0. -1.
         21   -1    0    0  501  503 -0.00000000000E+00 -0.00000000000E+00 -0.13623087160E-01  0.13623087160E-01  0.00000000000E+00 0. -1.
          5    1    1    2  501    0  0.18663966803E+00  0.94788741812E+00  0.10494319008E+04  0.10494428702E+04  0.47000000000E+01 0. -1.
         -5    1    1    2    0  502 -0.18663966803E+00 -0.94788741812E+00  0.70723507682E+03  0.70725135362E+03  0.47000000000E+01 0. -1.
<mgrwt>
<rscale>  2 0.47982627E+01</rscale>
<asrwt>0</asrwt>
<pdfrwt beam="1">  1       21 0.27007724E+00 0.47982627E+01</pdfrwt>
<pdfrwt beam="2">  1       21 0.20972666E-05 0.47982627E+01</pdfrwt>
<totfact> 0.90271867E+08</totfact>
</mgrwt>
</event>
<event>
 4    1  0.4084348E+006  0.4827659E+01  0.7546771E-02  0.2598666E+00
         21   -1    0    0  503  502  0.00000000000E+00  0.00000000000E+00  0.40474931782E+02  0.40474931782E+02  0.00000000000E+00 0.  1.
         21   -1    0    0  501  503 -0.00000000000E+00 -0.00000000000E+00 -0.58778775092E+00  0.58778775092E+00  0.00000000000E+00 0.  1.
          5    1    1    2  501    0  0.10575142925E+01 -0.31297436078E+00  0.17013978621E+02  0.17685637052E+02  0.47000000000E+01 0.  1.
         -5    1    1    2    0  502 -0.10575142925E+01  0.31297436078E+00  0.22873165410E+02  0.23377082481E+02  0.47000000000E+01 0.  1.
<mgrwt>
<rscale>  2 0.48276588E+01</rscale>
<asrwt>0</asrwt>
<pdfrwt beam="1">  1       21 0.62269104E-02 0.48276588E+01</pdfrwt>
<pdfrwt beam="2">  1       21 0.90428917E-04 0.48276588E+01</pdfrwt>
<totfact> 0.48975472E+09</totfact>
</mgrwt>
</event>
<event>
 4    1  0.4084348E+006  0.1093160E+02  0.7546771E-02  0.2025548E+00
         21   -1    0    0  503  502  0.00000000000E+00  0.00000000000E+00  0.13271058136E+02  0.13271058136E+02  0.00000000000E+00 0. -1.
         21   -1    0    0  501  503 -0.00000000000E+00 -0.00000000000E+00 -0.17460714035E+02  0.17460714035E+02  0.00000000000E+00 0.  1.
          5    1    1    2  501    0 -0.71047961213E+01  0.68506811707E+01 -0.12788163738E+02  0.16823706257E+02  0.47000000000E+01 0.  1.
         -5    1    1    2    0  502  0.71047961213E+01 -0.68506811707E+01  0.85985078389E+01  0.13908065915E+02  0.47000000000E+01 0. -1.
<mgrwt>
<rscale>  2 0.10931604E+02</rscale>
<asrwt>0</asrwt>
<pdfrwt beam="1">  1       21 0.20417013E-02 0.10931604E+02</pdfrwt>
<pdfrwt beam="2">  1       21 0.26862637E-02 0.10931604E+02</pdfrwt>
<totfact> 0.40219439E+08</totfact>
</mgrwt>
</event>
<event>
 4    1  0.4084348E+006  0.7480046E+01  0.7546771E-02  0.2255157E+00
         21   -1    0    0  503  502  0.00000000000E+00  0.00000000000E+00  0.16234274476E+01  0.16234274476E+01  0.00000000000E+00 0.  1.
         21   -1    0    0  501  503 -0.00000000000E+00 -0.00000000000E+00 -0.89785835575E+02  0.89785835575E+02  0.00000000000E+00 0. -1.
          5    1    1    2  501    0 -0.29329687224E+01 -0.50258111895E+01 -0.79956995718E+02  0.80306115881E+02  0.47000000000E+01 0. -1.
         -5    1    1    2    0  502  0.29329687224E+01  0.50258111895E+01 -0.82054124090E+01  0.11103147141E+02  0.47000000000E+01 0.  1.
<mgrwt>
<rscale>  2 0.74800457E+01</rscale>
<asrwt>0</asrwt>
<pdfrwt beam="1">  1       21 0.24975802E-03 0.74800457E+01</pdfrwt>
<pdfrwt beam="2">  1       21 0.13813208E-01 0.74800457E+01</pdfrwt>
<totfact> 0.52754392E+08</totfact>
</mgrwt>
</event>
<event>
 4    1  0.4084348E+006  0.4989791E+01  0.7546771E-02  0.2568968E+00
         21   -1    0    0  501  502  0.00000000000E+00  0.00000000000E+00  0.11496250603E+02  0.11496250603E+02  0.00000000000E+00 0. -1.
         21   -1    0    0  502  503 -0.00000000000E+00 -0.00000000000E+00 -0.26844742942E+01  0.26844742942E+01  0.00000000000E+00 0. -1.
          5    1    1    2  501    0 -0.99455229932E+00 -0.13486596714E+01  0.75226717728E+01  0.90271040642E+01  0.47000000000E+01 0. -1.
         -5    1    1    2    0  503  0.99455229932E+00  0.13486596714E+01  0.12891045360E+01  0.51536208330E+01  0.47000000000E+01 0. -1.
<mgrwt>
<rscale>  2 0.49897913E+01</rscale>
<asrwt>0</asrwt>
<pdfrwt beam="1">  1       21 0.17686539E-02 0.49897913E+01</pdfrwt>
<pdfrwt beam="2">  1       21 0.41299605E-03 0.49897913E+01</pdfrwt>
<totfact> 0.40313890E+09</totfact>
</mgrwt>
</event>
<event>
 4    1  0.4084348E+006  0.5148688E+01  0.7546771E-02  0.2541434E+00
         21   -1    0    0  501  502  0.00000000000E+00  0.00000000000E+00  0.53979318193E-01  0.53979318193E-01  0.00000000000E+00 0. -1.
         21   -1    0    0  502  503 -0.00000000000E+00 -0.00000000000E+00 -0.12993292699E+04  0.12993292699E+04  0.00000000000E+00 0. -1.
          5    1    1    2  501    0  0.12338123047E+01 -0.17019669296E+01 -0.13722925408E+03  0.13732580660E+03  0.47000000000E+01 0. -1.
         -5    1    1    2    0  503 -0.12338123047E+01  0.17019669296E+01 -0.11620460365E+04  0.11620574426E+04  0.47000000000E+01 0. -1.
<mgrwt>
<rscale>  2 0.51486876E+01</rscale>
<asrwt>0</asrwt>
<pdfrwt beam="1">  1       21 0.83037790E-05 0.51486876E+01</pdfrwt>
<pdfrwt beam="2">  1       21 0.19991442E+00 0.51486876E+01</pdfrwt>
<totfact> 0.28294334E+08</totfact>
</mgrwt>
</event>
<event>
 4    1  0.4084348E+006  0.5027394E+01  0.7546771E-02  0.2562317E+00
         21   -1    0    0  503  502  0.00000000000E+00  0.00000000000E+00  0.94047548493E-01  0.94047548493E-01  0.00000000000E+00 0. -1.
         21   -1    0    0  501  503 -0.00000000000E+00 -0.00000000000E+00 -0.28830420197E+03  0.28830420197E+03  0.00000000000E+00 0. -1.
          5    1    1    2  501    0 -0.44221931603E-01 -0.17840222740E+01 -0.18166516151E+03  0.18173471214E+03  0.47000000000E+01 0. -1.
         -5    1    1    2    0  502  0.44221931603E-01  0.17840222740E+01 -0.10654499292E+03  0.10666353738E+03  0.47000000000E+01 0. -1.
<mgrwt>
<rscale>  2 0.50273941E+01</rscale>
<asrwt>0</asrwt>
<pdfrwt beam="1">  1       21 0.14468875E-04 0.50273941E+01</pdfrwt>
<pdfrwt beam="2">  1       21 0.44354426E-01 0.50273941E+01</pdfrwt>
<totfact> 0.25962825E+09</totfact>
</mgrwt>
</event>
<event>
 4    1  0.4084348E+006  0.6578342E+01  0.7546771E-02  0.2345726E+00
         21   -1    0    0  503  502  0.00000000000E+00  0.00000000000E+00  0.54419980619E+03  0.54419980619E+03  0.00000000000E+00 0.  1.
         21   -1    0    0  501  503 -0.00000000000E+00 -0.00000000000E+00 -0.89891832837E-01  0.89891832837E-01  0.00000000000E+00 0.  1.
          5    1    1    2  501    0 -0.43961101171E+01  0.13633771983E+01  0.36449815300E+03  0.36455751004E+03  0.47000000000E+01 0.  1.
         -5    1    1    2    0  502  0.43961101171E+01 -0.13633771983E+01  0.17961176136E+03  0.17973218799E+03  0.47000000000E+01 0.  1.
<mgrwt>
<rscale>  2 0.65783419E+01</rscale>
<asrwt>0</asrwt>
<pdfrwt beam="1">  1       21 0.83720409E-01 0.65783419E+01</pdfrwt>
<pdfrwt beam="2">  1       21 0.13829949E-04 0.65783419E+01</pdfrwt>
<totfact> 0.10424255E+09</totfact>
</mgrwt>
</event>
<event>
 4    1  0.4084348E+006  0.7335861E+01  0.7546771E-02  0.2268409E+00
         21   -1    0    0  503  502  0.00000000000E+00  0.00000000000E+00  0.15950777631E+02  0.15950777631E+02  0.00000000000E+00 0. -1.
         21   -1    0    0  501  503 -0.00000000000E+00 -0.00000000000E+00 -0.33773589229E+01  0.33773589229E+01  0.00000000000E+00 0. -1.
          5    1    1    2  501    0  0.22842961858E+01  0.51484798481E+01  0.59733301029E+01  0.94602075204E+01  0.47000000000E+01 0. -1.
         -5    1    1    2    0  502 -0.22842961858E+01 -0.51484798481E+01  0.66000886050E+01  0.98679290332E+01  0.47000000000E+01 0. -1.
<mgrwt>
<rscale>  2 0.73358608E+01</rscale>
<asrwt>0</asrwt>
<pdfrwt beam="1">  1       21 0.24539658E-02 0.73358608E+01</pdfrwt>
<pdfrwt beam="2">  1       21 0.51959369E-03 0.73358608E+01</pdfrwt>
<totfact> 0.25821993E+09</totfact>
</mgrwt>
</event>
<event>
 4    1  0.4084348E+006  0.8305346E+01  0.7546771E-02  0.2186573E+00
         21   -1    0    0  503  502  0.00000000000E+00  0.00000000000E+00  0.16015035073E+02  0.16015035073E+02  0.00000000000E+00 0.  1.
         21   -1    0    0  501  503 -0.00000000000E+00 -0.00000000000E+00 -0.49581986950E+02  0.49581986950E+02  0.00000000000E+00 0. -1.
          5    1    1    2  501    0 -0.24616871096E+01  0.63897475057E+01 -0.48125044393E+02  0.48836448217E+02  0.47000000000E+01 0. -1.
         -5    1    1    2    0  502  0.24616871096E+01 -0.63897475057E+01  0.14558092516E+02  0.16760573806E+02  0.47000000000E+01 0.  1.
<mgrwt>
<rscale>  2 0.83053463E+01</rscale>
<asrwt>0</asrwt>
<pdfrwt beam="1">  1       21 0.24638515E-02 0.83053463E+01</pdfrwt>
<pdfrwt beam="2">  1       21 0.76279981E-02 0.83053463E+01</pdfrwt>
<totfact> 0.54229744E+07</totfact>
</mgrwt>
</event>
<event>
 4    1  0.4084348E+006  0.5258851E+01  0.7546771E-02  0.2523186E+00
         21   -1    0    0  501  502  0.00000000000E+00  0.00000000000E+00  0.72461978269E+00  0.72461978269E+00  0.00000000000E+00 0. -1.
         21   -1    0    0  502  503 -0.00000000000E+00 -0.00000000000E+00 -0.59844087491E+02  0.59844087491E+02  0.00000000000E+00 0.  1.
          5    1    1    2  501    0  0.14576927828E+01  0.18548969687E+01 -0.11332419005E+02  0.12493167393E+02  0.47000000000E+01 0. -1.
         -5    1    1    2    0  503 -0.14576927828E+01 -0.18548969687E+01 -0.47787048703E+02  0.48075539880E+02  0.47000000000E+01 0.  1.
<mgrwt>
<rscale>  2 0.52588507E+01</rscale>
<asrwt>0</asrwt>
<pdfrwt beam="1">  1       21 0.11147991E-03 0.52588507E+01</pdfrwt>
<pdfrwt beam="2">  1       21 0.92067871E-02 0.52588507E+01</pdfrwt>
<totfact> 0.22552977E+09</totfact>
</mgrwt>
</event>
<event>
 4    1  0.4084348E+006  0.5036548E+01  0.7546771E-02  0.2560711E+00
         21   -1    0    0  503  502  0.00000000000E+00  0.00000000000E+00  0.15001760971E+02  0.15001760971E+02  0.00000000000E+00 0. -1.
         21   -1    0    0  501  503 -0.00000000000E+00 -0.00000000000E+00 -0.18435334395E+01  0.18435334395E+01  0.00000000000E+00 0. -1.
          5    1    1    2  501    0  0.37690641674E+00  0.17705235024E+01  0.41557632188E+01  0.65297151431E+01  0.47000000000E+01 0. -1.
         -5    1    1    2    0  502 -0.37690641674E+00 -0.17705235024E+01  0.90024643132E+01  0.10315579268E+02  0.47000000000E+01 0. -1.
<mgrwt>
<rscale>  2 0.50365476E+01</rscale>
<asrwt>0</asrwt>
<pdfrwt beam="1">  1       21 0.23079631E-02 0.50365476E+01</pdfrwt>
<pdfrwt beam="2">  1       21 0.28362054E-03 0.50365476E+01</pdfrwt>
<totfact> 0.46561782E+09</totfact>
</mgrwt>
</event>
<event>
 4    1  0.4084348E+006  0.6061140E+01  0.7546771E-02  0.2407533E+00
         21   -1    0    0  503  502  0.00000000000E+00  0.00000000000E+00  0.15085361155E+03  0.15085361155E+03  0.00000000000E+00 0. -1.
         21   -1    0    0  501  503 -0.00000000000E+00 -0.00000000000E+00 -0.43049793347E+01  0.43049793347E+01  0.00000000000E+00 0.  1.
          5    1    1    2  501    0 -0.26886146688E+01 -0.27237426616E+01 -0.20787277820E+01  0.64076931977E+01  0.47000000000E+01 0.  1.
         -5    1    1    2    0  502  0.26886146688E+01  0.27237426616E+01  0.14862736000E+03  0.14875089769E+03  0.47000000000E+01 0. -1.
<mgrwt>
<rscale>  2 0.60611404E+01</rscale>
<asrwt>0</asrwt>
<pdfrwt beam="1">  1       21 0.23208244E-01 0.60611404E+01</pdfrwt>
<pdfrwt beam="2">  1       21 0.66230463E-03 0.60611404E+01</pdfrwt>
<totfact> 0.51599272E+07</totfact>
</mgrwt>
</event>
<event>
 4    1  0.4084348E+006  0.9105280E+01  0.7546771E-02  0.2129795E+00
         21   -1    0    0  503  502  0.00000000000E+00  0.00000000000E+00  0.15016116533E+03  0.15016116533E+03  0.00000000000E+00 0. -1.
         21   -1    0    0  501  503 -0.00000000000E+00 -0.00000000000E+00 -0.61565789422E+00  0.61565789422E+00  0.00000000000E+00 0.  1.
          5    1    1    2  501    0 -0.75447636058E+01 -0.19729856596E+01  0.50552946997E+02  0.51366395439E+02  0.47000000000E+01 0.  1.
         -5    1    1    2    0  502  0.75447636058E+01  0.19729856596E+01  0.98992560437E+02  0.99410427783E+02  0.47000000000E+01 0. -1.
<mgrwt>
<rscale>  2 0.91052804E+01</rscale>
<asrwt>0</asrwt>
<pdfrwt beam="1">  1       21 0.23101688E-01 0.91052804E+01</pdfrwt>
<pdfrwt beam="2">  1       21 0.94716719E-04 0.91052804E+01</pdfrwt>
<totfact> 0.97460806E+08</totfact>
</mgrwt>
</event>
<event>
 4    1  0.4084348E+006  0.5205861E+01  0.7546771E-02  0.2531881E+00
         21   -1    0    0  503  502  0.00000000000E+00  0.00000000000E+00  0.18707999849E+02  0.18707999849E+02  0.00000000000E+00 0. -1.
         21   -1    0    0  501  503 -0.00000000000E+00 -0.00000000000E+00 -0.22387650885E+01  0.22387650885E+01  0.00000000000E+00 0. -1.
          5    1    1    2  501    0  0.58103159972E+00 -0.21618017654E+01  0.20125722368E+01  0.55813467551E+01  0.47000000000E+01 0. -1.
         -5    1    1    2    0  502 -0.58103159972E+00  0.21618017654E+01  0.14456662524E+02  0.15365418182E+02  0.47000000000E+01 0. -1.
<mgrwt>
<rscale>  2 0.52058606E+01</rscale>
<asrwt>0</asrwt>
<pdfrwt beam="1">  1       21 0.28781537E-02 0.52058606E+01</pdfrwt>
<pdfrwt beam="2">  1       21 0.34442541E-03 0.52058606E+01</pdfrwt>
<totfact> 0.26955698E+09</totfact>
</mgrwt>
</event>
<event>
 4    1  0.4084348E+006  0.5787567E+01  0.7546771E-02  0.2443920E+00
         21   -1    0    0  503  502  0.00000000000E+00  0.00000000000E+00  0.19094951810E+02  0.19094951810E+02  0.00000000000E+00 0. -1.
         21   -1    0    0  501  503 -0.00000000000E+00 -0.00000000000E+00 -0.17803682754E+01  0.17803682754E+01  0.00000000000E+00 0.  1.
          5    1    1    2  501    0 -0.29661465742E+01  0.16149024943E+01  0.99232578848E+01  0.11487688306E+02  0.47000000000E+01 0. -1.
         -5    1    1    2    0  502  0.29661465742E+01 -0.16149024943E+01  0.73913256495E+01  0.93876317793E+01  0.47000000000E+01 0.  1.
<mgrwt>
<rscale>  2 0.57875673E+01</rscale>
<asrwt>0</asrwt>
<pdfrwt beam="1">  1       21 0.29376847E-02 0.57875673E+01</pdfrwt>
<pdfrwt beam="2">  1       21 0.27390283E-03 0.57875673E+01</pdfrwt>
<totfact> 0.39576778E+09</totfact>
</mgrwt>
</event>
<event>
 4    1  0.4084348E+006  0.6159790E+01  0.7546771E-02  0.2395079E+00
         21   -1    0    0  503  502  0.00000000000E+00  0.00000000000E+00  0.15692066512E+01  0.15692066512E+01  0.00000000000E+00 0. -1.
         21   -1    0    0  501  503 -0.00000000000E+00 -0.00000000000E+00 -0.24292168349E+02  0.24292168349E+02  0.00000000000E+00 0.  1.
          5    1    1    2  501    0  0.35435513534E+01 -0.18155586458E+01 -0.10481798850E+02  0.12157759519E+02  0.47000000000E+01 0. -1.
         -5    1    1    2    0  502 -0.35435513534E+01  0.18155586458E+01 -0.12241162848E+02  0.13703615481E+02  0.47000000000E+01 0. -1.
<mgrwt>
<rscale>  2 0.61597897E+01</rscale>
<asrwt>0</asrwt>
<pdfrwt beam="1">  1       21 0.24141641E-03 0.61597897E+01</pdfrwt>
<pdfrwt beam="2">  1       21 0.37372566E-02 0.61597897E+01</pdfrwt>
<totfact> 0.35011699E+09</totfact>
</mgrwt>
</event>
<event>
 4    1  0.4084348E+006  0.8518799E+01  0.7546771E-02  0.2170592E+00
         21   -1    0    0  501  502  0.00000000000E+00  0.00000000000E+00  0.22876743494E+01  0.22876743494E+01  0.00000000000E+00 0.  1.
         21   -1    0    0  502  503 -0.00000000000E+00 -0.00000000000E+00 -0.87811055397E+02  0.87811055397E+02  0.00000000000E+00 0.  1.
          5    1    1    2  501    0 -0.70271193820E+01 -0.10485871389E+01 -0.67575400362E+01  0.10873559175E+02  0.47000000000E+01 0.  1.
         -5    1    1    2    0  503  0.70271193820E+01  0.10485871389E+01 -0.78765841011E+02  0.79225170571E+02  0.47000000000E+01 0.  1.
<mgrwt>
<rscale>  2 0.85187993E+01</rscale>
<asrwt>0</asrwt>
<pdfrwt beam="1">  1       21 0.35194993E-03 0.85187993E+01</pdfrwt>
<pdfrwt beam="2">  1       21 0.13509392E-01 0.85187993E+01</pdfrwt>
<totfact> 0.36647374E+08</totfact>
</mgrwt>
</event>
<event>
 4    1  0.4084348E+006  0.6706388E+01  0.7546771E-02  0.2331653E+00
         21   -1    0    0  501  502  0.00000000000E+00  0.00000000000E+00  0.24108234577E+02  0.24108234577E+02  0.00000000000E+00 0.  1.
         21   -1    0    0  502  503 -0.00000000000E+00 -0.00000000000E+00 -0.32413320877E+01  0.32413320877E+01  0.00000000000E+00 0. -1.
          5    1    1    2  501    0  0.40286241959E+01 -0.25798899044E+01  0.19342473820E+02  0.20472101463E+02  0.47000000000E+01 0.  1.
         -5    1    1    2    0  503 -0.40286241959E+01  0.25798899044E+01  0.15244286690E+01  0.68774652014E+01  0.47000000000E+01 0. -1.
<mgrwt>
<rscale>  2 0.67063884E+01</rscale>
<asrwt>0</asrwt>
<pdfrwt beam="1">  1       21 0.37089591E-02 0.67063884E+01</pdfrwt>
<pdfrwt beam="2">  1       21 0.49866649E-03 0.67063884E+01</pdfrwt>
<totfact> 0.13920456E+09</totfact>
</mgrwt>
</event>
<event>
 4    1  0.4084348E+006  0.7825059E+01  0.7546771E-02  0.2225066E+00
         21   -1    0    0  503  502  0.00000000000E+00  0.00000000000E+00  0.71396252678E-01  0.71396252678E-01  0.00000000000E+00 0.  1.
         21   -1    0    0  501  503 -0.00000000000E+00 -0.00000000000E+00 -0.10954013587E+04  0.10954013587E+04  0.00000000000E+00 0. -1.
          5    1    1    2  501    0 -0.21911501501E+01  0.58600696922E+01 -0.80285570056E+03  0.80289383325E+03  0.47000000000E+01 0. -1.
         -5    1    1    2    0  502  0.21911501501E+01 -0.58600696922E+01 -0.29247426193E+03  0.29257892174E+03  0.47000000000E+01 0.  1.
<mgrwt>
<rscale>  2 0.78250595E+01</rscale>
<asrwt>0</asrwt>
<pdfrwt beam="1">  1       21 0.10984469E-04 0.78250595E+01</pdfrwt>
<pdfrwt beam="2">  1       21 0.16851669E+00 0.78250595E+01</pdfrwt>
<totfact> 0.35948154E+08</totfact>
</mgrwt>
</event>
<event>
 4    1  0.4084348E+006  0.7282337E+01  0.7546771E-02  0.2273437E+00
         21   -1    0    0  503  502  0.00000000000E+00  0.00000000000E+00  0.14191694178E+02  0.14191694178E+02  0.00000000000E+00 0.  1.
         21   -1    0    0  501  503 -0.00000000000E+00 -0.00000000000E+00 -0.82057139425E+01  0.82057139425E+01  0.00000000000E+00 0. -1.
          5    1    1    2  501    0 -0.30063553444E+01 -0.46801981929E+01 -0.52713366262E+01  0.89899620360E+01  0.47000000000E+01 0. -1.
         -5    1    1    2    0  502  0.30063553444E+01  0.46801981929E+01  0.11257316862E+02  0.13407446085E+02  0.47000000000E+01 0.  1.
<mgrwt>
<rscale>  2 0.72823367E+01</rscale>
<asrwt>0</asrwt>
<pdfrwt beam="1">  1       21 0.21833376E-02 0.72823367E+01</pdfrwt>
<pdfrwt beam="2">  1       21 0.12624175E-02 0.72823367E+01</pdfrwt>
<totfact> 0.86309854E+08</totfact>
</mgrwt>
</event>
<event>
 4    1  0.4084348E+006  0.5161387E+01  0.7546771E-02  0.2539296E+00
         21   -1    0    0  501  502  0.00000000000E+00  0.00000000000E+00  0.39225347150E+03  0.39225347150E+03  0.00000000000E+00 0. -1.
         21   -1    0    0  502  503 -0.00000000000E+00 -0.00000000000E+00 -0.13897065330E+00  0.13897065330E+00  0.00000000000E+00 0. -1.
          5    1    1    2  501    0 -0.18298855134E+01 -0.10961020613E+01  0.33634773098E+03  0.33638733040E+03  0.47000000000E+01 0. -1.
         -5    1    1    2    0  503  0.18298855134E+01  0.10961020613E+01  0.55766769863E+02  0.56005111746E+02  0.47000000000E+01 0. -1.
<mgrwt>
<rscale>  2 0.51613875E+01</rscale>
<asrwt>0</asrwt>
<pdfrwt beam="1">  1       21 0.60345801E-01 0.51613875E+01</pdfrwt>
<pdfrwt beam="2">  1       21 0.21380415E-04 0.51613875E+01</pdfrwt>
<totfact> 0.91282322E+08</totfact>
</mgrwt>
</event>
<event>
 4    1  0.4084348E+006  0.5623258E+01  0.7546771E-02  0.2467198E+00
         21   -1    0    0  501  502  0.00000000000E+00  0.00000000000E+00  0.54392739285E+03  0.54392739285E+03  0.00000000000E+00 0.  1.
         21   -1    0    0  502  503 -0.00000000000E+00 -0.00000000000E+00 -0.14304244488E+00  0.14304244488E+00  0.00000000000E+00 0.  1.
          5    1    1    2  501    0 -0.19427392248E+01  0.23993312138E+01  0.48148019893E+03  0.48151303512E+03  0.47000000000E+01 0.  1.
         -5    1    1    2    0  503  0.19427392248E+01 -0.23993312138E+01  0.62304151469E+02  0.62557400172E+02  0.47000000000E+01 0.  1.
<mgrwt>
<rscale>  2 0.56232576E+01</rscale>
<asrwt>0</asrwt>
<pdfrwt beam="1">  1       21 0.83679482E-01 0.56232576E+01</pdfrwt>
<pdfrwt beam="2">  1       21 0.22006965E-04 0.56232576E+01</pdfrwt>
<totfact> 0.50517730E+08</totfact>
</mgrwt>
</event>
<event>
 4    1  0.4084348E+006  0.6856856E+01  0.7546771E-02  0.2315671E+00
         21   -1    0    0  501  502  0.00000000000E+00  0.00000000000E+00  0.89502207383E+01  0.89502207383E+01  0.00000000000E+00 0. -1.
         21   -1    0    0  502  503 -0.00000000000E+00 -0.00000000000E+00 -0.53217506790E+01  0.53217506790E+01  0.00000000000E+00 0.  1.
          5    1    1    2  501    0 -0.30904436459E+01  0.39211775201E+01  0.26246812608E+01  0.73420315168E+01  0.47000000000E+01 0. -1.
         -5    1    1    2    0  503  0.30904436459E+01 -0.39211775201E+01  0.10037887985E+01  0.69299399005E+01  0.47000000000E+01 0.  1.
<mgrwt>
<rscale>  2 0.68568561E+01</rscale>
<asrwt>0</asrwt>
<pdfrwt beam="1">  1       21 0.13769570E-02 0.68568561E+01</pdfrwt>
<pdfrwt beam="2">  1       21 0.81873088E-03 0.68568561E+01</pdfrwt>
<totfact> 0.29768052E+09</totfact>
</mgrwt>
</event>
<event>
 4    1  0.4084348E+006  0.6263626E+01  0.7546771E-02  0.2382325E+00
         21   -1    0    0  501  502  0.00000000000E+00  0.00000000000E+00  0.76334356140E-01  0.76334356140E-01  0.00000000000E+00 0. -1.
         21   -1    0    0  502  503 -0.00000000000E+00 -0.00000000000E+00 -0.65398824940E+03  0.65398824940E+03  0.00000000000E+00 0.  1.
          5    1    1    2  501    0 -0.23908878862E+01 -0.33803352854E+01 -0.17563143464E+03  0.17574309046E+03  0.47000000000E+01 0. -1.
         -5    1    1    2    0  503  0.23908878862E+01  0.33803352854E+01 -0.47828048040E+03  0.47832149329E+03  0.47000000000E+01 0.  1.
<mgrwt>
<rscale>  2 0.62636261E+01</rscale>
<asrwt>0</asrwt>
<pdfrwt beam="1">  1       21 0.11743596E-04 0.62636261E+01</pdfrwt>
<pdfrwt beam="2">  1       21 0.10061487E+00 0.62636261E+01</pdfrwt>
<totfact> 0.86948089E+08</totfact>
</mgrwt>
</event>
<event>
 4    1  0.4084348E+006  0.2230539E+02  0.7546771E-02  0.1703023E+00
         21   -1    0    0  503  502  0.00000000000E+00  0.00000000000E+00  0.29100591795E+01  0.29100591795E+01  0.00000000000E+00 0. -1.
         21   -1    0    0  501  503 -0.00000000000E+00 -0.00000000000E+00 -0.32225134409E+03  0.32225134409E+03  0.00000000000E+00 0.  1.
          5    1    1    2  501    0 -0.67989121707E+01 -0.20717510832E+02 -0.27106558508E+03  0.27198176754E+03  0.47000000000E+01 0.  1.
         -5    1    1    2    0  502  0.67989121707E+01  0.20717510832E+02 -0.48275699834E+02  0.53179635729E+02  0.47000000000E+01 0. -1.
<mgrwt>
<rscale>  2 0.22305391E+02</rscale>
<asrwt>0</asrwt>
<pdfrwt beam="1">  1       21 0.44770149E-03 0.22305391E+02</pdfrwt>
<pdfrwt beam="2">  1       21 0.49577121E-01 0.22305391E+02</pdfrwt>
<totfact> 0.38212599E+07</totfact>
</mgrwt>
</event>
<event>
 4    1  0.4084348E+006  0.5959494E+01  0.7546771E-02  0.2420725E+00
         21   -1    0    0  501  502  0.00000000000E+00  0.00000000000E+00  0.19485464872E+01  0.19485464872E+01  0.00000000000E+00 0. -1.
         21   -1    0    0  502  503 -0.00000000000E+00 -0.00000000000E+00 -0.33309019872E+02  0.33309019872E+02  0.00000000000E+00 0. -1.
          5    1    1    2  501    0 -0.31693994042E+01 -0.18386085521E+01 -0.38177573180E+01  0.70774886034E+01  0.47000000000E+01 0. -1.
         -5    1    1    2    0  503  0.31693994042E+01  0.18386085521E+01 -0.27542716066E+02  0.28180077755E+02  0.47000000000E+01 0. -1.
<mgrwt>
<rscale>  2 0.59594944E+01</rscale>
<asrwt>0</asrwt>
<pdfrwt beam="1">  1       21 0.29977643E-03 0.59594944E+01</pdfrwt>
<pdfrwt beam="2">  1       21 0.51244638E-02 0.59594944E+01</pdfrwt>
<totfact> 0.15875596E+09</totfact>
</mgrwt>
</event>
<event>
 4    1  0.4084348E+006  0.5840796E+01  0.7546771E-02  0.2436616E+00
         21   -1    0    0  503  502  0.00000000000E+00  0.00000000000E+00  0.36203418066E-01  0.36203418066E-01  0.00000000000E+00 0.  1.
         21   -1    0    0  501  503 -0.00000000000E+00 -0.00000000000E+00 -0.96997536765E+03  0.96997536765E+03  0.00000000000E+00 0. -1.
          5    1    1    2  501    0  0.33505857969E+01 -0.89357390064E+00 -0.56687686390E+03  0.56690695332E+03  0.47000000000E+01 0. -1.
         -5    1    1    2    0  502 -0.33505857969E+01  0.89357390064E+00 -0.40306230033E+03  0.40310461775E+03  0.47000000000E+01 0.  1.
<mgrwt>
<rscale>  2 0.58407961E+01</rscale>
<asrwt>0</asrwt>
<pdfrwt beam="1">  1       21 0.55691410E-05 0.58407961E+01</pdfrwt>
<pdfrwt beam="2">  1       21 0.14924348E+00 0.58407961E+01</pdfrwt>
<totfact> 0.98745104E+08</totfact>
</mgrwt>
</event>
<event>
 4    1  0.4084348E+006  0.5043416E+01  0.7546771E-02  0.2559509E+00
         21   -1    0    0  501  502  0.00000000000E+00  0.00000000000E+00  0.40723585328E+04  0.40723585328E+04  0.00000000000E+00 0.  1.
         21   -1    0    0  502  503 -0.00000000000E+00 -0.00000000000E+00 -0.16627976245E-01  0.16627976245E-01  0.00000000000E+00 0.  1.
          5    1    1    2  501    0  0.13856356006E+01 -0.11941777753E+01  0.36451026694E+04  0.36451061584E+04  0.47000000000E+01 0.  1.
         -5    1    1    2    0  503 -0.13856356006E+01  0.11941777753E+01  0.42723923549E+03  0.42726900237E+03  0.47000000000E+01 0.  1.
<mgrwt>
<rscale>  2 0.50434162E+01</rscale>
<asrwt>0</asrwt>
<pdfrwt beam="1">  1       21 0.62571888E+00 0.50434162E+01</pdfrwt>
<pdfrwt beam="2">  1       21 0.25614119E-05 0.50434162E+01</pdfrwt>
<totfact> 0.98270107E+06</totfact>
</mgrwt>
</event>
<event>
 4    1  0.4084348E+006  0.5326359E+01  0.7546771E-02  0.2512322E+00
         21   -1    0    0  503  502  0.00000000000E+00  0.00000000000E+00  0.56502704623E+02  0.56502704623E+02  0.00000000000E+00 0.  1.
         21   -1    0    0  501  503 -0.00000000000E+00 -0.00000000000E+00 -0.52731123940E+00  0.52731123940E+00  0.00000000000E+00 0.  1.
          5    1    1    2  501    0 -0.24838058331E+01  0.33288696062E+00  0.21752900372E+02  0.22395508026E+02  0.47000000000E+01 0.  1.
         -5    1    1    2    0  502  0.24838058331E+01 -0.33288696062E+00  0.34222493012E+02  0.34634507836E+02  0.47000000000E+01 0.  1.
<mgrwt>
<rscale>  2 0.53263595E+01</rscale>
<asrwt>0</asrwt>
<pdfrwt beam="1">  1       21 0.86927190E-02 0.53263595E+01</pdfrwt>
<pdfrwt beam="2">  1       21 0.81124851E-04 0.53263595E+01</pdfrwt>
<totfact> 0.38039048E+09</totfact>
</mgrwt>
</event>
<event>
 4    1  0.4084348E+006  0.5690933E+01  0.7546771E-02  0.2457473E+00
         21   -1    0    0  503  502  0.00000000000E+00  0.00000000000E+00  0.21694482821E+01  0.21694482821E+01  0.00000000000E+00 0. -1.
         21   -1    0    0  501  503 -0.00000000000E+00 -0.00000000000E+00 -0.17293255111E+02  0.17293255111E+02  0.00000000000E+00 0. -1.
          5    1    1    2  501    0 -0.32042534044E+01  0.17168819804E+00 -0.11160418335E+02  0.12527635616E+02  0.47000000000E+01 0. -1.
         -5    1    1    2    0  502  0.32042534044E+01 -0.17168819804E+00 -0.39633884939E+01  0.69350677769E+01  0.47000000000E+01 0. -1.
<mgrwt>
<rscale>  2 0.56909329E+01</rscale>
<asrwt>0</asrwt>
<pdfrwt beam="1">  1       21 0.33376129E-03 0.56909329E+01</pdfrwt>
<pdfrwt beam="2">  1       21 0.26605006E-02 0.56909329E+01</pdfrwt>
<totfact> 0.34307207E+09</totfact>
</mgrwt>
</event>
<event>
 4    1  0.4084348E+006  0.6716034E+01  0.7546771E-02  0.2330611E+00
         21   -1    0    0  503  502  0.00000000000E+00  0.00000000000E+00  0.63627110235E+02  0.63627110235E+02  0.00000000000E+00 0.  1.
         21   -1    0    0  501  503 -0.00000000000E+00 -0.00000000000E+00 -0.10772495751E+01  0.10772495751E+01  0.00000000000E+00 0.  1.
          5    1    1    2  501    0  0.46350578996E+01 -0.12374777957E+01  0.12356860807E+02  0.14064036477E+02  0.47000000000E+01 0.  1.
         -5    1    1    2    0  502 -0.46350578996E+01  0.12374777957E+01  0.50192999853E+02  0.50640323333E+02  0.47000000000E+01 0.  1.
<mgrwt>
<rscale>  2 0.67160340E+01</rscale>
<asrwt>0</asrwt>
<pdfrwt beam="1">  1       21 0.97887832E-02 0.67160340E+01</pdfrwt>
<pdfrwt beam="2">  1       21 0.16573075E-03 0.67160340E+01</pdfrwt>
<totfact> 0.14764359E+09</totfact>
</mgrwt>
</event>
<event>
 4    1  0.4084348E+006  0.9124777E+01  0.7546771E-02  0.2128511E+00
         21   -1    0    0  503  502  0.00000000000E+00  0.00000000000E+00  0.79270817770E+01  0.79270817770E+01  0.00000000000E+00 0.  1.
         21   -1    0    0  501  503 -0.00000000000E+00 -0.00000000000E+00 -0.21897971235E+02  0.21897971235E+02  0.00000000000E+00 0. -1.
          5    1    1    2  501    0  0.77972985864E+01 -0.61129711472E+00 -0.17742606710E+02  0.19951482207E+02  0.47000000000E+01 0. -1.
         -5    1    1    2    0  502 -0.77972985864E+01  0.61129711472E+00  0.37717172518E+01  0.98735708047E+01  0.47000000000E+01 0.  1.
<mgrwt>
<rscale>  2 0.91247767E+01</rscale>
<asrwt>0</asrwt>
<pdfrwt beam="1">  1       21 0.12195510E-02 0.91247767E+01</pdfrwt>
<pdfrwt beam="2">  1       21 0.33689187E-02 0.91247767E+01</pdfrwt>
<totfact> 0.55298458E+08</totfact>
</mgrwt>
</event>
<event>
 4    1  0.4084348E+006  0.6731620E+01  0.7546771E-02  0.2328932E+00
         21   -1    0    0  503  502  0.00000000000E+00  0.00000000000E+00  0.73906104171E+03  0.73906104171E+03  0.00000000000E+00 0.  1.
         21   -1    0    0  501  503 -0.00000000000E+00 -0.00000000000E+00 -0.14372337374E+00  0.14372337374E+00  0.00000000000E+00 0.  1.
          5    1    1    2  501    0  0.47664749939E+01 -0.71093380544E+00  0.89586534111E+02  0.89839088401E+02  0.47000000000E+01 0.  1.
         -5    1    1    2    0  502 -0.47664749939E+01  0.71093380544E+00  0.64933078423E+03  0.64936567669E+03  0.47000000000E+01 0.  1.
<mgrwt>
<rscale>  2 0.67316202E+01</rscale>
<asrwt>0</asrwt>
<pdfrwt beam="1">  1       21 0.11369866E+00 0.67316202E+01</pdfrwt>
<pdfrwt beam="2">  1       21 0.22111880E-04 0.67316202E+01</pdfrwt>
<totfact> 0.30342356E+08</totfact>
</mgrwt>
</event>
<event>
 4    1  0.4084348E+006  0.5153572E+01  0.7546771E-02  0.2540611E+00
         21   -1    0    0  503  502  0.00000000000E+00  0.00000000000E+00  0.18020823774E+02  0.18020823774E+02  0.00000000000E+00 0. -1.
         21   -1    0    0  501  503 -0.00000000000E+00 -0.00000000000E+00 -0.78272274191E+01  0.78272274191E+01  0.00000000000E+00 0. -1.
          5    1    1    2  501    0 -0.35569460630E+00  0.20839339410E+01 -0.65470751707E+01  0.83320761287E+01  0.47000000000E+01 0. -1.
         -5    1    1    2    0  502  0.35569460630E+00 -0.20839339410E+01  0.16740671525E+02  0.17515975064E+02  0.47000000000E+01 0. -1.
<mgrwt>
<rscale>  2 0.51535715E+01</rscale>
<asrwt>0</asrwt>
<pdfrwt beam="1">  1       21 0.27724344E-02 0.51535715E+01</pdfrwt>
<pdfrwt beam="2">  1       21 0.12041888E-02 0.51535715E+01</pdfrwt>
<totfact> 0.49814466E+08</totfact>
</mgrwt>
</event>
<event>
 4    1  0.4084348E+006  0.8472928E+01  0.7546771E-02  0.2173972E+00
         21   -1    0    0  503  502  0.00000000000E+00  0.00000000000E+00  0.63373271720E+01  0.63373271720E+01  0.00000000000E+00 0.  1.
         21   -1    0    0  501  503 -0.00000000000E+00 -0.00000000000E+00 -0.24420566391E+02  0.24420566391E+02  0.00000000000E+00 0. -1.
          5    1    1    2  501    0  0.22721282530E+01 -0.66736758893E+01 -0.20302122459E+02  0.21999243010E+02  0.47000000000E+01 0. -1.
         -5    1    1    2    0  502 -0.22721282530E+01  0.66736758893E+01  0.22188832401E+01  0.87586505529E+01  0.47000000000E+01 0.  1.
<mgrwt>
<rscale>  2 0.84729285E+01</rscale>
<asrwt>0</asrwt>
<pdfrwt beam="1">  1       21 0.97497341E-03 0.84729285E+01</pdfrwt>
<pdfrwt beam="2">  1       21 0.37570102E-02 0.84729285E+01</pdfrwt>
<totfact> 0.62046638E+08</totfact>
</mgrwt>
</event>
<event>
 4    1  0.4084348E+006  0.1013647E+02  0.7546771E-02  0.2067303E+00
         21   -1    0    0  501  502  0.00000000000E+00  0.00000000000E+00  0.95736246518E+00  0.95736246518E+00  0.00000000000E+00 0.  1.
         21   -1    0    0  502  503 -0.00000000000E+00 -0.00000000000E+00 -0.15479091485E+04  0.15479091485E+04  0.00000000000E+00 0. -1.
          5    1    1    2  501    0 -0.95070538447E-01 -0.89804797734E+01 -0.26372491811E+02  0.28253431290E+02  0.47000000000E+01 0.  1.
         -5    1    1    2    0  503  0.95070538447E-01  0.89804797734E+01 -0.15205792942E+04  0.15206130797E+04  0.47000000000E+01 0. -1.
<mgrwt>
<rscale>  2 0.10136472E+02</rscale>
<asrwt>0</asrwt>
<pdfrwt beam="1">  1       21 0.14728719E-03 0.10136472E+02</pdfrwt>
<pdfrwt beam="2">  1       21 0.23813881E+00 0.10136472E+02</pdfrwt>
<totfact> 0.50822420E+06</totfact>
</mgrwt>
</event>
<event>
 4    1  0.4084348E+006  0.7072177E+01  0.7546771E-02  0.2293778E+00
         21   -1    0    0  501  502  0.00000000000E+00  0.00000000000E+00  0.12240264719E+02  0.12240264719E+02  0.00000000000E+00 0.  1.
         21   -1    0    0  502  503 -0.00000000000E+00 -0.00000000000E+00 -0.12455347885E+02  0.12455347885E+02  0.00000000000E+00 0. -1.
          5    1    1    2  501    0  0.52790111146E+01 -0.24027037710E+00  0.10014159763E+02  0.12259652685E+02  0.47000000000E+01 0.  1.
         -5    1    1    2    0  503 -0.52790111146E+01  0.24027037710E+00 -0.10229242929E+02  0.12435959919E+02  0.47000000000E+01 0. -1.
<mgrwt>
<rscale>  2 0.70721770E+01</rscale>
<asrwt>0</asrwt>
<pdfrwt beam="1">  1       21 0.18831177E-02 0.70721770E+01</pdfrwt>
<pdfrwt beam="2">  1       21 0.19162074E-02 0.70721770E+01</pdfrwt>
<totfact> 0.57419099E+08</totfact>
</mgrwt>
</event>
<event>
 4    1  0.4084348E+006  0.8250214E+01  0.7546771E-02  0.2190808E+00
         21   -1    0    0  501  502  0.00000000000E+00  0.00000000000E+00  0.76421349446E+00  0.76421349446E+00  0.00000000000E+00 0. -1.
         21   -1    0    0  502  503 -0.00000000000E+00 -0.00000000000E+00 -0.11347600823E+03  0.11347600823E+03  0.00000000000E+00 0. -1.
          5    1    1    2  501    0 -0.67155238309E+01  0.93689710019E+00 -0.82847853381E+02  0.83257629359E+02  0.47000000000E+01 0. -1.
         -5    1    1    2    0  503  0.67155238309E+01 -0.93689710019E+00 -0.29863941351E+02  0.30982592362E+02  0.47000000000E+01 0. -1.
<mgrwt>
<rscale>  2 0.82502143E+01</rscale>
<asrwt>0</asrwt>
<pdfrwt beam="1">  1       21 0.11757125E-03 0.82502143E+01</pdfrwt>
<pdfrwt beam="2">  1       21 0.17457856E-01 0.82502143E+01</pdfrwt>
<totfact> 0.10863442E+09</totfact>
</mgrwt>
</event>
<event>
 4    1  0.4084348E+006  0.6238966E+01  0.7546771E-02  0.2385322E+00
         21   -1    0    0  503  502  0.00000000000E+00  0.00000000000E+00  0.51062413460E+02  0.51062413460E+02  0.00000000000E+00 0. -1.
         21   -1    0    0  501  503 -0.00000000000E+00 -0.00000000000E+00 -0.11822282226E+01  0.11822282226E+01  0.00000000000E+00 0.  1.
          5    1    1    2  501    0 -0.38681269375E+01  0.13683155320E+01  0.93714590513E+01  0.11258283091E+02  0.47000000000E+01 0.  1.
         -5    1    1    2    0  502  0.38681269375E+01 -0.13683155320E+01  0.40508726186E+02  0.40986358592E+02  0.47000000000E+01 0. -1.
<mgrwt>
<rscale>  2 0.62389657E+01</rscale>
<asrwt>0</asrwt>
<pdfrwt beam="1">  1       21 0.78557542E-02 0.62389657E+01</pdfrwt>
<pdfrwt beam="2">  1       21 0.18188130E-03 0.62389657E+01</pdfrwt>
<totfact> 0.17197957E+09</totfact>
</mgrwt>
</event>
<event>
 4    1  0.4084348E+006  0.1067999E+02  0.7546771E-02  0.2038236E+00
         21   -1    0    0  503  502  0.00000000000E+00  0.00000000000E+00  0.26549611629E+03  0.26549611629E+03  0.00000000000E+00 0. -1.
         21   -1    0    0  501  503 -0.00000000000E+00 -0.00000000000E+00 -0.57122982120E+00  0.57122982120E+00  0.00000000000E+00 0. -1.
          5    1    1    2  501    0 -0.25884029071E+01 -0.92343085333E+01  0.66224971877E+02  0.67080617050E+02  0.47000000000E+01 0. -1.
         -5    1    1    2    0  502  0.25884029071E+01  0.92343085333E+01  0.19869991459E+03  0.19898672906E+03  0.47000000000E+01 0. -1.
<mgrwt>
<rscale>  2 0.10679995E+02</rscale>
<asrwt>0</asrwt>
<pdfrwt beam="1">  1       21 0.40845458E-01 0.10679995E+02</pdfrwt>
<pdfrwt beam="2">  1       21 0.87881723E-04 0.10679995E+02</pdfrwt>
<totfact> 0.43396874E+08</totfact>
</mgrwt>
</event>
<event>
 4    1  0.4084348E+006  0.9227909E+01  0.7546771E-02  0.2121789E+00
         21   -1    0    0  503  502  0.00000000000E+00  0.00000000000E+00  0.51052157532E+01  0.51052157532E+01  0.00000000000E+00 0. -1.
         21   -1    0    0  501  503 -0.00000000000E+00 -0.00000000000E+00 -0.20338183083E+02  0.20338183083E+02  0.00000000000E+00 0.  1.
          5    1    1    2  501    0 -0.79313133121E+01  0.39820583171E+00 -0.13011961484E+02  0.15951972932E+02  0.47000000000E+01 0.  1.
         -5    1    1    2    0  502  0.79313133121E+01 -0.39820583171E+00 -0.22210058455E+01  0.94914259047E+01  0.47000000000E+01 0. -1.
<mgrwt>
<rscale>  2 0.92279087E+01</rscale>
<asrwt>0</asrwt>
<pdfrwt beam="1">  1       21 0.78541780E-03 0.92279087E+01</pdfrwt>
<pdfrwt beam="2">  1       21 0.31289513E-02 0.92279087E+01</pdfrwt>
<totfact> 0.11741921E+09</totfact>
</mgrwt>
</event>
<event>
 4    1  0.4084348E+006  0.9562069E+01  0.7546771E-02  0.2100802E+00
         21   -1    0    0  501  502  0.00000000000E+00  0.00000000000E+00  0.74700571986E+01  0.74700571986E+01  0.00000000000E+00 0. -1.
         21   -1    0    0  502  503 -0.00000000000E+00 -0.00000000000E+00 -0.95933573196E+02  0.95933573196E+02  0.00000000000E+00 0. -1.
          5    1    1    2  501    0 -0.82505687529E+01 -0.11275072802E+01  0.40592926879E+01  0.10388022648E+02  0.47000000000E+01 0. -1.
         -5    1    1    2    0  503  0.82505687529E+01  0.11275072802E+01 -0.92522808685E+02  0.93015607746E+02  0.47000000000E+01 0. -1.
<mgrwt>
<rscale>  2 0.95620687E+01</rscale>
<asrwt>0</asrwt>
<pdfrwt beam="1">  1       21 0.11492396E-02 0.95620687E+01</pdfrwt>
<pdfrwt beam="2">  1       21 0.14759011E-01 0.95620687E+01</pdfrwt>
<totfact> 0.62173015E+07</totfact>
</mgrwt>
</event>
<event>
 4    1  0.4084348E+006  0.5791885E+01  0.7546771E-02  0.2443323E+00
         21   -1    0    0  501  502  0.00000000000E+00  0.00000000000E+00  0.36432994020E+01  0.36432994020E+01  0.00000000000E+00 0.  1.
         21   -1    0    0  502  503 -0.00000000000E+00 -0.00000000000E+00 -0.18915911935E+02  0.18915911935E+02  0.00000000000E+00 0.  1.
          5    1    1    2  501    0  0.26311872514E+01 -0.21290331532E+01  0.44446553828E+00  0.58089136793E+01  0.47000000000E+01 0.  1.
         -5    1    1    2    0  503 -0.26311872514E+01  0.21290331532E+01 -0.15717078072E+02  0.16750297658E+02  0.47000000000E+01 0.  1.
<mgrwt>
<rscale>  2 0.57918847E+01</rscale>
<asrwt>0</asrwt>
<pdfrwt beam="1">  1       21 0.56050760E-03 0.57918847E+01</pdfrwt>
<pdfrwt beam="2">  1       21 0.29101403E-02 0.57918847E+01</pdfrwt>
<totfact> 0.14958916E+09</totfact>
</mgrwt>
</event>
<event>
 4    1  0.4084348E+006  0.5073695E+01  0.7546771E-02  0.2554244E+00
         21   -1    0    0  501  502  0.00000000000E+00  0.00000000000E+00  0.23087593600E+01  0.23087593600E+01  0.00000000000E+00 0. -1.
         21   -1    0    0  502  503 -0.00000000000E+00 -0.00000000000E+00 -0.11163753807E+02  0.11163753807E+02  0.00000000000E+00 0. -1.
          5    1    1    2  501    0 -0.19060941033E+01  0.13851789749E+00 -0.41899966342E+01  0.65801560569E+01  0.47000000000E+01 0. -1.
         -5    1    1    2    0  503  0.19060941033E+01 -0.13851789749E+00 -0.46649978126E+01  0.68923571099E+01  0.47000000000E+01 0. -1.
<mgrwt>
<rscale>  2 0.50736951E+01</rscale>
<asrwt>0</asrwt>
<pdfrwt beam="1">  1       21 0.35519375E-03 0.50736951E+01</pdfrwt>
<pdfrwt beam="2">  1       21 0.17175006E-02 0.50736951E+01</pdfrwt>
<totfact> 0.52546026E+09</totfact>
</mgrwt>
</event>
<event>
 4    1  0.4084348E+006  0.7070409E+01  0.7546771E-02  0.2293953E+00
         21   -1    0    0  501  502  0.00000000000E+00  0.00000000000E+00  0.12066101480E+02  0.12066101480E+02  0.00000000000E+00 0. -1.
         21   -1    0    0  502  503 -0.00000000000E+00 -0.00000000000E+00 -0.42161730454E+01  0.42161730454E+01  0.00000000000E+00 0. -1.
          5    1    1    2  501    0 -0.36057442908E+01  0.38599609446E+01  0.49969689880E+01  0.86579668197E+01  0.47000000000E+01 0. -1.
         -5    1    1    2    0  503  0.36057442908E+01 -0.38599609446E+01  0.28529594464E+01  0.76243077054E+01  0.47000000000E+01 0. -1.
<mgrwt>
<rscale>  2 0.70704095E+01</rscale>
<asrwt>0</asrwt>
<pdfrwt beam="1">  1       21 0.18563233E-02 0.70704095E+01</pdfrwt>
<pdfrwt beam="2">  1       21 0.64864201E-03 0.70704095E+01</pdfrwt>
<totfact> 0.27562966E+09</totfact>
</mgrwt>
</event>
<event>
 4    1  0.4084348E+006  0.5343891E+01  0.7546771E-02  0.2509540E+00
         21   -1    0    0  503  502  0.00000000000E+00  0.00000000000E+00  0.48125499550E+01  0.48125499550E+01  0.00000000000E+00 0. -1.
         21   -1    0    0  501  503 -0.00000000000E+00 -0.00000000000E+00 -0.12459082678E+02  0.12459082678E+02  0.00000000000E+00 0. -1.
          5    1    1    2  501    0  0.25277109252E+01 -0.27900573994E+00 -0.10072933137E+02  0.11402681645E+02  0.47000000000E+01 0. -1.
         -5    1    1    2    0  502 -0.25277109252E+01  0.27900573994E+00  0.24264004141E+01  0.58689509875E+01  0.47000000000E+01 0. -1.
<mgrwt>
<rscale>  2 0.53438906E+01</rscale>
<asrwt>0</asrwt>
<pdfrwt beam="1">  1       21 0.74039231E-03 0.53438906E+01</pdfrwt>
<pdfrwt beam="2">  1       21 0.19167819E-02 0.53438906E+01</pdfrwt>
<totfact> 0.17220995E+09</totfact>
</mgrwt>
</event>
<event>
 4    1  0.4084348E+006  0.8440504E+01  0.7546771E-02  0.2176378E+00
         21   -1    0    0  503  502  0.00000000000E+00  0.00000000000E+00  0.16620830450E+01  0.16620830450E+01  0.00000000000E+00 0. -1.
         21   -1    0    0  501  503 -0.00000000000E+00 -0.00000000000E+00 -0.54706061776E+02  0.54706061776E+02  0.00000000000E+00 0.  1.
          5    1    1    2  501    0  0.63523460537E+01 -0.29664455705E+01 -0.39635393159E+02  0.40524147007E+02  0.47000000000E+01 0.  1.
         -5    1    1    2    0  502 -0.63523460537E+01  0.29664455705E+01 -0.13408585571E+02  0.15843997814E+02  0.47000000000E+01 0. -1.
<mgrwt>
<rscale>  2 0.84405035E+01</rscale>
<asrwt>0</asrwt>
<pdfrwt beam="1">  1       21 0.25570508E-03 0.84405035E+01</pdfrwt>
<pdfrwt beam="2">  1       21 0.84163173E-02 0.84405035E+01</pdfrwt>
<totfact> 0.12029981E+09</totfact>
</mgrwt>
</event>
<event>
 4    1  0.4084348E+006  0.5034904E+01  0.7546771E-02  0.2560999E+00
         21   -1    0    0  503  502  0.00000000000E+00  0.00000000000E+00  0.32860473441E+00  0.32860473441E+00  0.00000000000E+00 0.  1.
         21   -1    0    0  501  503 -0.00000000000E+00 -0.00000000000E+00 -0.16705635399E+03  0.16705635399E+03  0.00000000000E+00 0. -1.
          5    1    1    2  501    0  0.11432203081E+00 -0.18019970300E+01 -0.14476295009E+03  0.14485048147E+03  0.47000000000E+01 0. -1.
         -5    1    1    2    0  502 -0.11432203081E+00  0.18019970300E+01 -0.21964799165E+02  0.22534477255E+02  0.47000000000E+01 0.  1.
<mgrwt>
<rscale>  2 0.50349045E+01</rscale>
<asrwt>0</asrwt>
<pdfrwt beam="1">  1       21 0.50554488E-04 0.50349045E+01</pdfrwt>
<pdfrwt beam="2">  1       21 0.25701021E-01 0.50349045E+01</pdfrwt>
<totfact> 0.12432976E+09</totfact>
</mgrwt>
</event>
<event>
 4    1  0.4084348E+006  0.7919087E+01  0.7546771E-02  0.2217235E+00
         21   -1    0    0  501  502  0.00000000000E+00  0.00000000000E+00  0.98994193070E+02  0.98994193070E+02  0.00000000000E+00 0.  1.
         21   -1    0    0  502  503 -0.00000000000E+00 -0.00000000000E+00 -0.65929911023E+00  0.65929911023E+00  0.00000000000E+00 0. -1.
          5    1    1    2  501    0  0.62814846001E+01  0.10793002461E+01  0.59025672569E+02  0.59554529299E+02  0.47000000000E+01 0.  1.
         -5    1    1    2    0  503 -0.62814846001E+01 -0.10793002461E+01  0.39309221390E+02  0.40098962881E+02  0.47000000000E+01 0. -1.
<mgrwt>
<rscale>  2 0.79190869E+01</rscale>
<asrwt>0</asrwt>
<pdfrwt beam="1">  1       21 0.15229864E-01 0.79190869E+01</pdfrwt>
<pdfrwt beam="2">  1       21 0.10143071E-03 0.79190869E+01</pdfrwt>
<totfact> 0.16157414E+09</totfact>
</mgrwt>
</event>
<event>
 4    1  0.4084348E+006  0.4740907E+01  0.7546771E-02  0.2615276E+00
         21   -1    0    0  501  502  0.00000000000E+00  0.00000000000E+00  0.39774681701E+02  0.39774681701E+02  0.00000000000E+00 0. -1.
         21   -1    0    0  502  503 -0.00000000000E+00 -0.00000000000E+00 -0.10728544196E+02  0.10728544196E+02  0.00000000000E+00 0. -1.
          5    1    1    2  501    0  0.15953939239E+00 -0.60062361754E+00  0.39100666564E+02  0.39387032477E+02  0.47000000000E+01 0. -1.
         -5    1    1    2    0  503 -0.15953939239E+00  0.60062361754E+00 -0.10054529059E+02  0.11116193420E+02  0.47000000000E+01 0. -1.
<mgrwt>
<rscale>  2 0.47409072E+01</rscale>
<asrwt>0</asrwt>
<pdfrwt beam="1">  1       21 0.61191817E-02 0.47409072E+01</pdfrwt>
<pdfrwt beam="2">  1       21 0.16505453E-02 0.47409072E+01</pdfrwt>
<totfact> 0.94576602E+07</totfact>
</mgrwt>
</event>
<event>
 4    1  0.4084348E+006  0.5046974E+01  0.7546771E-02  0.2558888E+00
         21   -1    0    0  501  502  0.00000000000E+00  0.00000000000E+00  0.12130075698E+00  0.12130075698E+00  0.00000000000E+00 0.  1.
         21   -1    0    0  502  503 -0.00000000000E+00 -0.00000000000E+00 -0.29496842656E+03  0.29496842656E+03  0.00000000000E+00 0.  1.
          5    1    1    2  501    0 -0.91957411938E+00 -0.15925849830E+01 -0.68229846427E+02  0.68416254552E+02  0.47000000000E+01 0.  1.
         -5    1    1    2    0  503  0.91957411938E+00  0.15925849830E+01 -0.22661727937E+03  0.22667347276E+03  0.47000000000E+01 0.  1.
<mgrwt>
<rscale>  2 0.50469737E+01</rscale>
<asrwt>0</asrwt>
<pdfrwt beam="1">  1       21 0.18661612E-04 0.50469737E+01</pdfrwt>
<pdfrwt beam="2">  1       21 0.45379861E-01 0.50469737E+01</pdfrwt>
<totfact> 0.17873770E+09</totfact>
</mgrwt>
</event>
<event>
 4    1  0.4084348E+006  0.9497704E+01  0.7546771E-02  0.2104754E+00
         21   -1    0    0  503  502  0.00000000000E+00  0.00000000000E+00  0.35606766761E+02  0.35606766761E+02  0.00000000000E+00 0.  1.
         21   -1    0    0  501  503 -0.00000000000E+00 -0.00000000000E+00 -0.46863321583E+01  0.46863321583E+01  0.00000000000E+00 0. -1.
          5    1    1    2  501    0 -0.26930815058E+01  0.78015185717E+01  0.18049956254E+01  0.96676982384E+01  0.47000000000E+01 0. -1.
         -5    1    1    2    0  502  0.26930815058E+01 -0.78015185717E+01  0.29115438977E+02  0.30625400681E+02  0.47000000000E+01 0.  1.
<mgrwt>
<rscale>  2 0.94977039E+01</rscale>
<asrwt>0</asrwt>
<pdfrwt beam="1">  1       21 0.54779639E-02 0.94977039E+01</pdfrwt>
<pdfrwt beam="2">  1       21 0.72097420E-03 0.94977039E+01</pdfrwt>
<totfact> 0.57896924E+08</totfact>
</mgrwt>
</event>
<event>
 4    1  0.4084348E+006  0.5145760E+01  0.7546771E-02  0.2541928E+00
         21   -1    0    0  501  502  0.00000000000E+00  0.00000000000E+00  0.15338457497E+03  0.15338457497E+03  0.00000000000E+00 0. -1.
         21   -1    0    0  502  503 -0.00000000000E+00 -0.00000000000E+00 -0.18285511907E+00  0.18285511907E+00  0.00000000000E+00 0. -1.
          5    1    1    2  501    0  0.20051051963E+01 -0.60695517604E+00  0.58443983969E+02  0.58670078436E+02  0.47000000000E+01 0. -1.
         -5    1    1    2    0  503 -0.20051051963E+01  0.60695517604E+00  0.94757735885E+02  0.94897351657E+02  0.47000000000E+01 0. -1.
<mgrwt>
<rscale>  2 0.51457596E+01</rscale>
<asrwt>0</asrwt>
<pdfrwt beam="1">  1       21 0.23597524E-01 0.51457596E+01</pdfrwt>
<pdfrwt beam="2">  1       21 0.28131679E-04 0.51457596E+01</pdfrwt>
<totfact> 0.31695151E+09</totfact>
</mgrwt>
</event>
<event>
 4    1  0.4084348E+006  0.5198879E+01  0.7546771E-02  0.2533038E+00
         21   -1    0    0  503  502  0.00000000000E+00  0.00000000000E+00  0.79736387632E+01  0.79736387632E+01  0.00000000000E+00 0.  1.
         21   -1    0    0  501  503 -0.00000000000E+00 -0.00000000000E+00 -0.13480693521E+02  0.13480693521E+02  0.00000000000E+00 0.  1.
          5    1    1    2  501    0  0.20435212638E+00 -0.22128219396E+01 -0.12034544849E+02  0.13109485514E+02  0.47000000000E+01 0.  1.
         -5    1    1    2    0  502 -0.20435212638E+00  0.22128219396E+01  0.65274900910E+01  0.83448467701E+01  0.47000000000E+01 0.  1.
<mgrwt>
<rscale>  2 0.51988788E+01</rscale>
<asrwt>0</asrwt>
<pdfrwt beam="1">  1       21 0.12267137E-02 0.51988788E+01</pdfrwt>
<pdfrwt beam="2">  1       21 0.20739528E-02 0.51988788E+01</pdfrwt>
<totfact> 0.74067210E+08</totfact>
</mgrwt>
</event>
<event>
 4    1  0.4084348E+006  0.4744897E+01  0.7546771E-02  0.2614501E+00
         21   -1    0    0  503  502  0.00000000000E+00  0.00000000000E+00  0.20785531878E+00  0.20785531878E+00  0.00000000000E+00 0. -1.
         21   -1    0    0  501  503 -0.00000000000E+00 -0.00000000000E+00 -0.12617404992E+03  0.12617404992E+03  0.00000000000E+00 0. -1.
          5    1    1    2  501    0 -0.36092396488E+00  0.54201907716E+00 -0.86756275379E+02  0.86885933087E+02  0.47000000000E+01 0. -1.
         -5    1    1    2    0  502  0.36092396488E+00 -0.54201907716E+00 -0.39209919221E+02  0.39495972150E+02  0.47000000000E+01 0. -1.
<mgrwt>
<rscale>  2 0.47448973E+01</rscale>
<asrwt>0</asrwt>
<pdfrwt beam="1">  1       21 0.31977746E-04 0.47448973E+01</pdfrwt>
<pdfrwt beam="2">  1       21 0.19411390E-01 0.47448973E+01</pdfrwt>
<totfact> 0.33800939E+09</totfact>
</mgrwt>
</event>
<event>
 4    1  0.4084348E+006  0.8090545E+01  0.7546771E-02  0.2203333E+00
         21   -1    0    0  501  502  0.00000000000E+00  0.00000000000E+00  0.17026399808E+03  0.17026399808E+03  0.00000000000E+00 0. -1.
         21   -1    0    0  502  503 -0.00000000000E+00 -0.00000000000E+00 -0.39755654758E+00  0.39755654758E+00  0.00000000000E+00 0.  1.
          5    1    1    2  501    0  0.55724156665E+01  0.35092868844E+01  0.10043051162E+03  0.10075586621E+03  0.47000000000E+01 0. -1.
         -5    1    1    2    0  503 -0.55724156665E+01 -0.35092868844E+01  0.69435929909E+02  0.69905688417E+02  0.47000000000E+01 0.  1.
<mgrwt>
<rscale>  2 0.80905445E+01</rscale>
<asrwt>0</asrwt>
<pdfrwt beam="1">  1       21 0.26194403E-01 0.80905445E+01</pdfrwt>
<pdfrwt beam="2">  1       21 0.61162682E-04 0.80905445E+01</pdfrwt>
<totfact> 0.13324780E+09</totfact>
</mgrwt>
</event>
<event>
 4    1  0.4084348E+006  0.4875272E+01  0.7546771E-02  0.2589768E+00
         21   -1    0    0  501  502  0.00000000000E+00  0.00000000000E+00  0.60840673828E+01  0.60840673828E+01  0.00000000000E+00 0. -1.
         21   -1    0    0  502  503 -0.00000000000E+00 -0.00000000000E+00 -0.70830892739E+01  0.70830892739E+01  0.00000000000E+00 0. -1.
          5    1    1    2  501    0  0.11445073153E+01  0.60694242372E+00  0.39092996489E+01  0.62490719187E+01  0.47000000000E+01 0. -1.
         -5    1    1    2    0  503 -0.11445073153E+01 -0.60694242372E+00 -0.49083215401E+01  0.69180847379E+01  0.47000000000E+01 0. -1.
<mgrwt>
<rscale>  2 0.48752719E+01</rscale>
<asrwt>0</asrwt>
<pdfrwt beam="1">  1       21 0.93601037E-03 0.48752719E+01</pdfrwt>
<pdfrwt beam="2">  1       21 0.10897060E-02 0.48752719E+01</pdfrwt>
<totfact> 0.25136645E+09</totfact>
</mgrwt>
</event>
<event>
 4    1  0.4084348E+006  0.6466486E+01  0.7546771E-02  0.2358395E+00
         21   -1    0    0  501  502  0.00000000000E+00  0.00000000000E+00  0.75061168789E+01  0.75061168789E+01  0.00000000000E+00 0.  1.
         21   -1    0    0  502  503 -0.00000000000E+00 -0.00000000000E+00 -0.56339048697E+01  0.56339048697E+01  0.00000000000E+00 0. -1.
          5    1    1    2  501    0  0.42342506184E+01  0.13403577568E+01  0.16311736493E+01  0.66690452608E+01  0.47000000000E+01 0.  1.
         -5    1    1    2    0  503 -0.42342506184E+01 -0.13403577568E+01  0.24103835991E+00  0.64709764879E+01  0.47000000000E+01 0. -1.
<mgrwt>
<rscale>  2 0.64664857E+01</rscale>
<asrwt>0</asrwt>
<pdfrwt beam="1">  1       21 0.11547872E-02 0.64664857E+01</pdfrwt>
<pdfrwt beam="2">  1       21 0.86675459E-03 0.64664857E+01</pdfrwt>
<totfact> 0.33641133E+09</totfact>
</mgrwt>
</event>
<event>
 4    1  0.4084348E+006  0.5185389E+01  0.7546771E-02  0.2535281E+00
         21   -1    0    0  503  502  0.00000000000E+00  0.00000000000E+00  0.39955223051E+01  0.39955223051E+01  0.00000000000E+00 0.  1.
         21   -1    0    0  501  503 -0.00000000000E+00 -0.00000000000E+00 -0.65793760747E+02  0.65793760747E+02  0.00000000000E+00 0.  1.
          5    1    1    2  501    0 -0.17940149862E+01 -0.12568897589E+01 -0.63961064983E+02  0.64170913156E+02  0.47000000000E+01 0.  1.
         -5    1    1    2    0  502  0.17940149862E+01  0.12568897589E+01  0.21628265408E+01  0.56183698955E+01  0.47000000000E+01 0.  1.
<mgrwt>
<rscale>  2 0.51853892E+01</rscale>
<asrwt>0</asrwt>
<pdfrwt beam="1">  1       21 0.61469580E-03 0.51853892E+01</pdfrwt>
<pdfrwt beam="2">  1       21 0.10122116E-01 0.51853892E+01</pdfrwt>
<totfact> 0.18998329E+08</totfact>
</mgrwt>
</event>
<event>
 4    1  0.4084348E+006  0.5108141E+01  0.7546771E-02  0.2548320E+00
         21   -1    0    0  503  502  0.00000000000E+00  0.00000000000E+00  0.21507749508E+02  0.21507749508E+02  0.00000000000E+00 0. -1.
         21   -1    0    0  501  503 -0.00000000000E+00 -0.00000000000E+00 -0.16613602229E+01  0.16613602229E+01  0.00000000000E+00 0.  1.
          5    1    1    2  501    0  0.97768100505E+00 -0.17456360490E+01  0.39063850126E+01  0.64306258817E+01  0.47000000000E+01 0.  1.
         -5    1    1    2    0  502 -0.97768100505E+00  0.17456360490E+01  0.15940004272E+02  0.16738483849E+02  0.47000000000E+01 0. -1.
<mgrwt>
<rscale>  2 0.51081411E+01</rscale>
<asrwt>0</asrwt>
<pdfrwt beam="1">  1       21 0.33088843E-02 0.51081411E+01</pdfrwt>
<pdfrwt beam="2">  1       21 0.25559390E-03 0.51081411E+01</pdfrwt>
<totfact> 0.32465671E+09</totfact>
</mgrwt>
</event>
<event>
 4    1  0.4084348E+006  0.5314040E+01  0.7546771E-02  0.2514287E+00
         21   -1    0    0  501  502  0.00000000000E+00  0.00000000000E+00  0.10757055332E+01  0.10757055332E+01  0.00000000000E+00 0. -1.
         21   -1    0    0  502  503 -0.00000000000E+00 -0.00000000000E+00 -0.34648472413E+02  0.34648472413E+02  0.00000000000E+00 0. -1.
          5    1    1    2  501    0 -0.20152822668E+01 -0.14448727832E+01 -0.79931562965E+01  0.95984148459E+01  0.47000000000E+01 0. -1.
         -5    1    1    2    0  503  0.20152822668E+01  0.14448727832E+01 -0.25579610584E+02  0.26125763101E+02  0.47000000000E+01 0. -1.
<mgrwt>
<rscale>  2 0.53140399E+01</rscale>
<asrwt>0</asrwt>
<pdfrwt beam="1">  1       21 0.16549315E-03 0.53140399E+01</pdfrwt>
<pdfrwt beam="2">  1       21 0.53305344E-02 0.53140399E+01</pdfrwt>
<totfact> 0.30311066E+09</totfact>
</mgrwt>
</event>
<event>
 4    1  0.4084348E+006  0.6543285E+01  0.7546771E-02  0.2349658E+00
         21   -1    0    0  501  502  0.00000000000E+00  0.00000000000E+00  0.11381605356E+00  0.11381605356E+00  0.00000000000E+00 0.  1.
         21   -1    0    0  502  503 -0.00000000000E+00 -0.00000000000E+00 -0.55127904552E+03  0.55127904552E+03  0.00000000000E+00 0.  1.
          5    1    1    2  501    0 -0.11562614778E+01  0.44031399083E+01 -0.12020252483E+03  0.12038048661E+03  0.47000000000E+01 0.  1.
         -5    1    1    2    0  503  0.11562614778E+01 -0.44031399083E+01 -0.43096270464E+03  0.43101237497E+03  0.47000000000E+01 0.  1.
<mgrwt>
<rscale>  2 0.65432852E+01</rscale>
<asrwt>0</asrwt>
<pdfrwt beam="1">  1       21 0.17510530E-04 0.65432852E+01</pdfrwt>
<pdfrwt beam="2">  1       21 0.84810379E-01 0.65432852E+01</pdfrwt>
<totfact> 0.73882128E+08</totfact>
</mgrwt>
</event>
<event>
 4    1  0.4084348E+006  0.1202303E+02  0.7546771E-02  0.1975357E+00
         21   -1    0    0  501  502  0.00000000000E+00  0.00000000000E+00  0.10088955327E+03  0.10088955327E+03  0.00000000000E+00 0. -1.
         21   -1    0    0  502  503 -0.00000000000E+00 -0.00000000000E+00 -0.16518022197E+01  0.16518022197E+01  0.00000000000E+00 0.  1.
          5    1    1    2  501    0 -0.10287985540E+02 -0.40768371682E+01  0.68288135809E+02  0.69338465083E+02  0.47000000000E+01 0.  1.
         -5    1    1    2    0  503  0.10287985540E+02  0.40768371682E+01  0.30949615238E+02  0.33202890404E+02  0.47000000000E+01 0. -1.
<mgrwt>
<rscale>  2 0.12023030E+02</rscale>
<asrwt>0</asrwt>
<pdfrwt beam="1">  1       21 0.15521465E-01 0.12023030E+02</pdfrwt>
<pdfrwt beam="2">  1       21 0.25412350E-03 0.12023030E+02</pdfrwt>
<totfact> 0.55382210E+08</totfact>
</mgrwt>
</event>
<event>
 4    1  0.4084348E+006  0.6470495E+01  0.7546771E-02  0.2357935E+00
         21   -1    0    0  501  502  0.00000000000E+00  0.00000000000E+00  0.19587739567E+02  0.19587739567E+02  0.00000000000E+00 0. -1.
         21   -1    0    0  502  503 -0.00000000000E+00 -0.00000000000E+00 -0.24667081353E+01  0.24667081353E+01  0.00000000000E+00 0.  1.
          5    1    1    2  501    0 -0.44147125614E+01  0.53629978519E+00  0.12589473510E+02  0.14154933688E+02  0.47000000000E+01 0. -1.
         -5    1    1    2    0  503  0.44147125614E+01 -0.53629978519E+00  0.45315579217E+01  0.78995140139E+01  0.47000000000E+01 0.  1.
<mgrwt>
<rscale>  2 0.64704949E+01</rscale>
<asrwt>0</asrwt>
<pdfrwt beam="1">  1       21 0.30134983E-02 0.64704949E+01</pdfrwt>
<pdfrwt beam="2">  1       21 0.37949357E-03 0.64704949E+01</pdfrwt>
<totfact> 0.26844596E+09</totfact>
</mgrwt>
</event>
<event>
 4    1  0.4084348E+006  0.5010394E+01  0.7546771E-02  0.2565313E+00
         21   -1    0    0  503  502  0.00000000000E+00  0.00000000000E+00  0.49046012401E+01  0.49046012401E+01  0.00000000000E+00 0.  1.
         21   -1    0    0  501  503 -0.00000000000E+00 -0.00000000000E+00 -0.54258369235E+01  0.54258369235E+01  0.00000000000E+00 0.  1.
          5    1    1    2  501    0 -0.17053534127E+01 -0.32529151437E+00 -0.14899954786E+01  0.52272489282E+01  0.47000000000E+01 0.  1.
         -5    1    1    2    0  502  0.17053534127E+01  0.32529151437E+00  0.96875979515E+00  0.51031892354E+01  0.47000000000E+01 0.  1.
<mgrwt>
<rscale>  2 0.50103937E+01</rscale>
<asrwt>0</asrwt>
<pdfrwt beam="1">  1       21 0.75455404E-03 0.50103937E+01</pdfrwt>
<pdfrwt beam="2">  1       21 0.83474414E-03 0.50103937E+01</pdfrwt>
<totfact> 0.50561267E+09</totfact>
</mgrwt>
</event>
<event>
 4    1  0.4084348E+006  0.5641688E+01  0.7546771E-02  0.2464530E+00
         21   -1    0    0  501  502  0.00000000000E+00  0.00000000000E+00  0.12847433360E+03  0.12847433360E+03  0.00000000000E+00 0. -1.
         21   -1    0    0  502  503 -0.00000000000E+00 -0.00000000000E+00 -0.47666270906E+00  0.47666270906E+00  0.00000000000E+00 0. -1.
          5    1    1    2  501    0 -0.28321486108E+00  0.31078017099E+01  0.10868062140E+03  0.10882695488E+03  0.47000000000E+01 0. -1.
         -5    1    1    2    0  503  0.28321486108E+00 -0.31078017099E+01  0.19317049498E+02  0.20124041429E+02  0.47000000000E+01 0. -1.
<mgrwt>
<rscale>  2 0.56416879E+01</rscale>
<asrwt>0</asrwt>
<pdfrwt beam="1">  1       21 0.19765255E-01 0.56416879E+01</pdfrwt>
<pdfrwt beam="2">  1       21 0.73332827E-04 0.56416879E+01</pdfrwt>
<totfact> 0.12790672E+09</totfact>
</mgrwt>
</event>
<event>
 4    1  0.4084348E+006  0.6773613E+01  0.7546771E-02  0.2324440E+00
         21   -1    0    0  503  502  0.00000000000E+00  0.00000000000E+00  0.41496800312E+03  0.41496800312E+03  0.00000000000E+00 0.  1.
         21   -1    0    0  501  503 -0.00000000000E+00 -0.00000000000E+00 -0.16053053565E+00  0.16053053565E+00  0.00000000000E+00 0. -1.
          5    1    1    2  501    0 -0.48048955793E+01 -0.83953036167E+00  0.91606109863E+02  0.91856198468E+02  0.47000000000E+01 0. -1.
         -5    1    1    2    0  502  0.48048955793E+01  0.83953036167E+00  0.32320136272E+03  0.32327233519E+03  0.47000000000E+01 0.  1.
<mgrwt>
<rscale>  2 0.67736130E+01</rscale>
<asrwt>0</asrwt>
<pdfrwt beam="1">  1       21 0.63840372E-01 0.67736130E+01</pdfrwt>
<pdfrwt beam="2">  1       21 0.24697338E-04 0.67736130E+01</pdfrwt>
<totfact> 0.82542354E+08</totfact>
</mgrwt>
</event>
<event>
 4    1  0.4084348E+006  0.5205265E+01  0.7546771E-02  0.2531979E+00
         21   -1    0    0  503  502  0.00000000000E+00  0.00000000000E+00  0.99226051738E+00  0.99226051738E+00  0.00000000000E+00 0. -1.
         21   -1    0    0  501  503 -0.00000000000E+00 -0.00000000000E+00 -0.28677040313E+02  0.28677040313E+02  0.00000000000E+00 0. -1.
          5    1    1    2  501    0  0.19978488701E+01  0.10066676107E+01 -0.17085913425E+02  0.17861221049E+02  0.47000000000E+01 0. -1.
         -5    1    1    2    0  502 -0.19978488701E+01 -0.10066676107E+01 -0.10598866370E+02  0.11808079781E+02  0.47000000000E+01 0. -1.
<mgrwt>
<rscale>  2 0.52052646E+01</rscale>
<asrwt>0</asrwt>
<pdfrwt beam="1">  1       21 0.15265546E-03 0.52052646E+01</pdfrwt>
<pdfrwt beam="2">  1       21 0.44118524E-02 0.52052646E+01</pdfrwt>
<totfact> 0.43672206E+09</totfact>
</mgrwt>
</event>
<event>
 4    1  0.4084348E+006  0.9096534E+01  0.7546771E-02  0.2130372E+00
         21   -1    0    0  503  502  0.00000000000E+00  0.00000000000E+00  0.59224556090E+01  0.59224556090E+01  0.00000000000E+00 0.  1.
         21   -1    0    0  501  503 -0.00000000000E+00 -0.00000000000E+00 -0.55126848261E+02  0.55126848261E+02  0.00000000000E+00 0.  1.
          5    1    1    2  501    0 -0.59218460348E+01  0.50585251196E+01 -0.50976504599E+02  0.51781762793E+02  0.47000000000E+01 0.  1.
         -5    1    1    2    0  502  0.59218460348E+01 -0.50585251196E+01  0.17721119475E+01  0.92675410762E+01  0.47000000000E+01 0.  1.
<mgrwt>
<rscale>  2 0.90965343E+01</rscale>
<asrwt>0</asrwt>
<pdfrwt beam="1">  1       21 0.91114702E-03 0.90965343E+01</pdfrwt>
<pdfrwt beam="2">  1       21 0.84810536E-02 0.90965343E+01</pdfrwt>
<totfact> 0.20519049E+08</totfact>
</mgrwt>
</event>
<event>
 4    1  0.4084348E+006  0.5148617E+01  0.7546771E-02  0.2541446E+00
         21   -1    0    0  501  502  0.00000000000E+00  0.00000000000E+00  0.92123362310E+02  0.92123362310E+02  0.00000000000E+00 0. -1.
         21   -1    0    0  502  503 -0.00000000000E+00 -0.00000000000E+00 -0.35537182736E+00  0.35537182736E+00  0.00000000000E+00 0. -1.
          5    1    1    2  501    0  0.20695875228E+01  0.36750595890E+00  0.66054759421E+02  0.66255109201E+02  0.47000000000E+01 0. -1.
         -5    1    1    2    0  503 -0.20695875228E+01 -0.36750595890E+00  0.25713231062E+02  0.26223624936E+02  0.47000000000E+01 0. -1.
<mgrwt>
<rscale>  2 0.51486166E+01</rscale>
<asrwt>0</asrwt>
<pdfrwt beam="1">  1       21 0.14172806E-01 0.51486166E+01</pdfrwt>
<pdfrwt beam="2">  1       21 0.54672662E-04 0.51486166E+01</pdfrwt>
<totfact> 0.29452971E+09</totfact>
</mgrwt>
</event>
<event>
 4    1  0.4084348E+006  0.6067293E+01  0.7546771E-02  0.2406747E+00
         21   -1    0    0  503  502  0.00000000000E+00  0.00000000000E+00  0.10400151119E+02  0.10400151119E+02  0.00000000000E+00 0. -1.
         21   -1    0    0  501  503 -0.00000000000E+00 -0.00000000000E+00 -0.12957794426E+02  0.12957794426E+02  0.00000000000E+00 0. -1.
          5    1    1    2  501    0 -0.70188686294E+00 -0.37721868980E+01 -0.11235710829E+02  0.12769230086E+02  0.47000000000E+01 0. -1.
         -5    1    1    2    0  502  0.70188686294E+00  0.37721868980E+01  0.86780675220E+01  0.10588715459E+02  0.47000000000E+01 0. -1.
<mgrwt>
<rscale>  2 0.60672926E+01</rscale>
<asrwt>0</asrwt>
<pdfrwt beam="1">  1       21 0.16000233E-02 0.60672926E+01</pdfrwt>
<pdfrwt beam="2">  1       21 0.19935068E-02 0.60672926E+01</pdfrwt>
<totfact> 0.61214793E+08</totfact>
</mgrwt>
</event>
<event>
 4    1  0.4084348E+006  0.7207037E+01  0.7546771E-02  0.2280614E+00
         21   -1    0    0  503  502  0.00000000000E+00  0.00000000000E+00  0.51500040740E+00  0.51500040740E+00  0.00000000000E+00 0.  1.
         21   -1    0    0  501  503 -0.00000000000E+00 -0.00000000000E+00 -0.11084958061E+03  0.11084958061E+03  0.00000000000E+00 0. -1.
          5    1    1    2  501    0  0.54461683815E+01  0.43661171297E+00 -0.71885492584E+02  0.72245867867E+02  0.47000000000E+01 0.  1.
         -5    1    1    2    0  502 -0.54461683815E+01 -0.43661171297E+00 -0.38449087615E+02  0.39118713147E+02  0.47000000000E+01 0.  1.
<mgrwt>
<rscale>  2 0.72070368E+01</rscale>
<asrwt>0</asrwt>
<pdfrwt beam="1">  1       21 0.79230917E-04 0.72070368E+01</pdfrwt>
<pdfrwt beam="2">  1       21 0.17053763E-01 0.72070368E+01</pdfrwt>
<totfact> 0.17636387E+09</totfact>
</mgrwt>
</event>
<event>
 4    1  0.4084348E+006  0.5902421E+01  0.7546771E-02  0.2428299E+00
         21   -1    0    0  501  502  0.00000000000E+00  0.00000000000E+00  0.29464663847E+02  0.29464663847E+02  0.00000000000E+00 0. -1.
         21   -1    0    0  502  503 -0.00000000000E+00 -0.00000000000E+00 -0.13301907049E+01  0.13301907049E+01  0.00000000000E+00 0.  1.
          5    1    1    2  501    0 -0.34968011005E+01  0.72177233282E+00  0.19199831276E+02  0.20086614803E+02  0.47000000000E+01 0. -1.
         -5    1    1    2    0  503  0.34968011005E+01 -0.72177233282E+00  0.89346418669E+01  0.10708239749E+02  0.47000000000E+01 0.  1.
<mgrwt>
<rscale>  2 0.59024210E+01</rscale>
<asrwt>0</asrwt>
<pdfrwt beam="1">  1       21 0.45330247E-02 0.59024210E+01</pdfrwt>
<pdfrwt beam="2">  1       21 0.20464475E-03 0.59024210E+01</pdfrwt>
<totfact> 0.31803631E+09</totfact>
</mgrwt>
</event>
<event>
 4    1  0.4084348E+006  0.5928933E+01  0.7546771E-02  0.2424766E+00
         21   -1    0    0  503  502  0.00000000000E+00  0.00000000000E+00  0.43144629419E+01  0.43144629419E+01  0.00000000000E+00 0.  1.
         21   -1    0    0  501  503 -0.00000000000E+00 -0.00000000000E+00 -0.15216461005E+02  0.15216461005E+02  0.00000000000E+00 0.  1.
          5    1    1    2  501    0  0.18063742277E+01  0.31303761066E+01 -0.12106988860E+02  0.13480779714E+02  0.47000000000E+01 0.  1.
         -5    1    1    2    0  502 -0.18063742277E+01 -0.31303761066E+01  0.12049907976E+01  0.60501442331E+01  0.47000000000E+01 0.  1.
<mgrwt>
<rscale>  2 0.59289327E+01</rscale>
<asrwt>0</asrwt>
<pdfrwt beam="1">  1       21 0.66376353E-03 0.59289327E+01</pdfrwt>
<pdfrwt beam="2">  1       21 0.23409940E-02 0.59289327E+01</pdfrwt>
<totfact> 0.16514740E+09</totfact>
</mgrwt>
</event>
<event>
 4    1  0.4084348E+006  0.5959502E+01  0.7546771E-02  0.2420724E+00
         21   -1    0    0  503  502  0.00000000000E+00  0.00000000000E+00  0.25046416776E+03  0.25046416776E+03  0.00000000000E+00 0. -1.
         21   -1    0    0  501  503 -0.00000000000E+00 -0.00000000000E+00 -0.15905740380E+00  0.15905740380E+00  0.00000000000E+00 0. -1.
          5    1    1    2  501    0  0.44045900566E+00  0.36375355279E+01  0.83875410553E+02  0.84086860830E+02  0.47000000000E+01 0. -1.
         -5    1    1    2    0  502 -0.44045900566E+00 -0.36375355279E+01  0.16642969980E+03  0.16653636433E+03  0.47000000000E+01 0. -1.
<mgrwt>
<rscale>  2 0.59595024E+01</rscale>
<asrwt>0</asrwt>
<pdfrwt beam="1">  1       21 0.38532633E-01 0.59595024E+01</pdfrwt>
<pdfrwt beam="2">  1       21 0.24470570E-04 0.59595024E+01</pdfrwt>
<totfact> 0.19010303E+09</totfact>
</mgrwt>
</event>
<event>
 4    1  0.4084348E+006  0.5017563E+01  0.7546771E-02  0.2564048E+00
         21   -1    0    0  501  502  0.00000000000E+00  0.00000000000E+00  0.27268778772E+00  0.27268778772E+00  0.00000000000E+00 0. -1.
         21   -1    0    0  502  503 -0.00000000000E+00 -0.00000000000E+00 -0.10294768539E+03  0.10294768539E+03  0.00000000000E+00 0. -1.
          5    1    1    2  501    0 -0.85574932660E+00  0.15341534810E+01 -0.34759131372E+02  0.35119412688E+02  0.47000000000E+01 0. -1.
         -5    1    1    2    0  503  0.85574932660E+00 -0.15341534810E+01 -0.67915866227E+02  0.68100960486E+02  0.47000000000E+01 0. -1.
<mgrwt>
<rscale>  2 0.50175625E+01</rscale>
<asrwt>0</asrwt>
<pdfrwt beam="1">  1       21 0.41951967E-04 0.50175625E+01</pdfrwt>
<pdfrwt beam="2">  1       21 0.15838106E-01 0.50175625E+01</pdfrwt>
<totfact> 0.34331724E+09</totfact>
</mgrwt>
</event>
<event>
 4    1  0.4084348E+006  0.5487291E+01  0.7546771E-02  0.2487348E+00
         21   -1    0    0  501  502  0.00000000000E+00  0.00000000000E+00  0.11011717552E+02  0.11011717552E+02  0.00000000000E+00 0. -1.
         21   -1    0    0  502  503 -0.00000000000E+00 -0.00000000000E+00 -0.10473033003E+02  0.10473033003E+02  0.00000000000E+00 0. -1.
          5    1    1    2  501    0 -0.14564870150E+01 -0.24287875919E+01  0.95034812294E+01  0.10973901725E+02  0.47000000000E+01 0. -1.
         -5    1    1    2    0  503  0.14564870150E+01  0.24287875919E+01 -0.89647966804E+01  0.10510848829E+02  0.47000000000E+01 0. -1.
<mgrwt>
<rscale>  2 0.54872911E+01</rscale>
<asrwt>0</asrwt>
<pdfrwt beam="1">  1       21 0.16941104E-02 0.54872911E+01</pdfrwt>
<pdfrwt beam="2">  1       21 0.16112358E-02 0.54872911E+01</pdfrwt>
<totfact> 0.70510766E+08</totfact>
</mgrwt>
</event>
<event>
 4    1  0.4084348E+006  0.4747841E+01  0.7546771E-02  0.2613930E+00
         21   -1    0    0  503  502  0.00000000000E+00  0.00000000000E+00  0.28420897705E+03  0.28420897705E+03  0.00000000000E+00 0. -1.
         21   -1    0    0  501  503 -0.00000000000E+00 -0.00000000000E+00 -0.17791739897E+00  0.17791739897E+00  0.00000000000E+00 0. -1.
          5    1    1    2  501    0  0.28111274395E+00  0.61071042157E+00  0.36159780752E+02  0.36470148555E+02  0.47000000000E+01 0. -1.
         -5    1    1    2    0  502 -0.28111274395E+00 -0.61071042157E+00  0.24787127889E+03  0.24791674589E+03  0.47000000000E+01 0. -1.
<mgrwt>
<rscale>  2 0.47478407E+01</rscale>
<asrwt>0</asrwt>
<pdfrwt beam="1">  1       21 0.43724095E-01 0.47478407E+01</pdfrwt>
<pdfrwt beam="2">  1       21 0.27372135E-04 0.47478407E+01</pdfrwt>
<totfact> 0.10885103E+09</totfact>
</mgrwt>
</event>
<event>
 4    1  0.4084348E+006  0.7237019E+01  0.7546771E-02  0.2277742E+00
         21   -1    0    0  503  502  0.00000000000E+00  0.00000000000E+00  0.13825366491E+03  0.13825366491E+03  0.00000000000E+00 0.  1.
         21   -1    0    0  501  503 -0.00000000000E+00 -0.00000000000E+00 -0.73299502355E+01  0.73299502355E+01  0.00000000000E+00 0.  1.
          5    1    1    2  501    0 -0.59002746209E+00  0.54714085481E+01 -0.54239735996E+01  0.90439998626E+01  0.47000000000E+01 0.  1.
         -5    1    1    2    0  502  0.59002746209E+00 -0.54714085481E+01  0.13634768827E+03  0.13653961528E+03  0.47000000000E+01 0.  1.
<mgrwt>
<rscale>  2 0.72370190E+01</rscale>
<asrwt>0</asrwt>
<pdfrwt beam="1">  1       21 0.21269793E-01 0.72370190E+01</pdfrwt>
<pdfrwt beam="2">  1       21 0.11276848E-02 0.72370190E+01</pdfrwt>
<totfact> 0.30849577E+07</totfact>
</mgrwt>
</event>
<event>
 4    1  0.4084348E+006  0.1090420E+02  0.7546771E-02  0.2026908E+00
         21   -1    0    0  501  502  0.00000000000E+00  0.00000000000E+00  0.29739376544E+01  0.29739376544E+01  0.00000000000E+00 0. -1.
         21   -1    0    0  502  503 -0.00000000000E+00 -0.00000000000E+00 -0.71258127198E+02  0.71258127198E+02  0.00000000000E+00 0.  1.
          5    1    1    2  501    0  0.92237347470E+01  0.34255475971E+01 -0.95522245727E+01  0.14496435883E+02  0.47000000000E+01 0. -1.
         -5    1    1    2    0  503 -0.92237347470E+01 -0.34255475971E+01 -0.58731964971E+02  0.59735628970E+02  0.47000000000E+01 0.  1.
<mgrwt>
<rscale>  2 0.10904204E+02</rscale>
<asrwt>0</asrwt>
<pdfrwt beam="1">  1       21 0.45752886E-03 0.10904204E+02</pdfrwt>
<pdfrwt beam="2">  1       21 0.10962789E-01 0.10904204E+02</pdfrwt>
<totfact> 0.40296835E+08</totfact>
</mgrwt>
</event>
<event>
 4    1  0.4084348E+006  0.4979980E+01  0.7546771E-02  0.2570718E+00
         21   -1    0    0  501  502  0.00000000000E+00  0.00000000000E+00  0.92762564381E+01  0.92762564381E+01  0.00000000000E+00 0.  1.
         21   -1    0    0  502  503 -0.00000000000E+00 -0.00000000000E+00 -0.53026730122E+01  0.53026730122E+01  0.00000000000E+00 0.  1.
          5    1    1    2  501    0 -0.79407333388E+00  0.14420981811E+01  0.71196190809E+01  0.86884506950E+01  0.47000000000E+01 0.  1.
         -5    1    1    2    0  503  0.79407333388E+00 -0.14420981811E+01 -0.31460356550E+01  0.58904787552E+01  0.47000000000E+01 0.  1.
<mgrwt>
<rscale>  2 0.49799799E+01</rscale>
<asrwt>0</asrwt>
<pdfrwt beam="1">  1       21 0.14271164E-02 0.49799799E+01</pdfrwt>
<pdfrwt beam="2">  1       21 0.81579585E-03 0.49799799E+01</pdfrwt>
<totfact> 0.21312379E+09</totfact>
</mgrwt>
</event>
<event>
 4    1  0.4084348E+006  0.5496623E+01  0.7546771E-02  0.2485938E+00
         21   -1    0    0  503  502  0.00000000000E+00  0.00000000000E+00  0.45927011422E+02  0.45927011422E+02  0.00000000000E+00 0. -1.
         21   -1    0    0  501  503 -0.00000000000E+00 -0.00000000000E+00 -0.19390507874E+01  0.19390507874E+01  0.00000000000E+00 0. -1.
          5    1    1    2  501    0 -0.21997444632E+01  0.18121774404E+01  0.25398182437E+01  0.60550424846E+01  0.47000000000E+01 0. -1.
         -5    1    1    2    0  502  0.21997444632E+01 -0.18121774404E+01  0.41448142391E+02  0.41811019725E+02  0.47000000000E+01 0. -1.
<mgrwt>
<rscale>  2 0.54966229E+01</rscale>
<asrwt>0</asrwt>
<pdfrwt beam="1">  1       21 0.70656932E-02 0.54966229E+01</pdfrwt>
<pdfrwt beam="2">  1       21 0.29831554E-03 0.54966229E+01</pdfrwt>
<totfact> 0.92575084E+08</totfact>
</mgrwt>
</event>
<event>
 4    1  0.4084348E+006  0.4925670E+01  0.7546771E-02  0.2580511E+00
         21   -1    0    0  501  502  0.00000000000E+00  0.00000000000E+00  0.16918598289E+02  0.16918598289E+02  0.00000000000E+00 0.  1.
         21   -1    0    0  502  503 -0.00000000000E+00 -0.00000000000E+00 -0.21672278837E+01  0.21672278837E+01  0.00000000000E+00 0.  1.
          5    1    1    2  501    0 -0.14107235153E+01  0.42671329872E+00  0.12926176742E+02  0.13832869198E+02  0.47000000000E+01 0.  1.
         -5    1    1    2    0  503  0.14107235153E+01 -0.42671329872E+00  0.18251936637E+01  0.52529569755E+01  0.47000000000E+01 0.  1.
<mgrwt>
<rscale>  2 0.49256700E+01</rscale>
<asrwt>0</asrwt>
<pdfrwt beam="1">  1       21 0.26028612E-02 0.49256700E+01</pdfrwt>
<pdfrwt beam="2">  1       21 0.33341968E-03 0.49256700E+01</pdfrwt>
<totfact> 0.30765495E+09</totfact>
</mgrwt>
</event>
<event>
 4    1  0.4084348E+006  0.6052458E+01  0.7546771E-02  0.2408646E+00
         21   -1    0    0  503  502  0.00000000000E+00  0.00000000000E+00  0.30395126222E+02  0.30395126222E+02  0.00000000000E+00 0. -1.
         21   -1    0    0  501  503 -0.00000000000E+00 -0.00000000000E+00 -0.12093371386E+01  0.12093371386E+01  0.00000000000E+00 0.  1.
          5    1    1    2  501    0  0.36945668501E+01  0.94467899549E+00  0.15517021717E+02  0.16655635850E+02  0.47000000000E+01 0. -1.
         -5    1    1    2    0  502 -0.36945668501E+01 -0.94467899549E+00  0.13668767367E+02  0.14948827511E+02  0.47000000000E+01 0.  1.
<mgrwt>
<rscale>  2 0.60524576E+01</rscale>
<asrwt>0</asrwt>
<pdfrwt beam="1">  1       21 0.46761727E-02 0.60524576E+01</pdfrwt>
<pdfrwt beam="2">  1       21 0.18605189E-03 0.60524576E+01</pdfrwt>
<totfact> 0.35352208E+09</totfact>
</mgrwt>
</event>
<event>
 4    1  0.4084348E+006  0.6901723E+01  0.7546771E-02  0.2311017E+00
         21   -1    0    0  503  502  0.00000000000E+00  0.00000000000E+00  0.52758476390E+02  0.52758476390E+02  0.00000000000E+00 0. -1.
         21   -1    0    0  501  503 -0.00000000000E+00 -0.00000000000E+00 -0.10467403089E+01  0.10467403089E+01  0.00000000000E+00 0. -1.
          5    1    1    2  501    0 -0.50193653710E+01 -0.59140327635E+00  0.15881901367E+02  0.17316713822E+02  0.47000000000E+01 0. -1.
         -5    1    1    2    0  502  0.50193653710E+01  0.59140327635E+00  0.35829834714E+02  0.36488502877E+02  0.47000000000E+01 0. -1.
<mgrwt>
<rscale>  2 0.69017234E+01</rscale>
<asrwt>0</asrwt>
<pdfrwt beam="1">  1       21 0.81166866E-02 0.69017234E+01</pdfrwt>
<pdfrwt beam="2">  1       21 0.16103701E-03 0.69017234E+01</pdfrwt>
<totfact> 0.20909930E+09</totfact>
</mgrwt>
</event>
<event>
 4    1  0.4084348E+006  0.4924124E+01  0.7546771E-02  0.2580793E+00
         21   -1    0    0  503  502  0.00000000000E+00  0.00000000000E+00  0.28734592356E-01  0.28734592356E-01  0.00000000000E+00 0.  1.
         21   -1    0    0  501  503 -0.00000000000E+00 -0.00000000000E+00 -0.88111192182E+03  0.88111192182E+03  0.00000000000E+00 0.  1.
          5    1    1    2  501    0 -0.86817784400E+00  0.11845941741E+01 -0.53117162886E+03  0.53119445244E+03  0.47000000000E+01 0.  1.
         -5    1    1    2    0  502  0.86817784400E+00 -0.11845941741E+01 -0.34991155836E+03  0.34994620397E+03  0.47000000000E+01 0.  1.
<mgrwt>
<rscale>  2 0.49241239E+01</rscale>
<asrwt>0</asrwt>
<pdfrwt beam="1">  1       21 0.44211830E-05 0.49241239E+01</pdfrwt>
<pdfrwt beam="2">  1       21 0.13554107E+00 0.49241239E+01</pdfrwt>
<totfact> 0.14671209E+09</totfact>
</mgrwt>
</event>
<event>
 4    1  0.4084348E+006  0.6308790E+01  0.7546771E-02  0.2376887E+00
         21   -1    0    0  503  502  0.00000000000E+00  0.00000000000E+00  0.19247194103E+01  0.19247194103E+01  0.00000000000E+00 0.  1.
         21   -1    0    0  501  503 -0.00000000000E+00 -0.00000000000E+00 -0.20855355637E+02  0.20855355637E+02  0.00000000000E+00 0. -1.
          5    1    1    2  501    0  0.17292107488E+01  0.38367507623E+01 -0.10513402990E+02  0.12261014177E+02  0.47000000000E+01 0.  1.
         -5    1    1    2    0  502 -0.17292107488E+01 -0.38367507623E+01 -0.84172332366E+01  0.10519060870E+02  0.47000000000E+01 0.  1.
<mgrwt>
<rscale>  2 0.63087896E+01</rscale>
<asrwt>0</asrwt>
<pdfrwt beam="1">  1       21 0.29611069E-03 0.63087896E+01</pdfrwt>
<pdfrwt beam="2">  1       21 0.32085161E-02 0.63087896E+01</pdfrwt>
<totfact> 0.33771152E+09</totfact>
</mgrwt>
</event>
<event>
 4    1  0.4084348E+006  0.1045092E+02  0.7546771E-02  0.2050198E+00
         21   -1    0    0  503  502  0.00000000000E+00  0.00000000000E+00  0.50510209354E+01  0.50510209354E+01  0.00000000000E+00 0.  1.
         21   -1    0    0  501  503 -0.00000000000E+00 -0.00000000000E+00 -0.43177159784E+02  0.43177159784E+02  0.00000000000E+00 0. -1.
          5    1    1    2  501    0 -0.76198409732E+01 -0.53916426057E+01 -0.36100429235E+02  0.37582745741E+02  0.47000000000E+01 0. -1.
         -5    1    1    2    0  502  0.76198409732E+01  0.53916426057E+01 -0.20257096132E+01  0.10645434978E+02  0.47000000000E+01 0.  1.
<mgrwt>
<rscale>  2 0.10450923E+02</rscale>
<asrwt>0</asrwt>
<pdfrwt beam="1">  1       21 0.77708015E-03 0.10450923E+02</pdfrwt>
<pdfrwt beam="2">  1       21 0.66426399E-02 0.10450923E+02</pdfrwt>
<totfact> 0.40630168E+08</totfact>
</mgrwt>
</event>
<event>
 4    1  0.4084348E+006  0.7282792E+01  0.7546771E-02  0.2273394E+00
         21   -1    0    0  503  502  0.00000000000E+00  0.00000000000E+00  0.58759654846E+02  0.58759654846E+02  0.00000000000E+00 0. -1.
         21   -1    0    0  501  503 -0.00000000000E+00 -0.00000000000E+00 -0.91290070603E+00  0.91290070603E+00  0.00000000000E+00 0.  1.
          5    1    1    2  501    0 -0.40622977364E+00  0.55483367131E+01  0.32085888710E+02  0.32902026035E+02  0.47000000000E+01 0.  1.
         -5    1    1    2    0  502  0.40622977364E+00 -0.55483367131E+01  0.25760865430E+02  0.26770529517E+02  0.47000000000E+01 0.  1.
<mgrwt>
<rscale>  2 0.72827922E+01</rscale>
<asrwt>0</asrwt>
<pdfrwt beam="1">  1       21 0.90399439E-02 0.72827922E+01</pdfrwt>
<pdfrwt beam="2">  1       21 0.14044631E-03 0.72827922E+01</pdfrwt>
<totfact> 0.22231709E+09</totfact>
</mgrwt>
</event>
<event>
 4    1  0.4084348E+006  0.8934588E+01  0.7546771E-02  0.2141228E+00
         21   -1    0    0  503  502  0.00000000000E+00  0.00000000000E+00  0.70731883052E+02  0.70731883052E+02  0.00000000000E+00 0. -1.
         21   -1    0    0  501  503 -0.00000000000E+00 -0.00000000000E+00 -0.24119221381E+01  0.24119221381E+01  0.00000000000E+00 0.  1.
          5    1    1    2  501    0 -0.33654673630E+01  0.68125250338E+01  0.74830122311E+01  0.11654284189E+02  0.47000000000E+01 0.  1.
         -5    1    1    2    0  502  0.33654673630E+01 -0.68125250338E+01  0.60836948683E+02  0.61489521001E+02  0.47000000000E+01 0. -1.
<mgrwt>
<rscale>  2 0.89345883E+01</rscale>
<asrwt>0</asrwt>
<pdfrwt beam="1">  1       21 0.10881827E-01 0.89345883E+01</pdfrwt>
<pdfrwt beam="2">  1       21 0.37106500E-03 0.89345883E+01</pdfrwt>
<totfact> 0.49357014E+08</totfact>
</mgrwt>
</event>
<event>
 4    1  0.4084348E+006  0.5092556E+01  0.7546771E-02  0.2550992E+00
         21   -1    0    0  503  502  0.00000000000E+00  0.00000000000E+00  0.32885979591E+00  0.32885979591E+00  0.00000000000E+00 0. -1.
         21   -1    0    0  501  503 -0.00000000000E+00 -0.00000000000E+00 -0.14392527906E+03  0.14392527906E+03  0.00000000000E+00 0. -1.
          5    1    1    2  501    0  0.12303788832E+01 -0.15265286829E+01 -0.12029376919E+03  0.12040151588E+03  0.47000000000E+01 0. -1.
         -5    1    1    2    0  502 -0.12303788832E+01  0.15265286829E+01 -0.23302650081E+02  0.23852622976E+02  0.47000000000E+01 0. -1.
<mgrwt>
<rscale>  2 0.50925555E+01</rscale>
<asrwt>0</asrwt>
<pdfrwt beam="1">  1       21 0.50593834E-04 0.50925555E+01</pdfrwt>
<pdfrwt beam="2">  1       21 0.22142342E-01 0.50925555E+01</pdfrwt>
<totfact> 0.15975019E+09</totfact>
</mgrwt>
</event>
<event>
 4    1  0.4084348E+006  0.4797942E+01  0.7546771E-02  0.2604297E+00
         21   -1    0    0  503  502  0.00000000000E+00  0.00000000000E+00  0.39522687068E+01  0.39522687068E+01  0.00000000000E+00 0.  1.
         21   -1    0    0  501  503 -0.00000000000E+00 -0.00000000000E+00 -0.58471108561E+01  0.58471108561E+01  0.00000000000E+00 0.  1.
          5    1    1    2  501    0 -0.40110886333E+00 -0.87713295707E+00 -0.12516637710E+01  0.49585192084E+01  0.47000000000E+01 0.  1.
         -5    1    1    2    0  502  0.40110886333E+00  0.87713295707E+00 -0.64317837827E+00  0.48408603544E+01  0.47000000000E+01 0.  1.
<mgrwt>
<rscale>  2 0.47979423E+01</rscale>
<asrwt>0</asrwt>
<pdfrwt beam="1">  1       21 0.60804134E-03 0.47979423E+01</pdfrwt>
<pdfrwt beam="2">  1       21 0.89955551E-03 0.47979423E+01</pdfrwt>
<totfact> 0.58584542E+09</totfact>
</mgrwt>
</event>
<event>
 4    1  0.4084348E+006  0.6946668E+01  0.7546771E-02  0.2306404E+00
         21   -1    0    0  501  502  0.00000000000E+00  0.00000000000E+00  0.12154019841E+03  0.12154019841E+03  0.00000000000E+00 0.  1.
         21   -1    0    0  502  503 -0.00000000000E+00 -0.00000000000E+00 -0.42824465190E+01  0.42824465190E+01  0.00000000000E+00 0.  1.
          5    1    1    2  501    0  0.50903019126E+01 -0.50499646431E+00  0.11855292219E+03  0.11875626954E+03  0.47000000000E+01 0.  1.
         -5    1    1    2    0  503 -0.50903019126E+01  0.50499646431E+00 -0.12951703026E+01  0.70663753865E+01  0.47000000000E+01 0.  1.
<mgrwt>
<rscale>  2 0.69466679E+01</rscale>
<asrwt>0</asrwt>
<pdfrwt beam="1">  1       21 0.18698489E-01 0.69466679E+01</pdfrwt>
<pdfrwt beam="2">  1       21 0.65883802E-03 0.69466679E+01</pdfrwt>
<totfact> 0.79974740E+07</totfact>
</mgrwt>
</event>
<event>
 4    1  0.4084348E+006  0.6683033E+01  0.7546771E-02  0.2334186E+00
         21   -1    0    0  501  502  0.00000000000E+00  0.00000000000E+00  0.33383926909E+01  0.33383926909E+01  0.00000000000E+00 0.  1.
         21   -1    0    0  502  503 -0.00000000000E+00 -0.00000000000E+00 -0.15543314154E+02  0.15543314154E+02  0.00000000000E+00 0.  1.
          5    1    1    2  501    0 -0.16967949504E+01 -0.44377711348E+01 -0.25792179847E+01  0.71634692127E+01  0.47000000000E+01 0.  1.
         -5    1    1    2    0  503  0.16967949504E+01  0.44377711348E+01 -0.96257034780E+01  0.11718237632E+02  0.47000000000E+01 0.  1.
<mgrwt>
<rscale>  2 0.66830327E+01</rscale>
<asrwt>0</asrwt>
<pdfrwt beam="1">  1       21 0.51359887E-03 0.66830327E+01</pdfrwt>
<pdfrwt beam="2">  1       21 0.23912791E-02 0.66830327E+01</pdfrwt>
<totfact> 0.25336261E+09</totfact>
</mgrwt>
</event>
<event>
 4    1  0.4084348E+006  0.5368009E+01  0.7546771E-02  0.2505737E+00
         21   -1    0    0  501  502  0.00000000000E+00  0.00000000000E+00  0.21513037656E+02  0.21513037656E+02  0.00000000000E+00 0. -1.
         21   -1    0    0  502  503 -0.00000000000E+00 -0.00000000000E+00 -0.14205247605E+01  0.14205247605E+01  0.00000000000E+00 0. -1.
          5    1    1    2  501    0  0.22117721212E+01 -0.13540975476E+01  0.12785780848E+02  0.13866928570E+02  0.47000000000E+01 0. -1.
         -5    1    1    2    0  503 -0.22117721212E+01  0.13540975476E+01  0.73067320473E+01  0.90666338459E+01  0.47000000000E+01 0. -1.
<mgrwt>
<rscale>  2 0.53680086E+01</rscale>
<asrwt>0</asrwt>
<pdfrwt beam="1">  1       21 0.33096979E-02 0.53680086E+01</pdfrwt>
<pdfrwt beam="2">  1       21 0.21854229E-03 0.53680086E+01</pdfrwt>
<totfact> 0.42177208E+09</totfact>
</mgrwt>
</event>
<event>
 4    1  0.4084348E+006  0.6843164E+01  0.7546771E-02  0.2317101E+00
         21   -1    0    0  501  502  0.00000000000E+00  0.00000000000E+00  0.30361530293E+00  0.30361530293E+00  0.00000000000E+00 0.  1.
         21   -1    0    0  502  503 -0.00000000000E+00 -0.00000000000E+00 -0.15839854104E+03  0.15839854104E+03  0.00000000000E+00 0. -1.
          5    1    1    2  501    0  0.45471602047E+01  0.20154984580E+01 -0.91908390153E+02  0.92162796618E+02  0.47000000000E+01 0.  1.
         -5    1    1    2    0  503 -0.45471602047E+01 -0.20154984580E+01 -0.66186535581E+02  0.66539359722E+02  0.47000000000E+01 0.  1.
<mgrwt>
<rscale>  2 0.68431645E+01</rscale>
<asrwt>0</asrwt>
<pdfrwt beam="1">  1       21 0.46709957E-04 0.68431645E+01</pdfrwt>
<pdfrwt beam="2">  1       21 0.24369053E-01 0.68431645E+01</pdfrwt>
<totfact> 0.19312700E+09</totfact>
</mgrwt>
</event>
<event>
 4    1  0.4084348E+006  0.5801381E+01  0.7546771E-02  0.2442014E+00
         21   -1    0    0  501  502  0.00000000000E+00  0.00000000000E+00  0.23642753770E-01  0.23642753770E-01  0.00000000000E+00 0.  1.
         21   -1    0    0  502  503 -0.00000000000E+00 -0.00000000000E+00 -0.14244564974E+04  0.14244564974E+04  0.00000000000E+00 0.  1.
          5    1    1    2  501    0  0.27172053707E+01  0.20451922225E+01 -0.73044428131E+03  0.73046731899E+03  0.47000000000E+01 0.  1.
         -5    1    1    2    0  503 -0.27172053707E+01 -0.20451922225E+01 -0.69398857331E+03  0.69401282114E+03  0.47000000000E+01 0.  1.
<mgrwt>
<rscale>  2 0.58013805E+01</rscale>
<asrwt>0</asrwt>
<pdfrwt beam="1">  1       21 0.36360252E-05 0.58013805E+01</pdfrwt>
<pdfrwt beam="2">  1       21 0.21922680E+00 0.58013805E+01</pdfrwt>
<totfact> 0.75304138E+08</totfact>
</mgrwt>
</event>
<event>
 4    1  0.4084348E+006  0.6704830E+01  0.7546771E-02  0.2331821E+00
         21   -1    0    0  501  502  0.00000000000E+00  0.00000000000E+00  0.46411900932E+02  0.46411900932E+02  0.00000000000E+00 0.  1.
         21   -1    0    0  502  503 -0.00000000000E+00 -0.00000000000E+00 -0.10030179752E+01  0.10030179752E+01  0.00000000000E+00 0.  1.
          5    1    1    2  501    0  0.45237656063E+00 -0.47602620610E+01  0.27095810231E+02  0.27913037662E+02  0.47000000000E+01 0.  1.
         -5    1    1    2    0  503 -0.45237656063E+00  0.47602620610E+01  0.18313072726E+02  0.19501881245E+02  0.47000000000E+01 0.  1.
<mgrwt>
<rscale>  2 0.67048296E+01</rscale>
<asrwt>0</asrwt>
<pdfrwt beam="1">  1       21 0.71402908E-02 0.67048296E+01</pdfrwt>
<pdfrwt beam="2">  1       21 0.15431049E-03 0.67048296E+01</pdfrwt>
<totfact> 0.26352998E+09</totfact>
</mgrwt>
</event>
<event>
 4    1  0.4084348E+006  0.9385383E+01  0.7546771E-02  0.2111752E+00
         21   -1    0    0  501  502  0.00000000000E+00  0.00000000000E+00  0.78637775666E+01  0.78637775666E+01  0.00000000000E+00 0. -1.
         21   -1    0    0  502  503 -0.00000000000E+00 -0.00000000000E+00 -0.20623938200E+03  0.20623938200E+03  0.00000000000E+00 0. -1.
          5    1    1    2  501    0 -0.80837075613E+01 -0.80565978201E+00  0.49160654959E+01  0.10594957083E+02  0.47000000000E+01 0. -1.
         -5    1    1    2    0  503  0.80837075613E+01  0.80565978201E+00 -0.20329166993E+03  0.20350820248E+03  0.47000000000E+01 0. -1.
<mgrwt>
<rscale>  2 0.93853831E+01</rscale>
<asrwt>0</asrwt>
<pdfrwt beam="1">  1       21 0.12098120E-02 0.93853831E+01</pdfrwt>
<pdfrwt beam="2">  1       21 0.31729135E-01 0.93853831E+01</pdfrwt>
<totfact> 0.15803111E+07</totfact>
</mgrwt>
</event>
<event>
 4    1  0.4084348E+006  0.4743559E+01  0.7546771E-02  0.2614761E+00
         21   -1    0    0  503  502  0.00000000000E+00  0.00000000000E+00  0.57672957311E+01  0.57672957311E+01  0.00000000000E+00 0. -1.
         21   -1    0    0  501  503 -0.00000000000E+00 -0.00000000000E+00 -0.58529507402E+01  0.58529507402E+01  0.00000000000E+00 0. -1.
          5    1    1    2  501    0  0.58594642012E+00  0.26079907846E+00 -0.33976687800E+01  0.58348523979E+01  0.47000000000E+01 0. -1.
         -5    1    1    2    0  502 -0.58594642012E+00 -0.26079907846E+00  0.33120137709E+01  0.57853940735E+01  0.47000000000E+01 0. -1.
<mgrwt>
<rscale>  2 0.47435587E+01</rscale>
<asrwt>0</asrwt>
<pdfrwt beam="1">  1       21 0.88727628E-03 0.47435587E+01</pdfrwt>
<pdfrwt beam="2">  1       21 0.90045395E-03 0.47435587E+01</pdfrwt>
<totfact> 0.34292293E+09</totfact>
</mgrwt>
</event>
<event>
 4    1  0.4084348E+006  0.5144661E+01  0.7546771E-02  0.2542114E+00
         21   -1    0    0  501  502  0.00000000000E+00  0.00000000000E+00  0.50953525726E+02  0.50953525726E+02  0.00000000000E+00 0. -1.
         21   -1    0    0  502  503 -0.00000000000E+00 -0.00000000000E+00 -0.10746452841E+01  0.10746452841E+01  0.00000000000E+00 0. -1.
          5    1    1    2  501    0 -0.12752307540E+01 -0.16587100496E+01  0.62411885491E+01  0.80882610622E+01  0.47000000000E+01 0. -1.
         -5    1    1    2    0  503  0.12752307540E+01  0.16587100496E+01  0.43637691893E+02  0.43939909948E+02  0.47000000000E+01 0. -1.
<mgrwt>
<rscale>  2 0.51446606E+01</rscale>
<asrwt>0</asrwt>
<pdfrwt beam="1">  1       21 0.78390021E-02 0.51446606E+01</pdfrwt>
<pdfrwt beam="2">  1       21 0.16533008E-03 0.51446606E+01</pdfrwt>
<totfact> 0.16599731E+09</totfact>
</mgrwt>
</event>
<event>
 4    1  0.4084348E+006  0.5494685E+01  0.7546771E-02  0.2486231E+00
         21   -1    0    0  501  502  0.00000000000E+00  0.00000000000E+00  0.11159988103E+02  0.11159988103E+02  0.00000000000E+00 0. -1.
         21   -1    0    0  502  503 -0.00000000000E+00 -0.00000000000E+00 -0.75847023924E+01  0.75847023924E+01  0.00000000000E+00 0. -1.
          5    1    1    2  501    0 -0.74672310805E+00 -0.27466291551E+01  0.93049193367E+01  0.10806159863E+02  0.47000000000E+01 0. -1.
         -5    1    1    2    0  503  0.74672310805E+00  0.27466291551E+01 -0.57296336262E+01  0.79385306327E+01  0.47000000000E+01 0. -1.
<mgrwt>
<rscale>  2 0.54946854E+01</rscale>
<asrwt>0</asrwt>
<pdfrwt beam="1">  1       21 0.17169212E-02 0.54946854E+01</pdfrwt>
<pdfrwt beam="2">  1       21 0.11668773E-02 0.54946854E+01</pdfrwt>
<totfact> 0.10929516E+09</totfact>
</mgrwt>
</event>
<event>
 4    1  0.4084348E+006  0.7514119E+01  0.7546771E-02  0.2252086E+00
         21   -1    0    0  501  502  0.00000000000E+00  0.00000000000E+00  0.10251000273E+02  0.10251000273E+02  0.00000000000E+00 0. -1.
         21   -1    0    0  502  503 -0.00000000000E+00 -0.00000000000E+00 -0.13353038466E+02  0.13353038466E+02  0.00000000000E+00 0.  1.
          5    1    1    2  501    0 -0.17416355965E+01  0.55980963378E+01  0.74951614052E+01  0.10613172082E+02  0.47000000000E+01 0. -1.
         -5    1    1    2    0  503  0.17416355965E+01 -0.55980963378E+01 -0.10597199598E+02  0.12990866656E+02  0.47000000000E+01 0.  1.
<mgrwt>
<rscale>  2 0.75141185E+01</rscale>
<asrwt>0</asrwt>
<pdfrwt beam="1">  1       21 0.15770770E-02 0.75141185E+01</pdfrwt>
<pdfrwt beam="2">  1       21 0.20543136E-02 0.75141185E+01</pdfrwt>
<totfact> 0.69961904E+08</totfact>
</mgrwt>
</event>
<event>
 4    1  0.4084348E+006  0.4788569E+01  0.7546771E-02  0.2606086E+00
         21   -1    0    0  503  502  0.00000000000E+00  0.00000000000E+00  0.17338989545E+02  0.17338989545E+02  0.00000000000E+00 0.  1.
         21   -1    0    0  501  503 -0.00000000000E+00 -0.00000000000E+00 -0.38872237965E+01  0.38872237965E+01  0.00000000000E+00 0.  1.
          5    1    1    2  501    0  0.77327429770E+00  0.49238044836E+00 -0.18948684669E+01  0.51498464203E+01  0.47000000000E+01 0.  1.
         -5    1    1    2    0  502 -0.77327429770E+00 -0.49238044836E+00  0.15346634215E+02  0.16076366921E+02  0.47000000000E+01 0.  1.
<mgrwt>
<rscale>  2 0.47885689E+01</rscale>
<asrwt>0</asrwt>
<pdfrwt beam="1">  1       21 0.26675368E-02 0.47885689E+01</pdfrwt>
<pdfrwt beam="2">  1       21 0.59803444E-03 0.47885689E+01</pdfrwt>
<totfact> 0.12986290E+09</totfact>
</mgrwt>
</event>
<event>
 4    1  0.4084348E+006  0.4820972E+01  0.7546771E-02  0.2599928E+00
         21   -1    0    0  501  502  0.00000000000E+00  0.00000000000E+00  0.22767494451E+03  0.22767494451E+03  0.00000000000E+00 0.  1.
         21   -1    0    0  502  503 -0.00000000000E+00 -0.00000000000E+00 -0.34037122288E+00  0.34037122288E+00  0.00000000000E+00 0.  1.
          5    1    1    2  501    0  0.10443059383E+01 -0.24737722270E+00  0.20905858925E+03  0.20911416860E+03  0.47000000000E+01 0.  1.
         -5    1    1    2    0  503 -0.10443059383E+01  0.24737722270E+00  0.18275984035E+02  0.18901147130E+02  0.47000000000E+01 0.  1.
<mgrwt>
<rscale>  2 0.48209719E+01</rscale>
<asrwt>0</asrwt>
<pdfrwt beam="1">  1       21 0.35026793E-01 0.48209719E+01</pdfrwt>
<pdfrwt beam="2">  1       21 0.52364985E-04 0.48209719E+01</pdfrwt>
<totfact> 0.68370131E+08</totfact>
</mgrwt>
</event>
<event>
 4    1  0.4084348E+006  0.5602840E+01  0.7546771E-02  0.2470171E+00
         21   -1    0    0  503  502  0.00000000000E+00  0.00000000000E+00  0.17021994912E+02  0.17021994912E+02  0.00000000000E+00 0.  1.
         21   -1    0    0  501  503 -0.00000000000E+00 -0.00000000000E+00 -0.18443597869E+01  0.18443597869E+01  0.00000000000E+00 0.  1.
          5    1    1    2  501    0  0.28984406739E+01  0.94913401723E+00  0.74986377490E+01  0.93606293492E+01  0.47000000000E+01 0.  1.
         -5    1    1    2    0  502 -0.28984406739E+01 -0.94913401723E+00  0.76789973763E+01  0.95057253499E+01  0.47000000000E+01 0.  1.
<mgrwt>
<rscale>  2 0.56028398E+01</rscale>
<asrwt>0</asrwt>
<pdfrwt beam="1">  1       21 0.26187683E-02 0.56028398E+01</pdfrwt>
<pdfrwt beam="2">  1       21 0.28374767E-03 0.56028398E+01</pdfrwt>
<totfact> 0.43204572E+09</totfact>
</mgrwt>
</event>
<event>
 4    1  0.4084348E+006  0.6794810E+01  0.7546771E-02  0.2322191E+00
         21   -1    0    0  501  502  0.00000000000E+00  0.00000000000E+00  0.59832908654E+01  0.59832908654E+01  0.00000000000E+00 0.  1.
         21   -1    0    0  502  503 -0.00000000000E+00 -0.00000000000E+00 -0.79569037713E+01  0.79569037713E+01  0.00000000000E+00 0. -1.
          5    1    1    2  501    0  0.47932142419E+01 -0.10509706136E+01 -0.21986074369E+01  0.71416606375E+01  0.47000000000E+01 0. -1.
         -5    1    1    2    0  503 -0.47932142419E+01  0.10509706136E+01  0.22499453104E+00  0.67985339992E+01  0.47000000000E+01 0.  1.
<mgrwt>
<rscale>  2 0.67948099E+01</rscale>
<asrwt>0</asrwt>
<pdfrwt beam="1">  1       21 0.92050629E-03 0.67948099E+01</pdfrwt>
<pdfrwt beam="2">  1       21 0.12241390E-02 0.67948099E+01</pdfrwt>
<totfact> 0.29619391E+09</totfact>
</mgrwt>
</event>
<event>
 4    1  0.4084348E+006  0.6084408E+01  0.7546771E-02  0.2404566E+00
         21   -1    0    0  503  502  0.00000000000E+00  0.00000000000E+00  0.74131706713E+02  0.74131706713E+02  0.00000000000E+00 0. -1.
         21   -1    0    0  501  503 -0.00000000000E+00 -0.00000000000E+00 -0.60585756704E+00  0.60585756704E+00  0.00000000000E+00 0.  1.
          5    1    1    2  501    0  0.20948251973E+01 -0.32468035890E+01  0.21097252303E+02  0.21957096368E+02  0.47000000000E+01 0.  1.
         -5    1    1    2    0  502 -0.20948251973E+01  0.32468035890E+01  0.52428596843E+02  0.52780467912E+02  0.47000000000E+01 0. -1.
<mgrwt>
<rscale>  2 0.60844084E+01</rscale>
<asrwt>0</asrwt>
<pdfrwt beam="1">  1       21 0.11404871E-01 0.60844084E+01</pdfrwt>
<pdfrwt beam="2">  1       21 0.93208915E-04 0.60844084E+01</pdfrwt>
<totfact> 0.23483256E+09</totfact>
</mgrwt>
</event>
<event>
 4    1  0.4084348E+006  0.6333936E+01  0.7546771E-02  0.2373887E+00
         21   -1    0    0  501  502  0.00000000000E+00  0.00000000000E+00  0.14593632550E+02  0.14593632550E+02  0.00000000000E+00 0.  1.
         21   -1    0    0  502  503 -0.00000000000E+00 -0.00000000000E+00 -0.13710229504E+02  0.13710229504E+02  0.00000000000E+00 0. -1.
          5    1    1    2  501    0  0.27496590129E+01 -0.32354477010E+01  0.13095526456E+02  0.14546874567E+02  0.47000000000E+01 0.  1.
         -5    1    1    2    0  503 -0.27496590129E+01  0.32354477010E+01 -0.12212123411E+02  0.13756987487E+02  0.47000000000E+01 0. -1.
<mgrwt>
<rscale>  2 0.63339361E+01</rscale>
<asrwt>0</asrwt>
<pdfrwt beam="1">  1       21 0.22451742E-02 0.63339361E+01</pdfrwt>
<pdfrwt beam="2">  1       21 0.21092661E-02 0.63339361E+01</pdfrwt>
<totfact> 0.35834979E+08</totfact>
</mgrwt>
</event>
<event>
 4    1  0.4084348E+006  0.5428204E+01  0.7546771E-02  0.2496371E+00
         21   -1    0    0  501  502  0.00000000000E+00  0.00000000000E+00  0.76175902886E+00  0.76175902886E+00  0.00000000000E+00 0. -1.
         21   -1    0    0  502  503 -0.00000000000E+00 -0.00000000000E+00 -0.45407969016E+02  0.45407969016E+02  0.00000000000E+00 0.  1.
          5    1    1    2  501    0  0.54900449948E+00  0.26596970639E+01 -0.31208561587E+02  0.31677116516E+02  0.47000000000E+01 0. -1.
         -5    1    1    2    0  503 -0.54900449948E+00 -0.26596970639E+01 -0.13437648400E+02  0.14492611529E+02  0.47000000000E+01 0. -1.
<mgrwt>
<rscale>  2 0.54282036E+01</rscale>
<asrwt>0</asrwt>
<pdfrwt beam="1">  1       21 0.11719369E-03 0.54282036E+01</pdfrwt>
<pdfrwt beam="2">  1       21 0.69858415E-02 0.54282036E+01</pdfrwt>
<totfact> 0.32919302E+09</totfact>
</mgrwt>
</event>
<event>
 4    1  0.4084348E+006  0.5450151E+01  0.7546771E-02  0.2493000E+00
         21   -1    0    0  501  502  0.00000000000E+00  0.00000000000E+00  0.88039976423E+00  0.88039976423E+00  0.00000000000E+00 0. -1.
         21   -1    0    0  502  503 -0.00000000000E+00 -0.00000000000E+00 -0.51827125041E+02  0.51827125041E+02  0.00000000000E+00 0. -1.
          5    1    1    2  501    0  0.43718626095E-01  0.27590287081E+01 -0.99045258985E+01  0.11305033569E+02  0.47000000000E+01 0. -1.
         -5    1    1    2    0  503 -0.43718626095E-01 -0.27590287081E+01 -0.41042199379E+02  0.41402491236E+02  0.47000000000E+01 0. -1.
<mgrwt>
<rscale>  2 0.54501514E+01</rscale>
<asrwt>0</asrwt>
<pdfrwt beam="1">  1       21 0.13544611E-03 0.54501514E+01</pdfrwt>
<pdfrwt beam="2">  1       21 0.79734044E-02 0.54501514E+01</pdfrwt>
<totfact> 0.22320495E+09</totfact>
</mgrwt>
</event>
<event>
 4    1  0.4084348E+006  0.4953881E+01  0.7546771E-02  0.2575401E+00
         21   -1    0    0  501  502  0.00000000000E+00  0.00000000000E+00  0.58837865061E+02  0.58837865061E+02  0.00000000000E+00 0. -1.
         21   -1    0    0  502  503 -0.00000000000E+00 -0.00000000000E+00 -0.46673274360E+00  0.46673274360E+00  0.00000000000E+00 0. -1.
          5    1    1    2  501    0 -0.18580548502E+00 -0.15544822993E+01  0.38855717168E+02  0.39170239922E+02  0.47000000000E+01 0. -1.
         -5    1    1    2    0  503  0.18580548502E+00  0.15544822993E+01  0.19515415150E+02  0.20134357883E+02  0.47000000000E+01 0. -1.
<mgrwt>
<rscale>  2 0.49538812E+01</rscale>
<asrwt>0</asrwt>
<pdfrwt beam="1">  1       21 0.90519734E-02 0.49538812E+01</pdfrwt>
<pdfrwt beam="2">  1       21 0.71805084E-04 0.49538812E+01</pdfrwt>
<totfact> 0.39154149E+09</totfact>
</mgrwt>
</event>
<event>
 4    1  0.4084348E+006  0.6542769E+01  0.7546771E-02  0.2349716E+00
         21   -1    0    0  503  502  0.00000000000E+00  0.00000000000E+00  0.14931424102E+01  0.14931424102E+01  0.00000000000E+00 0.  1.
         21   -1    0    0  501  503 -0.00000000000E+00 -0.00000000000E+00 -0.29861670942E+02  0.29861670942E+02  0.00000000000E+00 0.  1.
          5    1    1    2  501    0  0.45477090914E+01 -0.19016859946E+00 -0.11051952387E+02  0.12843421415E+02  0.47000000000E+01 0.  1.
         -5    1    1    2    0  502 -0.45477090914E+01  0.19016859946E+00 -0.17316576145E+02  0.18511391938E+02  0.47000000000E+01 0.  1.
<mgrwt>
<rscale>  2 0.65427687E+01</rscale>
<asrwt>0</asrwt>
<pdfrwt beam="1">  1       21 0.22971421E-03 0.65427687E+01</pdfrwt>
<pdfrwt beam="2">  1       21 0.45941033E-02 0.65427687E+01</pdfrwt>
<totfact> 0.29092075E+09</totfact>
</mgrwt>
</event>
<event>
 4    1  0.4084348E+006  0.5814717E+01  0.7546771E-02  0.2440181E+00
         21   -1    0    0  501  502  0.00000000000E+00  0.00000000000E+00  0.40033463459E+02  0.40033463459E+02  0.00000000000E+00 0. -1.
         21   -1    0    0  502  503 -0.00000000000E+00 -0.00000000000E+00 -0.98930256311E+00  0.98930256311E+00  0.00000000000E+00 0. -1.
          5    1    1    2  501    0 -0.22511292875E+00  0.34161758841E+01  0.27367538925E+02  0.27978440277E+02  0.47000000000E+01 0. -1.
         -5    1    1    2    0  503  0.22511292875E+00 -0.34161758841E+01  0.11676621971E+02  0.13044325745E+02  0.47000000000E+01 0. -1.
<mgrwt>
<rscale>  2 0.58147170E+01</rscale>
<asrwt>0</asrwt>
<pdfrwt beam="1">  1       21 0.61589931E-02 0.58147170E+01</pdfrwt>
<pdfrwt beam="2">  1       21 0.15220043E-03 0.58147170E+01</pdfrwt>
<totfact> 0.29753617E+09</totfact>
</mgrwt>
</event>
<event>
 4    1  0.4084348E+006  0.6007107E+01  0.7546771E-02  0.2414499E+00
         21   -1    0    0  503  502  0.00000000000E+00  0.00000000000E+00  0.17570763264E+02  0.17570763264E+02  0.00000000000E+00 0.  1.
         21   -1    0    0  501  503 -0.00000000000E+00 -0.00000000000E+00 -0.25394190035E+01  0.25394190035E+01  0.00000000000E+00 0.  1.
          5    1    1    2  501    0  0.28869748144E+01 -0.23792257622E+01  0.31181837309E+01  0.67681909389E+01  0.47000000000E+01 0.  1.
         -5    1    1    2    0  502 -0.28869748144E+01  0.23792257622E+01  0.11913160530E+02  0.13341991329E+02  0.47000000000E+01 0.  1.
<mgrwt>
<rscale>  2 0.60071074E+01</rscale>
<asrwt>0</asrwt>
<pdfrwt beam="1">  1       21 0.27031943E-02 0.60071074E+01</pdfrwt>
<pdfrwt beam="2">  1       21 0.39067986E-03 0.60071074E+01</pdfrwt>
<totfact> 0.28333785E+09</totfact>
</mgrwt>
</event>
<event>
 4    1  0.4084348E+006  0.9302386E+01  0.7546771E-02  0.2117008E+00
         21   -1    0    0  503  502  0.00000000000E+00  0.00000000000E+00  0.69380673436E+00  0.69380673436E+00  0.00000000000E+00 0. -1.
         21   -1    0    0  501  503 -0.00000000000E+00 -0.00000000000E+00 -0.17184295098E+03  0.17184295098E+03  0.00000000000E+00 0. -1.
          5    1    1    2  501    0  0.78670401545E+01 -0.15981438002E+01 -0.13074803269E+03  0.13107853537E+03  0.47000000000E+01 0. -1.
         -5    1    1    2    0  502 -0.78670401545E+01  0.15981438002E+01 -0.40401111554E+02  0.41458222335E+02  0.47000000000E+01 0. -1.
<mgrwt>
<rscale>  2 0.93023860E+01</rscale>
<asrwt>0</asrwt>
<pdfrwt beam="1">  1       21 0.10673955E-03 0.93023860E+01</pdfrwt>
<pdfrwt beam="2">  1       21 0.26437364E-01 0.93023860E+01</pdfrwt>
<totfact> 0.66578583E+08</totfact>
</mgrwt>
</event>
<event>
 4    1  0.4084348E+006  0.6578550E+01  0.7546771E-02  0.2345703E+00
         21   -1    0    0  503  502  0.00000000000E+00  0.00000000000E+00  0.74629290422E+03  0.74629290422E+03  0.00000000000E+00 0. -1.
         21   -1    0    0  501  503 -0.00000000000E+00 -0.00000000000E+00 -0.83387838115E-01  0.83387838115E-01  0.00000000000E+00 0.  1.
          5    1    1    2  501    0  0.22684183048E+01  0.40051968989E+01  0.16714746794E+03  0.16727687635E+03  0.47000000000E+01 0.  1.
         -5    1    1    2    0  502 -0.22684183048E+01 -0.40051968989E+01  0.57906204844E+03  0.57909941570E+03  0.47000000000E+01 0. -1.
<mgrwt>
<rscale>  2 0.65785503E+01</rscale>
<asrwt>0</asrwt>
<pdfrwt beam="1">  1       21 0.11480894E+00 0.65785503E+01</pdfrwt>
<pdfrwt beam="2">  1       21 0.12829496E-04 0.65785503E+01</pdfrwt>
<totfact> 0.60721797E+08</totfact>
</mgrwt>
</event>
<event>
 4    1  0.4084348E+006  0.6520686E+01  0.7546771E-02  0.2352211E+00
         21   -1    0    0  503  502  0.00000000000E+00  0.00000000000E+00  0.65217288091E+00  0.65217288091E+00  0.00000000000E+00 0. -1.
         21   -1    0    0  501  503 -0.00000000000E+00 -0.00000000000E+00 -0.72783469364E+02  0.72783469364E+02  0.00000000000E+00 0. -1.
          5    1    1    2  501    0 -0.44004898143E+01 -0.10320051834E+01 -0.47920513388E+02  0.48362123078E+02  0.47000000000E+01 0. -1.
         -5    1    1    2    0  502  0.44004898143E+01  0.10320051834E+01 -0.24210783096E+02  0.25073519167E+02  0.47000000000E+01 0. -1.
<mgrwt>
<rscale>  2 0.65206860E+01</rscale>
<asrwt>0</asrwt>
<pdfrwt beam="1">  1       21 0.10033436E-03 0.65206860E+01</pdfrwt>
<pdfrwt beam="2">  1       21 0.11197449E-01 0.65206860E+01</pdfrwt>
<totfact> 0.23152296E+09</totfact>
</mgrwt>
</event>
<event>
 4    1  0.4084348E+006  0.8572109E+01  0.7546771E-02  0.2166700E+00
         21   -1    0    0  503  502  0.00000000000E+00  0.00000000000E+00  0.11778238590E+01  0.11778238590E+01  0.00000000000E+00 0.  1.
         21   -1    0    0  501  503 -0.00000000000E+00 -0.00000000000E+00 -0.66939323139E+02  0.66939323139E+02  0.00000000000E+00 0. -1.
          5    1    1    2  501    0 -0.20677336822E+01  0.68640757150E+01 -0.41762443919E+02  0.42633118348E+02  0.47000000000E+01 0. -1.
         -5    1    1    2    0  502  0.20677336822E+01 -0.68640757150E+01 -0.23999055361E+02  0.25484028650E+02  0.47000000000E+01 0.  1.
<mgrwt>
<rscale>  2 0.85721093E+01</rscale>
<asrwt>0</asrwt>
<pdfrwt beam="1">  1       21 0.18120366E-03 0.85721093E+01</pdfrwt>
<pdfrwt beam="2">  1       21 0.10298358E-01 0.85721093E+01</pdfrwt>
<totfact> 0.14293648E+09</totfact>
</mgrwt>
</event>
<event>
 4    1  0.4084348E+006  0.6548933E+01  0.7546771E-02  0.2349022E+00
         21   -1    0    0  503  502  0.00000000000E+00  0.00000000000E+00  0.10447593824E+02  0.10447593824E+02  0.00000000000E+00 0. -1.
         21   -1    0    0  501  503 -0.00000000000E+00 -0.00000000000E+00 -0.93014612724E+01  0.93014612724E+01  0.00000000000E+00 0.  1.
          5    1    1    2  501    0 -0.27112866720E+01 -0.36670755380E+01 -0.68075053512E+01  0.94461975168E+01  0.47000000000E+01 0.  1.
         -5    1    1    2    0  502  0.27112866720E+01  0.36670755380E+01  0.79536379033E+01  0.10302857580E+02  0.47000000000E+01 0. -1.
<mgrwt>
<rscale>  2 0.65489326E+01</rscale>
<asrwt>0</asrwt>
<pdfrwt beam="1">  1       21 0.16073221E-02 0.65489326E+01</pdfrwt>
<pdfrwt beam="2">  1       21 0.14309940E-02 0.65489326E+01</pdfrwt>
<totfact> 0.10390978E+09</totfact>
</mgrwt>
</event>
<event>
 4    1  0.4084348E+006  0.9531607E+01  0.7546771E-02  0.2102667E+00
         21   -1    0    0  501  502  0.00000000000E+00  0.00000000000E+00  0.11402811986E+02  0.11402811986E+02  0.00000000000E+00 0. -1.
         21   -1    0    0  502  503 -0.00000000000E+00 -0.00000000000E+00 -0.82404066359E+01  0.82404066359E+01  0.00000000000E+00 0.  1.
          5    1    1    2  501    0 -0.78846155829E+01  0.25679494168E+01 -0.20627947735E+00  0.95338385931E+01  0.47000000000E+01 0.  1.
         -5    1    1    2    0  503  0.78846155829E+01 -0.25679494168E+01  0.33686848271E+01  0.10109380029E+02  0.47000000000E+01 0.  1.
<mgrwt>
<rscale>  2 0.95316067E+01</rscale>
<asrwt>0</asrwt>
<pdfrwt beam="1">  1       21 0.17542788E-02 0.95316067E+01</pdfrwt>
<pdfrwt beam="2">  1       21 0.12677549E-02 0.95316067E+01</pdfrwt>
<totfact> 0.14137167E+09</totfact>
</mgrwt>
</event>
<event>
 4    1  0.4084348E+006  0.1067394E+02  0.7546771E-02  0.2038547E+00
         21   -1    0    0  501  502  0.00000000000E+00  0.00000000000E+00  0.16055439127E+02  0.16055439127E+02  0.00000000000E+00 0.  1.
         21   -1    0    0  502  503 -0.00000000000E+00 -0.00000000000E+00 -0.85731846395E+01  0.85731846395E+01  0.00000000000E+00 0. -1.
          5    1    1    2  501    0 -0.29713144716E+01 -0.91112211336E+01 -0.13700730536E+01  0.10761512924E+02  0.47000000000E+01 0. -1.
         -5    1    1    2    0  503  0.29713144716E+01  0.91112211336E+01  0.88523275412E+01  0.13867110843E+02  0.47000000000E+01 0.  1.
<mgrwt>
<rscale>  2 0.10673943E+02</rscale>
<asrwt>0</asrwt>
<pdfrwt beam="1">  1       21 0.24700675E-02 0.10673943E+02</pdfrwt>
<pdfrwt beam="2">  1       21 0.13189515E-02 0.10673943E+02</pdfrwt>
<totfact> 0.85828845E+08</totfact>
</mgrwt>
</event>
<event>
 4    1  0.4084348E+006  0.4966245E+01  0.7546771E-02  0.2573177E+00
         21   -1    0    0  503  502  0.00000000000E+00  0.00000000000E+00  0.63288608823E+01  0.63288608823E+01  0.00000000000E+00 0. -1.
         21   -1    0    0  501  503 -0.00000000000E+00 -0.00000000000E+00 -0.12837710338E+02  0.12837710338E+02  0.00000000000E+00 0. -1.
          5    1    1    2  501    0 -0.12619363126E+01  0.99050778987E+00 -0.11251967813E+02  0.12299201950E+02  0.47000000000E+01 0. -1.
         -5    1    1    2    0  502  0.12619363126E+01 -0.99050778987E+00  0.47431183575E+01  0.68673692701E+01  0.47000000000E+01 0. -1.
<mgrwt>
<rscale>  2 0.49662450E+01</rscale>
<asrwt>0</asrwt>
<pdfrwt beam="1">  1       21 0.97367092E-03 0.49662450E+01</pdfrwt>
<pdfrwt beam="2">  1       21 0.19750323E-02 0.49662450E+01</pdfrwt>
<totfact> 0.10506956E+09</totfact>
</mgrwt>
</event>
<event>
 4    1  0.4084348E+006  0.6864313E+01  0.7546771E-02  0.2314894E+00
         21   -1    0    0  501  502  0.00000000000E+00  0.00000000000E+00  0.24628769137E+02  0.24628769137E+02  0.00000000000E+00 0. -1.
         21   -1    0    0  502  503 -0.00000000000E+00 -0.00000000000E+00 -0.31692717277E+01  0.31692717277E+01  0.00000000000E+00 0. -1.
          5    1    1    2  501    0  0.47800641885E+01  0.14764080099E+01  0.19479958422E+02  0.20653996571E+02  0.47000000000E+01 0. -1.
         -5    1    1    2    0  503 -0.47800641885E+01 -0.14764080099E+01  0.19795389871E+01  0.71440442929E+01  0.47000000000E+01 0. -1.
<mgrwt>
<rscale>  2 0.68643131E+01</rscale>
<asrwt>0</asrwt>
<pdfrwt beam="1">  1       21 0.37890413E-02 0.68643131E+01</pdfrwt>
<pdfrwt beam="2">  1       21 0.48758028E-03 0.68643131E+01</pdfrwt>
<totfact> 0.14165584E+09</totfact>
</mgrwt>
</event>
<event>
 4    1  0.4084348E+006  0.6502274E+01  0.7546771E-02  0.2354303E+00
         21   -1    0    0  501  502  0.00000000000E+00  0.00000000000E+00  0.65198175926E+02  0.65198175926E+02  0.00000000000E+00 0.  1.
         21   -1    0    0  502  503 -0.00000000000E+00 -0.00000000000E+00 -0.11277981042E+01  0.11277981042E+01  0.00000000000E+00 0. -1.
          5    1    1    2  501    0  0.44798830737E+01 -0.34671104615E+00  0.53654952215E+02  0.54047511118E+02  0.47000000000E+01 0. -1.
         -5    1    1    2    0  503 -0.44798830737E+01  0.34671104615E+00  0.10415425607E+02  0.12278462912E+02  0.47000000000E+01 0. -1.
<mgrwt>
<rscale>  2 0.65022735E+01</rscale>
<asrwt>0</asrwt>
<pdfrwt beam="1">  1       21 0.10030486E-01 0.65022735E+01</pdfrwt>
<pdfrwt beam="2">  1       21 0.17350745E-03 0.65022735E+01</pdfrwt>
<totfact> 0.13034468E+09</totfact>
</mgrwt>
</event>
<event>
 4    1  0.4084348E+006  0.5593792E+01  0.7546771E-02  0.2471494E+00
         21   -1    0    0  501  502  0.00000000000E+00  0.00000000000E+00  0.10100318724E+02  0.10100318724E+02  0.00000000000E+00 0.  1.
         21   -1    0    0  502  503 -0.00000000000E+00 -0.00000000000E+00 -0.51276787808E+01  0.51276787808E+01  0.00000000000E+00 0. -1.
          5    1    1    2  501    0  0.10100602001E+01  0.28601194874E+01  0.72766897823E+01  0.91782743083E+01  0.47000000000E+01 0.  1.
         -5    1    1    2    0  503 -0.10100602001E+01 -0.28601194874E+01 -0.23040498393E+01  0.60497231963E+01  0.47000000000E+01 0. -1.
<mgrwt>
<rscale>  2 0.55937917E+01</rscale>
<asrwt>0</asrwt>
<pdfrwt beam="1">  1       21 0.15538952E-02 0.55937917E+01</pdfrwt>
<pdfrwt beam="2">  1       21 0.78887366E-03 0.55937917E+01</pdfrwt>
<totfact> 0.22156556E+09</totfact>
</mgrwt>
</event>
<event>
 4    1  0.4084348E+006  0.6534758E+01  0.7546771E-02  0.2350620E+00
         21   -1    0    0  501  502  0.00000000000E+00  0.00000000000E+00  0.46452644449E+03  0.46452644449E+03  0.00000000000E+00 0.  1.
         21   -1    0    0  502  503 -0.00000000000E+00 -0.00000000000E+00 -0.29373291751E+00  0.29373291751E+00  0.00000000000E+00 0. -1.
          5    1    1    2  501    0 -0.42167501081E+01 -0.16828805098E+01  0.42475541607E+03  0.42480568093E+03  0.47000000000E+01 0.  1.
         -5    1    1    2    0  503  0.42167501081E+01  0.16828805098E+01  0.39477295505E+02  0.40014496482E+02  0.47000000000E+01 0. -1.
<mgrwt>
<rscale>  2 0.65347585E+01</rscale>
<asrwt>0</asrwt>
<pdfrwt beam="1">  1       21 0.71465019E-01 0.65347585E+01</pdfrwt>
<pdfrwt beam="2">  1       21 0.45190051E-04 0.65347585E+01</pdfrwt>
<totfact> 0.28943316E+08</totfact>
</mgrwt>
</event>
<event>
 4    1  0.4084348E+006  0.7053520E+01  0.7546771E-02  0.2295632E+00
         21   -1    0    0  501  502  0.00000000000E+00  0.00000000000E+00  0.20999434196E+04  0.20999434196E+04  0.00000000000E+00 0.  1.
         21   -1    0    0  502  503 -0.00000000000E+00 -0.00000000000E+00 -0.23750917070E-01  0.23750917070E-01  0.00000000000E+00 0.  1.
          5    1    1    2  501    0  0.29614534121E+01  0.43464851823E+01  0.99772376980E+03  0.99774870231E+03  0.47000000000E+01 0.  1.
         -5    1    1    2    0  503 -0.29614534121E+01 -0.43464851823E+01  0.11021958989E+04  0.11022184682E+04  0.47000000000E+01 0.  1.
<mgrwt>
<rscale>  2 0.70535197E+01</rscale>
<asrwt>0</asrwt>
<pdfrwt beam="1">  1       21 0.32291958E+00 0.70535197E+01</pdfrwt>
<pdfrwt beam="2">  1       21 0.36556692E-05 0.70535197E+01</pdfrwt>
<totfact> 0.30719601E+08</totfact>
</mgrwt>
</event>
<event>
 4    1  0.4084348E+006  0.6289075E+01  0.7546771E-02  0.2379253E+00
         21   -1    0    0  501  502  0.00000000000E+00  0.00000000000E+00  0.20950756624E+04  0.20950756624E+04  0.00000000000E+00 0. -1.
         21   -1    0    0  502  503 -0.00000000000E+00 -0.00000000000E+00 -0.76702882015E-01  0.76702882015E-01  0.00000000000E+00 0.  1.
          5    1    1    2  501    0 -0.37079674125E+01  0.19270289581E+01  0.19570655271E+04  0.19570756321E+04  0.47000000000E+01 0. -1.
         -5    1    1    2    0  503  0.37079674125E+01 -0.19270289581E+01  0.13793343249E+03  0.13807673324E+03  0.47000000000E+01 0.  1.
<mgrwt>
<rscale>  2 0.62890749E+01</rscale>
<asrwt>0</asrwt>
<pdfrwt beam="1">  1       21 0.32227351E+00 0.62890749E+01</pdfrwt>
<pdfrwt beam="2">  1       21 0.11802121E-04 0.62890749E+01</pdfrwt>
<totfact> 0.61616720E+07</totfact>
</mgrwt>
</event>
<event>
 4    1  0.4084348E+006  0.4943290E+01  0.7546771E-02  0.2577313E+00
         21   -1    0    0  501  502  0.00000000000E+00  0.00000000000E+00  0.31887039817E+03  0.31887039817E+03  0.00000000000E+00 0. -1.
         21   -1    0    0  502  503 -0.00000000000E+00 -0.00000000000E+00 -0.25855651055E+00  0.25855651055E+00  0.00000000000E+00 0. -1.
          5    1    1    2  501    0  0.59244642244E+00  0.14124898787E+01  0.29315100352E+03  0.29319267894E+03  0.47000000000E+01 0. -1.
         -5    1    1    2    0  503 -0.59244642244E+00 -0.14124898787E+01  0.25460838138E+02  0.25936275737E+02  0.47000000000E+01 0. -1.
<mgrwt>
<rscale>  2 0.49432904E+01</rscale>
<asrwt>0</asrwt>
<pdfrwt beam="1">  1       21 0.49056670E-01 0.49432904E+01</pdfrwt>
<pdfrwt beam="2">  1       21 0.39778180E-04 0.49432904E+01</pdfrwt>
<totfact> 0.56199330E+08</totfact>
</mgrwt>
</event>
<event>
 4    1  0.4084348E+006  0.6027712E+01  0.7546771E-02  0.2411831E+00
         21   -1    0    0  503  502  0.00000000000E+00  0.00000000000E+00  0.45648447773E+02  0.45648447773E+02  0.00000000000E+00 0. -1.
         21   -1    0    0  501  503 -0.00000000000E+00 -0.00000000000E+00 -0.12944553440E+01  0.12944553440E+01  0.00000000000E+00 0. -1.
          5    1    1    2  501    0 -0.37695116386E+01 -0.18464149276E+00  0.76111146208E+01  0.97088813076E+01  0.47000000000E+01 0. -1.
         -5    1    1    2    0  502  0.37695116386E+01  0.18464149276E+00  0.36742877808E+02  0.37234021810E+02  0.47000000000E+01 0. -1.
<mgrwt>
<rscale>  2 0.60277119E+01</rscale>
<asrwt>0</asrwt>
<pdfrwt beam="1">  1       21 0.70228369E-02 0.60277119E+01</pdfrwt>
<pdfrwt beam="2">  1       21 0.19914701E-03 0.60277119E+01</pdfrwt>
<totfact> 0.17505229E+09</totfact>
</mgrwt>
</event>
<event>
 4    1  0.4084348E+006  0.5269059E+01  0.7546771E-02  0.2521528E+00
         21   -1    0    0  503  502  0.00000000000E+00  0.00000000000E+00  0.40864561670E+02  0.40864561670E+02  0.00000000000E+00 0.  1.
         21   -1    0    0  501  503 -0.00000000000E+00 -0.00000000000E+00 -0.69799899270E+00  0.69799899270E+00  0.00000000000E+00 0.  1.
          5    1    1    2  501    0 -0.11199228343E+01 -0.21020841424E+01  0.16690128813E+02  0.17502096580E+02  0.47000000000E+01 0.  1.
         -5    1    1    2    0  502  0.11199228343E+01  0.21020841424E+01  0.23476433865E+02  0.24060464083E+02  0.47000000000E+01 0.  1.
<mgrwt>
<rscale>  2 0.52690592E+01</rscale>
<asrwt>0</asrwt>
<pdfrwt beam="1">  1       21 0.62868537E-02 0.52690592E+01</pdfrwt>
<pdfrwt beam="2">  1       21 0.10738449E-03 0.52690592E+01</pdfrwt>
<totfact> 0.42044275E+09</totfact>
</mgrwt>
</event>
<event>
 4    1  0.4084348E+006  0.5383382E+01  0.7546771E-02  0.2503328E+00
         21   -1    0    0  501  502  0.00000000000E+00  0.00000000000E+00  0.32494771990E+00  0.32494771990E+00  0.00000000000E+00 0. -1.
         21   -1    0    0  502  503 -0.00000000000E+00 -0.00000000000E+00 -0.11936287942E+03  0.11936287942E+03  0.00000000000E+00 0.  1.
          5    1    1    2  501    0 -0.20143216342E+01 -0.16832431726E+01 -0.29428961927E+02  0.29917295990E+02  0.47000000000E+01 0. -1.
         -5    1    1    2    0  503  0.20143216342E+01  0.16832431726E+01 -0.89608969777E+02  0.89770531154E+02  0.47000000000E+01 0.  1.
<mgrwt>
<rscale>  2 0.53833818E+01</rscale>
<asrwt>0</asrwt>
<pdfrwt beam="1">  1       21 0.49991935E-04 0.53833818E+01</pdfrwt>
<pdfrwt beam="2">  1       21 0.18363528E-01 0.53833818E+01</pdfrwt>
<totfact> 0.23023066E+09</totfact>
</mgrwt>
</event>
<event>
 4    1  0.4084348E+006  0.6824962E+01  0.7546771E-02  0.2319010E+00
         21   -1    0    0  501  502  0.00000000000E+00  0.00000000000E+00  0.15911921070E+01  0.15911921070E+01  0.00000000000E+00 0. -1.
         21   -1    0    0  502  503 -0.00000000000E+00 -0.00000000000E+00 -0.50308843260E+02  0.50308843260E+02  0.00000000000E+00 0.  1.
          5    1    1    2  501    0 -0.49090865431E+01 -0.62527864336E+00 -0.75789755226E+01  0.10199067312E+02  0.47000000000E+01 0. -1.
         -5    1    1    2    0  503  0.49090865431E+01  0.62527864336E+00 -0.41138675630E+02  0.41700968054E+02  0.47000000000E+01 0. -1.
<mgrwt>
<rscale>  2 0.68249618E+01</rscale>
<asrwt>0</asrwt>
<pdfrwt beam="1">  1       21 0.24479879E-03 0.68249618E+01</pdfrwt>
<pdfrwt beam="2">  1       21 0.77398219E-02 0.68249618E+01</pdfrwt>
<totfact> 0.12556794E+09</totfact>
</mgrwt>
</event>
<event>
 4    1  0.4084348E+006  0.1364788E+02  0.7546771E-02  0.1912370E+00
         21   -1    0    0  503  502  0.00000000000E+00  0.00000000000E+00  0.13450614030E+02  0.13450614030E+02  0.00000000000E+00 0. -1.
         21   -1    0    0  501  503 -0.00000000000E+00 -0.00000000000E+00 -0.47222636779E+03  0.47222636779E+03  0.00000000000E+00 0.  1.
          5    1    1    2  501    0 -0.51118032437E+01 -0.11749219616E+02 -0.46863925323E+03  0.46883794040E+03  0.47000000000E+01 0.  1.
         -5    1    1    2    0  502  0.51118032437E+01  0.11749219616E+02  0.98634994702E+01  0.16839041416E+02  0.47000000000E+01 0. -1.
<mgrwt>
<rscale>  2 0.13647882E+02</rscale>
<asrwt>0</asrwt>
<pdfrwt beam="1">  1       21 0.20693253E-02 0.13647882E+02</pdfrwt>
<pdfrwt beam="2">  1       21 0.72650207E-01 0.13647882E+02</pdfrwt>
<totfact> 0.16747146E+06</totfact>
</mgrwt>
</event>
<event>
 4    1  0.4084348E+006  0.1025641E+02  0.7546771E-02  0.2060682E+00
         21   -1    0    0  501  502  0.00000000000E+00  0.00000000000E+00  0.17653002962E+02  0.17653002962E+02  0.00000000000E+00 0. -1.
         21   -1    0    0  502  503 -0.00000000000E+00 -0.00000000000E+00 -0.11512606009E+02  0.11512606009E+02  0.00000000000E+00 0.  1.
          5    1    1    2  501    0  0.72841790688E+01 -0.54813108429E+01  0.13198630865E+02  0.16715199370E+02  0.47000000000E+01 0. -1.
         -5    1    1    2    0  503 -0.72841790688E+01  0.54813108429E+01 -0.70582339121E+01  0.12450409600E+02  0.47000000000E+01 0.  1.
<mgrwt>
<rscale>  2 0.10256414E+02</rscale>
<asrwt>0</asrwt>
<pdfrwt beam="1">  1       21 0.27158466E-02 0.10256414E+02</pdfrwt>
<pdfrwt beam="2">  1       21 0.17711702E-02 0.10256414E+02</pdfrwt>
<totfact> 0.47225378E+08</totfact>
</mgrwt>
</event>
<event>
 4    1  0.4084348E+006  0.5571365E+01  0.7546771E-02  0.2474790E+00
         21   -1    0    0  501  502  0.00000000000E+00  0.00000000000E+00  0.16730486856E+01  0.16730486856E+01  0.00000000000E+00 0. -1.
         21   -1    0    0  502  503 -0.00000000000E+00 -0.00000000000E+00 -0.18625718542E+02  0.18625718542E+02  0.00000000000E+00 0. -1.
          5    1    1    2  501    0  0.15406916179E+01  0.25644440089E+01 -0.78422469040E+01  0.96198201770E+01  0.47000000000E+01 0. -1.
         -5    1    1    2    0  503 -0.15406916179E+01 -0.25644440089E+01 -0.91104229523E+01  0.10678947050E+02  0.47000000000E+01 0. -1.
<mgrwt>
<rscale>  2 0.55713646E+01</rscale>
<asrwt>0</asrwt>
<pdfrwt beam="1">  1       21 0.25739210E-03 0.55713646E+01</pdfrwt>
<pdfrwt beam="2">  1       21 0.28654952E-02 0.55713646E+01</pdfrwt>
<totfact> 0.43110221E+09</totfact>
</mgrwt>
</event>
<event>
 4    1  0.4084348E+006  0.1065566E+02  0.7546771E-02  0.2039487E+00
         21   -1    0    0  503  502  0.00000000000E+00  0.00000000000E+00  0.31040598157E+00  0.31040598157E+00  0.00000000000E+00 0. -1.
         21   -1    0    0  501  503 -0.00000000000E+00 -0.00000000000E+00 -0.45230441170E+03  0.45230441170E+03  0.00000000000E+00 0.  1.
          5    1    1    2  501    0 -0.94603360303E+01  0.13982711553E+01 -0.32497300001E+03  0.32514764931E+03  0.47000000000E+01 0.  1.
         -5    1    1    2    0  502  0.94603360303E+01 -0.13982711553E+01 -0.12702100571E+03  0.12746716837E+03  0.47000000000E+01 0. -1.
<mgrwt>
<rscale>  2 0.10655661E+02</rscale>
<asrwt>0</asrwt>
<pdfrwt beam="1">  1       21 0.47754880E-04 0.10655661E+02</pdfrwt>
<pdfrwt beam="2">  1       21 0.69585129E-01 0.10655661E+02</pdfrwt>
<totfact> 0.36633413E+08</totfact>
</mgrwt>
</event>
<event>
 4    1  0.4084348E+006  0.7030056E+01  0.7546771E-02  0.2297974E+00
         21   -1    0    0  501  502  0.00000000000E+00  0.00000000000E+00  0.17180241327E+02  0.17180241327E+02  0.00000000000E+00 0.  1.
         21   -1    0    0  502  503 -0.00000000000E+00 -0.00000000000E+00 -0.64260482659E+01  0.64260482659E+01  0.00000000000E+00 0. -1.
          5    1    1    2  501    0 -0.34412200996E+01 -0.39356937215E+01  0.14149177112E+02  0.15799395362E+02  0.47000000000E+01 0. -1.
         -5    1    1    2    0  503  0.34412200996E+01  0.39356937215E+01 -0.33949840505E+01  0.78068942318E+01  0.47000000000E+01 0. -1.
<mgrwt>
<rscale>  2 0.70300555E+01</rscale>
<asrwt>0</asrwt>
<pdfrwt beam="1">  1       21 0.26431140E-02 0.70300555E+01</pdfrwt>
<pdfrwt beam="2">  1       21 0.98862281E-03 0.70300555E+01</pdfrwt>
<totfact> 0.90301646E+08</totfact>
</mgrwt>
</event>
<event>
 4    1  0.4084348E+006  0.6203364E+01  0.7546771E-02  0.2389684E+00
         21   -1    0    0  503  502  0.00000000000E+00  0.00000000000E+00  0.76714421695E+03  0.76714421695E+03  0.00000000000E+00 0.  1.
         21   -1    0    0  501  503 -0.00000000000E+00 -0.00000000000E+00 -0.90947451594E-01  0.90947451594E-01  0.00000000000E+00 0. -1.
          5    1    1    2  501    0  0.37612920680E+01  0.14981325513E+01  0.12663245113E+03  0.12678430265E+03  0.47000000000E+01 0. -1.
         -5    1    1    2    0  502 -0.37612920680E+01 -0.14981325513E+01  0.64042081837E+03  0.64045086176E+03  0.47000000000E+01 0.  1.
<mgrwt>
<rscale>  2 0.62033635E+01</rscale>
<asrwt>0</asrwt>
<pdfrwt beam="1">  1       21 0.11801701E+00 0.62033635E+01</pdfrwt>
<pdfrwt beam="2">  1       21 0.13992530E-04 0.62033635E+01</pdfrwt>
<totfact> 0.49257594E+08</totfact>
</mgrwt>
</event>
<event>
 4    1  0.4084348E+006  0.7363581E+01  0.7546771E-02  0.2265829E+00
         21   -1    0    0  503  502  0.00000000000E+00  0.00000000000E+00  0.91408781909E+00  0.91408781909E+00  0.00000000000E+00 0.  1.
         21   -1    0    0  501  503 -0.00000000000E+00 -0.00000000000E+00 -0.13265805984E+03  0.13265805984E+03  0.00000000000E+00 0. -1.
          5    1    1    2  501    0 -0.31408073041E+01 -0.47188613988E+01 -0.11552987182E+03  0.11576430196E+03  0.47000000000E+01 0. -1.
         -5    1    1    2    0  502  0.31408073041E+01  0.47188613988E+01 -0.16214100194E+02  0.17807845701E+02  0.47000000000E+01 0.  1.
<mgrwt>
<rscale>  2 0.73635809E+01</rscale>
<asrwt>0</asrwt>
<pdfrwt beam="1">  1       21 0.14062878E-03 0.73635809E+01</pdfrwt>
<pdfrwt beam="2">  1       21 0.20408949E-01 0.73635809E+01</pdfrwt>
<totfact> 0.61219645E+08</totfact>
</mgrwt>
</event>
<event>
 4    1  0.4084348E+006  0.5102012E+01  0.7546771E-02  0.2549369E+00
         21   -1    0    0  501  502  0.00000000000E+00  0.00000000000E+00  0.40421630788E+02  0.40421630788E+02  0.00000000000E+00 0. -1.
         21   -1    0    0  502  503 -0.00000000000E+00 -0.00000000000E+00 -0.11358210130E+01  0.11358210130E+01  0.00000000000E+00 0. -1.
          5    1    1    2  501    0  0.11003518943E+01 -0.16521972142E+01  0.33316365076E+02  0.33704758000E+02  0.47000000000E+01 0. -1.
         -5    1    1    2    0  503 -0.11003518943E+01  0.16521972142E+01  0.59694446987E+01  0.78526938013E+01  0.47000000000E+01 0. -1.
<mgrwt>
<rscale>  2 0.51020123E+01</rscale>
<asrwt>0</asrwt>
<pdfrwt beam="1">  1       21 0.62187113E-02 0.51020123E+01</pdfrwt>
<pdfrwt beam="2">  1       21 0.17474173E-03 0.51020123E+01</pdfrwt>
<totfact> 0.21571126E+09</totfact>
</mgrwt>
</event>
<event>
 4    1  0.4084348E+006  0.9720075E+01  0.7546771E-02  0.2091277E+00
         21   -1    0    0  503  502  0.00000000000E+00  0.00000000000E+00  0.72570107481E+00  0.72570107481E+00  0.00000000000E+00 0. -1.
         21   -1    0    0  501  503 -0.00000000000E+00 -0.00000000000E+00 -0.13478466685E+03  0.13478466685E+03  0.00000000000E+00 0. -1.
          5    1    1    2  501    0  0.42032591726E+01 -0.73974639167E+01 -0.79537681610E+02  0.80129411928E+02  0.47000000000E+01 0. -1.
         -5    1    1    2    0  502 -0.42032591726E+01  0.73974639167E+01 -0.54521284164E+02  0.55380955996E+02  0.47000000000E+01 0. -1.
<mgrwt>
<rscale>  2 0.97200751E+01</rscale>
<asrwt>0</asrwt>
<pdfrwt beam="1">  1       21 0.11164622E-03 0.97200751E+01</pdfrwt>
<pdfrwt beam="2">  1       21 0.20736121E-01 0.97200751E+01</pdfrwt>
<totfact> 0.96743868E+08</totfact>
</mgrwt>
</event>
<event>
 4    1  0.4084348E+006  0.8224805E+01  0.7546771E-02  0.2192775E+00
         21   -1    0    0  503  502  0.00000000000E+00  0.00000000000E+00  0.16564462904E+01  0.16564462904E+01  0.00000000000E+00 0.  1.
         21   -1    0    0  501  503 -0.00000000000E+00 -0.00000000000E+00 -0.47805365963E+02  0.47805365963E+02  0.00000000000E+00 0. -1.
          5    1    1    2  501    0  0.56424462175E+01 -0.37040821621E+01 -0.32515250102E+02  0.33539363637E+02  0.47000000000E+01 0. -1.
         -5    1    1    2    0  502 -0.56424462175E+01  0.37040821621E+01 -0.13633669570E+02  0.15922448616E+02  0.47000000000E+01 0.  1.
<mgrwt>
<rscale>  2 0.82248054E+01</rscale>
<asrwt>0</asrwt>
<pdfrwt beam="1">  1       21 0.25483793E-03 0.82248054E+01</pdfrwt>
<pdfrwt beam="2">  1       21 0.73546707E-02 0.82248054E+01</pdfrwt>
<totfact> 0.14645783E+09</totfact>
</mgrwt>
</event>
<event>
 4    1  0.4084348E+006  0.5272021E+01  0.7546771E-02  0.2521048E+00
         21   -1    0    0  501  502  0.00000000000E+00  0.00000000000E+00  0.48607200697E+02  0.48607200697E+02  0.00000000000E+00 0. -1.
         21   -1    0    0  502  503 -0.00000000000E+00 -0.00000000000E+00 -0.57619991668E+00  0.57619991668E+00  0.00000000000E+00 0. -1.
          5    1    1    2  501    0 -0.43704377454E+00 -0.23480192487E+01  0.21869599013E+02  0.22496078828E+02  0.47000000000E+01 0. -1.
         -5    1    1    2    0  503  0.43704377454E+00  0.23480192487E+01  0.26161401767E+02  0.26687321785E+02  0.47000000000E+01 0. -1.
<mgrwt>
<rscale>  2 0.52720206E+01</rscale>
<asrwt>0</asrwt>
<pdfrwt beam="1">  1       21 0.74780276E-02 0.52720206E+01</pdfrwt>
<pdfrwt beam="2">  1       21 0.88646179E-04 0.52720206E+01</pdfrwt>
<totfact> 0.41953093E+09</totfact>
</mgrwt>
</event>
<event>
 4    1  0.4084348E+006  0.7073727E+01  0.7546771E-02  0.2293625E+00
         21   -1    0    0  501  502  0.00000000000E+00  0.00000000000E+00  0.24419063840E+02  0.24419063840E+02  0.00000000000E+00 0.  1.
         21   -1    0    0  502  503 -0.00000000000E+00 -0.00000000000E+00 -0.26234769970E+01  0.26234769970E+01  0.00000000000E+00 0.  1.
          5    1    1    2  501    0  0.45935217484E+01 -0.26167108331E+01  0.17224379639E+02  0.18620334894E+02  0.47000000000E+01 0.  1.
         -5    1    1    2    0  503 -0.45935217484E+01  0.26167108331E+01  0.45712072042E+01  0.84222059426E+01  0.47000000000E+01 0.  1.
<mgrwt>
<rscale>  2 0.70737273E+01</rscale>
<asrwt>0</asrwt>
<pdfrwt beam="1">  1       21 0.37567789E-02 0.70737273E+01</pdfrwt>
<pdfrwt beam="2">  1       21 0.40361186E-03 0.70737273E+01</pdfrwt>
<totfact> 0.19110975E+09</totfact>
</mgrwt>
</event>
<event>
 4    1  0.4084348E+006  0.1036689E+02  0.7546771E-02  0.2054690E+00
         21   -1    0    0  503  502  0.00000000000E+00  0.00000000000E+00  0.64902990149E+02  0.64902990149E+02  0.00000000000E+00 0. -1.
         21   -1    0    0  501  503 -0.00000000000E+00 -0.00000000000E+00 -0.50766624776E+01  0.50766624776E+01  0.00000000000E+00 0.  1.
          5    1    1    2  501    0  0.50821110963E+01  0.77171601309E+01  0.11911729978E+01  0.10435099750E+02  0.47000000000E+01 0.  1.
         -5    1    1    2    0  502 -0.50821110963E+01 -0.77171601309E+01  0.58635154674E+02  0.59544552877E+02  0.47000000000E+01 0. -1.
<mgrwt>
<rscale>  2 0.10366890E+02</rscale>
<asrwt>0</asrwt>
<pdfrwt beam="1">  1       21 0.99850748E-02 0.10366890E+02</pdfrwt>
<pdfrwt beam="2">  1       21 0.78102505E-03 0.10366890E+02</pdfrwt>
<totfact> 0.21161117E+08</totfact>
</mgrwt>
</event>
<event>
 4    1  0.4084348E+006  0.4766005E+01  0.7546771E-02  0.2610417E+00
         21   -1    0    0  501  502  0.00000000000E+00  0.00000000000E+00  0.51949889573E+02  0.51949889573E+02  0.00000000000E+00 0. -1.
         21   -1    0    0  502  503 -0.00000000000E+00 -0.00000000000E+00 -0.87283721103E+00  0.87283721103E+00  0.00000000000E+00 0. -1.
          5    1    1    2  501    0  0.43318534744E+00 -0.66117273913E+00  0.44196502601E+02  0.44452734911E+02  0.47000000000E+01 0. -1.
         -5    1    1    2    0  503 -0.43318534744E+00  0.66117273913E+00  0.68805497610E+01  0.83699918728E+01  0.47000000000E+01 0. -1.
<mgrwt>
<rscale>  2 0.47660045E+01</rscale>
<asrwt>0</asrwt>
<pdfrwt beam="1">  1       21 0.79922883E-02 0.47660045E+01</pdfrwt>
<pdfrwt beam="2">  1       21 0.13428269E-03 0.47660045E+01</pdfrwt>
<totfact> 0.19765166E+09</totfact>
</mgrwt>
</event>
<event>
 4    1  0.4084348E+006  0.4948621E+01  0.7546771E-02  0.2576350E+00
         21   -1    0    0  503  502  0.00000000000E+00  0.00000000000E+00  0.40635987547E+01  0.40635987547E+01  0.00000000000E+00 0. -1.
         21   -1    0    0  501  503 -0.00000000000E+00 -0.00000000000E+00 -0.80702770773E+01  0.80702770773E+01  0.00000000000E+00 0. -1.
          5    1    1    2  501    0 -0.14643096298E+01  0.50462460416E+00 -0.50565255098E+01  0.70751182969E+01  0.47000000000E+01 0. -1.
         -5    1    1    2    0  502  0.14643096298E+01 -0.50462460416E+00  0.10498471873E+01  0.50587575352E+01  0.47000000000E+01 0. -1.
<mgrwt>
<rscale>  2 0.49486209E+01</rscale>
<asrwt>0</asrwt>
<pdfrwt beam="1">  1       21 0.62516904E-03 0.49486209E+01</pdfrwt>
<pdfrwt beam="2">  1       21 0.12415811E-02 0.49486209E+01</pdfrwt>
<totfact> 0.37203153E+09</totfact>
</mgrwt>
</event>
<event>
 4    1  0.4084348E+006  0.6370418E+01  0.7546771E-02  0.2369570E+00
         21   -1    0    0  503  502  0.00000000000E+00  0.00000000000E+00  0.14776149965E+03  0.14776149965E+03  0.00000000000E+00 0. -1.
         21   -1    0    0  501  503 -0.00000000000E+00 -0.00000000000E+00 -0.50897013635E+00  0.50897013635E+00  0.00000000000E+00 0.  1.
          5    1    1    2  501    0 -0.27650417714E+01 -0.32934432851E+01  0.23324145979E+02  0.24178461703E+02  0.47000000000E+01 0.  1.
         -5    1    1    2    0  502  0.27650417714E+01  0.32934432851E+01  0.12392838354E+03  0.12409200809E+03  0.47000000000E+01 0.  1.
<mgrwt>
<rscale>  2 0.63704179E+01</rscale>
<asrwt>0</asrwt>
<pdfrwt beam="1">  1       21 0.22732504E-01 0.63704179E+01</pdfrwt>
<pdfrwt beam="2">  1       21 0.78303215E-04 0.63704179E+01</pdfrwt>
<totfact> 0.10261692E+09</totfact>
</mgrwt>
</event>
<event>
 4    1  0.4084348E+006  0.4734968E+01  0.7546771E-02  0.2616433E+00
         21   -1    0    0  503  502  0.00000000000E+00  0.00000000000E+00  0.21512623725E+02  0.21512623725E+02  0.00000000000E+00 0. -1.
         21   -1    0    0  501  503 -0.00000000000E+00 -0.00000000000E+00 -0.13730007507E+01  0.13730007507E+01  0.00000000000E+00 0. -1.
          5    1    1    2  501    0 -0.57177725964E+00 -0.54723338419E-01  0.44529090867E+01  0.64998710151E+01  0.47000000000E+01 0. -1.
         -5    1    1    2    0  502  0.57177725964E+00  0.54723338419E-01  0.15686713888E+02  0.16385753461E+02  0.47000000000E+01 0. -1.
<mgrwt>
<rscale>  2 0.47349682E+01</rscale>
<asrwt>0</asrwt>
<pdfrwt beam="1">  1       21 0.33096342E-02 0.47349682E+01</pdfrwt>
<pdfrwt beam="2">  1       21 0.21123090E-03 0.47349682E+01</pdfrwt>
<totfact> 0.38779155E+09</totfact>
</mgrwt>
</event>
<event>
 4    1  0.4084348E+006  0.1116154E+02  0.7546771E-02  0.2014345E+00
         21   -1    0    0  503  502  0.00000000000E+00  0.00000000000E+00  0.13843423920E+04  0.13843423920E+04  0.00000000000E+00 0. -1.
         21   -1    0    0  501  503 -0.00000000000E+00 -0.00000000000E+00 -0.26266746414E+00  0.26266746414E+00  0.00000000000E+00 0.  1.
          5    1    1    2  501    0  0.10099137779E+02  0.70524264096E+00  0.13072324062E+03  0.13119887801E+03  0.47000000000E+01 0.  1.
         -5    1    1    2    0  502 -0.10099137779E+02 -0.70524264096E+00  0.12533564839E+04  0.12534061814E+04  0.47000000000E+01 0. -1.
<mgrwt>
<rscale>  2 0.11161539E+02</rscale>
<asrwt>0</asrwt>
<pdfrwt beam="1">  1       21 0.21296991E+00 0.11161539E+02</pdfrwt>
<pdfrwt beam="2">  1       21 0.40411488E-04 0.11161539E+02</pdfrwt>
<totfact> 0.40766856E+07</totfact>
</mgrwt>
</event>
<event>
 4    1  0.4084348E+006  0.4812331E+01  0.7546771E-02  0.2601563E+00
         21   -1    0    0  503  502  0.00000000000E+00  0.00000000000E+00  0.34831193874E+01  0.34831193874E+01  0.00000000000E+00 0.  1.
         21   -1    0    0  501  503 -0.00000000000E+00 -0.00000000000E+00 -0.95593691061E+01  0.95593691061E+01  0.00000000000E+00 0.  1.
          5    1    1    2  501    0  0.67322551105E+00 -0.78440870747E+00 -0.66364926385E+01  0.81976560156E+01  0.47000000000E+01 0.  1.
         -5    1    1    2    0  502 -0.67322551105E+00  0.78440870747E+00  0.56024291988E+00  0.48448324778E+01  0.47000000000E+01 0.  1.
<mgrwt>
<rscale>  2 0.48123310E+01</rscale>
<asrwt>0</asrwt>
<pdfrwt beam="1">  1       21 0.53586454E-03 0.48123310E+01</pdfrwt>
<pdfrwt beam="2">  1       21 0.14706721E-02 0.48123310E+01</pdfrwt>
<totfact> 0.35215827E+09</totfact>
</mgrwt>
</event>
<event>
 4    1  0.4084348E+006  0.4994207E+01  0.7546771E-02  0.2568183E+00
         21   -1    0    0  503  502  0.00000000000E+00  0.00000000000E+00  0.30968466175E+01  0.30968466175E+01  0.00000000000E+00 0. -1.
         21   -1    0    0  501  503 -0.00000000000E+00 -0.00000000000E+00 -0.12056276930E+02  0.12056276930E+02  0.00000000000E+00 0. -1.
          5    1    1    2  501    0 -0.10122938380E+01  0.13517995318E+01 -0.88450484670E+01  0.10157607158E+02  0.47000000000E+01 0. -1.
         -5    1    1    2    0  502  0.10122938380E+01 -0.13517995318E+01 -0.11438184507E+00  0.49955163892E+01  0.47000000000E+01 0. -1.
<mgrwt>
<rscale>  2 0.49942067E+01</rscale>
<asrwt>0</asrwt>
<pdfrwt beam="1">  1       21 0.47643795E-03 0.49942067E+01</pdfrwt>
<pdfrwt beam="2">  1       21 0.18548118E-02 0.49942067E+01</pdfrwt>
<totfact> 0.31019690E+09</totfact>
</mgrwt>
</event>
<event>
 4    1  0.4084348E+006  0.5109514E+01  0.7546771E-02  0.2548085E+00
         21   -1    0    0  501  502  0.00000000000E+00  0.00000000000E+00  0.68870839801E+03  0.68870839801E+03  0.00000000000E+00 0.  1.
         21   -1    0    0  502  503 -0.00000000000E+00 -0.00000000000E+00 -0.48457960501E-01  0.48457960501E-01  0.00000000000E+00 0.  1.
          5    1    1    2  501    0  0.31909261882E+00 -0.19787147229E+01  0.50502095701E+03  0.50504680392E+03  0.47000000000E+01 0.  1.
         -5    1    1    2    0  503 -0.31909261882E+00  0.19787147229E+01  0.18363898304E+03  0.18371005204E+03  0.47000000000E+01 0.  1.
<mgrwt>
<rscale>  2 0.51095139E+01</rscale>
<asrwt>0</asrwt>
<pdfrwt beam="1">  1       21 0.10594730E+00 0.51095139E+01</pdfrwt>
<pdfrwt beam="2">  1       21 0.74556224E-05 0.51095139E+01</pdfrwt>
<totfact> 0.12403820E+09</totfact>
</mgrwt>
</event>
<event>
 4    1  0.4084348E+006  0.6566064E+01  0.7546771E-02  0.2347099E+00
         21   -1    0    0  501  502  0.00000000000E+00  0.00000000000E+00  0.24028884271E+01  0.24028884271E+01  0.00000000000E+00 0.  1.
         21   -1    0    0  502  503 -0.00000000000E+00 -0.00000000000E+00 -0.18226603186E+02  0.18226603186E+02  0.00000000000E+00 0.  1.
          5    1    1    2  501    0  0.45096486513E+01 -0.82840989324E+00 -0.92002390931E+01  0.11302990457E+02  0.47000000000E+01 0.  1.
         -5    1    1    2    0  503 -0.45096486513E+01  0.82840989324E+00 -0.66234756654E+01  0.93265011553E+01  0.47000000000E+01 0.  1.
<mgrwt>
<rscale>  2 0.65660638E+01</rscale>
<asrwt>0</asrwt>
<pdfrwt beam="1">  1       21 0.36967514E-03 0.65660638E+01</pdfrwt>
<pdfrwt beam="2">  1       21 0.28040928E-02 0.65660638E+01</pdfrwt>
<totfact> 0.31309742E+09</totfact>
</mgrwt>
</event>
<event>
 4    1  0.4084348E+006  0.7831542E+01  0.7546771E-02  0.2224521E+00
         21   -1    0    0  503  502  0.00000000000E+00  0.00000000000E+00  0.51151526550E+01  0.51151526550E+01  0.00000000000E+00 0.  1.
         21   -1    0    0  501  503 -0.00000000000E+00 -0.00000000000E+00 -0.11990463175E+02  0.11990463175E+02  0.00000000000E+00 0.  1.
          5    1    1    2  501    0  0.16234525965E+01  0.60504091327E+01 -0.34384568688E+01  0.85531301080E+01  0.47000000000E+01 0.  1.
         -5    1    1    2    0  502 -0.16234525965E+01 -0.60504091327E+01 -0.34368536513E+01  0.85524857221E+01  0.47000000000E+01 0.  1.
<mgrwt>
<rscale>  2 0.78315419E+01</rscale>
<asrwt>0</asrwt>
<pdfrwt beam="1">  1       21 0.78694657E-03 0.78315419E+01</pdfrwt>
<pdfrwt beam="2">  1       21 0.18446866E-02 0.78315419E+01</pdfrwt>
<totfact> 0.22866726E+09</totfact>
</mgrwt>
</event>
<event>
 4    1  0.4084348E+006  0.6406990E+01  0.7546771E-02  0.2365283E+00
         21   -1    0    0  503  502  0.00000000000E+00  0.00000000000E+00  0.18061428471E+02  0.18061428471E+02  0.00000000000E+00 0.  1.
         21   -1    0    0  501  503 -0.00000000000E+00 -0.00000000000E+00 -0.39025590281E+01  0.39025590281E+01  0.00000000000E+00 0. -1.
          5    1    1    2  501    0 -0.12152322670E+01  0.41812355551E+01 -0.17516115575E-01  0.64070138945E+01  0.47000000000E+01 0. -1.
         -5    1    1    2    0  502  0.12152322670E+01 -0.41812355551E+01  0.14176385558E+02  0.15556973605E+02  0.47000000000E+01 0.  1.
<mgrwt>
<rscale>  2 0.64069900E+01</rscale>
<asrwt>0</asrwt>
<pdfrwt beam="1">  1       21 0.27786812E-02 0.64069900E+01</pdfrwt>
<pdfrwt beam="2">  1       21 0.60039371E-03 0.64069900E+01</pdfrwt>
<totfact> 0.15816618E+09</totfact>
</mgrwt>
</event>
<event>
 4    1  0.4084348E+006  0.5134349E+01  0.7546771E-02  0.2543858E+00
         21   -1    0    0  503  502  0.00000000000E+00  0.00000000000E+00  0.19559961876E+02  0.19559961876E+02  0.00000000000E+00 0.  1.
         21   -1    0    0  501  503 -0.00000000000E+00 -0.00000000000E+00 -0.26271199476E+01  0.26271199476E+01  0.00000000000E+00 0. -1.
          5    1    1    2  501    0  0.11796621220E+01  0.16970375353E+01  0.72480225876E+00  0.51852557731E+01  0.47000000000E+01 0. -1.
         -5    1    1    2    0  502 -0.11796621220E+01 -0.16970375353E+01  0.16208039670E+02  0.17001826051E+02  0.47000000000E+01 0.  1.
<mgrwt>
<rscale>  2 0.51343489E+01</rscale>
<asrwt>0</asrwt>
<pdfrwt beam="1">  1       21 0.30092248E-02 0.51343489E+01</pdfrwt>
<pdfrwt beam="2">  1       21 0.40417231E-03 0.51343489E+01</pdfrwt>
<totfact> 0.20040899E+09</totfact>
</mgrwt>
</event>
<event>
 4    1  0.4084348E+006  0.5599738E+01  0.7546771E-02  0.2470624E+00
         21   -1    0    0  503  502  0.00000000000E+00  0.00000000000E+00  0.27906724665E+03  0.27906724665E+03  0.00000000000E+00 0.  1.
         21   -1    0    0  501  503 -0.00000000000E+00 -0.00000000000E+00 -0.42211107409E+00  0.42211107409E+00  0.00000000000E+00 0.  1.
          5    1    1    2  501    0  0.18134749365E+01  0.24450722631E+01  0.19613893900E+02  0.20397595535E+02  0.47000000000E+01 0.  1.
         -5    1    1    2    0  502 -0.18134749365E+01 -0.24450722631E+01  0.25903124168E+03  0.25909176219E+03  0.47000000000E+01 0.  1.
<mgrwt>
<rscale>  2 0.55997384E+01</rscale>
<asrwt>0</asrwt>
<pdfrwt beam="1">  1       21 0.42933275E-01 0.55997384E+01</pdfrwt>
<pdfrwt beam="2">  1       21 0.64940388E-04 0.55997384E+01</pdfrwt>
<totfact> 0.40863990E+08</totfact>
</mgrwt>
</event>
<event>
 4    1  0.4084348E+006  0.7796324E+01  0.7546771E-02  0.2227490E+00
         21   -1    0    0  501  502  0.00000000000E+00  0.00000000000E+00  0.31548983520E+03  0.31548983520E+03  0.00000000000E+00 0. -1.
         21   -1    0    0  502  503 -0.00000000000E+00 -0.00000000000E+00 -0.26163506150E+00  0.26163506150E+00  0.00000000000E+00 0.  1.
          5    1    1    2  501    0 -0.11627004280E+01 -0.61107115774E+01  0.23867464234E+03  0.23880194213E+03  0.47000000000E+01 0. -1.
         -5    1    1    2    0  503  0.11627004280E+01  0.61107115774E+01  0.76553557800E+02  0.76949528135E+02  0.47000000000E+01 0.  1.
<mgrwt>
<rscale>  2 0.77963240E+01</rscale>
<asrwt>0</asrwt>
<pdfrwt beam="1">  1       21 0.48536593E-01 0.77963240E+01</pdfrwt>
<pdfrwt beam="2">  1       21 0.40251800E-04 0.77963240E+01</pdfrwt>
<totfact> 0.77695486E+08</totfact>
</mgrwt>
</event>
<event>
 4    1  0.4084348E+006  0.6803348E+01  0.7546771E-02  0.2321288E+00
         21   -1    0    0  501  502  0.00000000000E+00  0.00000000000E+00  0.10106998074E+03  0.10106998074E+03  0.00000000000E+00 0. -1.
         21   -1    0    0  502  503 -0.00000000000E+00 -0.00000000000E+00 -0.80359384205E+01  0.80359384205E+01  0.00000000000E+00 0.  1.
          5    1    1    2  501    0  0.46308773463E+01 -0.16584668930E+01  0.99492736805E+02  0.99725073148E+02  0.47000000000E+01 0. -1.
         -5    1    1    2    0  503 -0.46308773463E+01  0.16584668930E+01 -0.64586944862E+01  0.93808460118E+01  0.47000000000E+01 0.  1.
<mgrwt>
<rscale>  2 0.68033475E+01</rscale>
<asrwt>0</asrwt>
<pdfrwt beam="1">  1       21 0.15549227E-01 0.68033475E+01</pdfrwt>
<pdfrwt beam="2">  1       21 0.12362983E-02 0.68033475E+01</pdfrwt>
<totfact> 0.43554747E+07</totfact>
</mgrwt>
</event>
<event>
 4    1  0.4084348E+006  0.5458832E+01  0.7546771E-02  0.2491673E+00
         21   -1    0    0  503  502  0.00000000000E+00  0.00000000000E+00  0.73507283042E+02  0.73507283042E+02  0.00000000000E+00 0. -1.
         21   -1    0    0  501  503 -0.00000000000E+00 -0.00000000000E+00 -0.12018658359E+01  0.12018658359E+01  0.00000000000E+00 0. -1.
          5    1    1    2  501    0  0.39275902802E-01  0.27762034935E+01  0.57436414234E+01  0.79239046710E+01  0.47000000000E+01 0. -1.
         -5    1    1    2    0  502 -0.39275902802E-01 -0.27762034935E+01  0.66561775783E+02  0.66785244207E+02  0.47000000000E+01 0. -1.
<mgrwt>
<rscale>  2 0.54588321E+01</rscale>
<asrwt>0</asrwt>
<pdfrwt beam="1">  1       21 0.11308809E-01 0.54588321E+01</pdfrwt>
<pdfrwt beam="2">  1       21 0.18490249E-03 0.54588321E+01</pdfrwt>
<totfact> 0.86442601E+08</totfact>
</mgrwt>
</event>
<event>
 4    1  0.4084348E+006  0.6261659E+01  0.7546771E-02  0.2382564E+00
         21   -1    0    0  501  502  0.00000000000E+00  0.00000000000E+00  0.25850117392E+02  0.25850117392E+02  0.00000000000E+00 0.  1.
         21   -1    0    0  502  503 -0.00000000000E+00 -0.00000000000E+00 -0.15573044084E+01  0.15573044084E+01  0.00000000000E+00 0. -1.
          5    1    1    2  501    0  0.41356810413E+01  0.12046412872E+00  0.99352052811E+01  0.11743792967E+02  0.47000000000E+01 0. -1.
         -5    1    1    2    0  503 -0.41356810413E+01 -0.12046412872E+00  0.14357607702E+02  0.15663628833E+02  0.47000000000E+01 0.  1.
<mgrwt>
<rscale>  2 0.62616587E+01</rscale>
<asrwt>0</asrwt>
<pdfrwt beam="1">  1       21 0.39769408E-02 0.62616587E+01</pdfrwt>
<pdfrwt beam="2">  1       21 0.23958531E-03 0.62616587E+01</pdfrwt>
<totfact> 0.32751682E+09</totfact>
</mgrwt>
</event>
<event>
 4    1  0.4084348E+006  0.4957243E+01  0.7546771E-02  0.2574795E+00
         21   -1    0    0  501  502  0.00000000000E+00  0.00000000000E+00  0.23184001047E+02  0.23184001047E+02  0.00000000000E+00 0.  1.
         21   -1    0    0  502  503 -0.00000000000E+00 -0.00000000000E+00 -0.11917904342E+01  0.11917904342E+01  0.00000000000E+00 0.  1.
          5    1    1    2  501    0 -0.93264632000E+00 -0.12706022263E+01  0.15049569039E+02  0.15844992503E+02  0.47000000000E+01 0.  1.
         -5    1    1    2    0  503  0.93264632000E+00  0.12706022263E+01  0.69426415741E+01  0.85307989780E+01  0.47000000000E+01 0.  1.
<mgrwt>
<rscale>  2 0.49572431E+01</rscale>
<asrwt>0</asrwt>
<pdfrwt beam="1">  1       21 0.35667691E-02 0.49572431E+01</pdfrwt>
<pdfrwt beam="2">  1       21 0.18335239E-03 0.49572431E+01</pdfrwt>
<totfact> 0.44209150E+09</totfact>
</mgrwt>
</event>
<event>
 4    1  0.4084348E+006  0.5416697E+01  0.7546771E-02  0.2498148E+00
         21   -1    0    0  501  502  0.00000000000E+00  0.00000000000E+00  0.31821223561E+02  0.31821223561E+02  0.00000000000E+00 0.  1.
         21   -1    0    0  502  503 -0.00000000000E+00 -0.00000000000E+00 -0.12092209644E+01  0.12092209644E+01  0.00000000000E+00 0.  1.
          5    1    1    2  501    0  0.15316401040E+01  0.22146515305E+01  0.23354327460E+02  0.23974261488E+02  0.47000000000E+01 0.  1.
         -5    1    1    2    0  503 -0.15316401040E+01 -0.22146515305E+01  0.72576751370E+01  0.90561830373E+01  0.47000000000E+01 0.  1.
<mgrwt>
<rscale>  2 0.54166967E+01</rscale>
<asrwt>0</asrwt>
<pdfrwt beam="1">  1       21 0.48955722E-02 0.54166967E+01</pdfrwt>
<pdfrwt beam="2">  1       21 0.18603402E-03 0.54166967E+01</pdfrwt>
<totfact> 0.29893461E+09</totfact>
</mgrwt>
</event>
<event>
 4    1  0.4084348E+006  0.8266809E+01  0.7546771E-02  0.2189528E+00
         21   -1    0    0  501  502  0.00000000000E+00  0.00000000000E+00  0.16069717914E+03  0.16069717914E+03  0.00000000000E+00 0. -1.
         21   -1    0    0  502  503 -0.00000000000E+00 -0.00000000000E+00 -0.80278048706E+00  0.80278048706E+00  0.00000000000E+00 0. -1.
          5    1    1    2  501    0 -0.67779234940E+01 -0.55666873604E+00  0.13532133526E+03  0.13557361065E+03  0.47000000000E+01 0. -1.
         -5    1    1    2    0  503  0.67779234940E+01  0.55666873604E+00  0.24573063387E+02  0.25926348975E+02  0.47000000000E+01 0. -1.
<mgrwt>
<rscale>  2 0.82668088E+01</rscale>
<asrwt>0</asrwt>
<pdfrwt beam="1">  1       21 0.24722617E-01 0.82668088E+01</pdfrwt>
<pdfrwt beam="2">  1       21 0.12350482E-03 0.82668088E+01</pdfrwt>
<totfact> 0.57083443E+08</totfact>
</mgrwt>
</event>
<event>
 4    1  0.4084348E+006  0.5627717E+01  0.7546771E-02  0.2466551E+00
         21   -1    0    0  503  502  0.00000000000E+00  0.00000000000E+00  0.30680588573E+02  0.30680588573E+02  0.00000000000E+00 0.  1.
         21   -1    0    0  501  503 -0.00000000000E+00 -0.00000000000E+00 -0.17734374780E+01  0.17734374780E+01  0.00000000000E+00 0.  1.
          5    1    1    2  501    0 -0.13642300100E+01  0.27785030742E+01  0.39633807569E+01  0.68832833646E+01  0.47000000000E+01 0.  1.
         -5    1    1    2    0  502  0.13642300100E+01 -0.27785030742E+01  0.24943770338E+02  0.25570742687E+02  0.47000000000E+01 0.  1.
<mgrwt>
<rscale>  2 0.56277174E+01</rscale>
<asrwt>0</asrwt>
<pdfrwt beam="1">  1       21 0.47200902E-02 0.56277174E+01</pdfrwt>
<pdfrwt beam="2">  1       21 0.27283656E-03 0.56277174E+01</pdfrwt>
<totfact> 0.19414222E+09</totfact>
</mgrwt>
</event>
<event>
 4    1  0.4084348E+006  0.5120364E+01  0.7546771E-02  0.2546234E+00
         21   -1    0    0  503  502  0.00000000000E+00  0.00000000000E+00  0.52938459676E+01  0.52938459676E+01  0.00000000000E+00 0. -1.
         21   -1    0    0  501  503 -0.00000000000E+00 -0.00000000000E+00 -0.18483635431E+02  0.18483635431E+02  0.00000000000E+00 0.  1.
          5    1    1    2  501    0 -0.87373720945E+00  0.18343157056E+01 -0.16766937819E+02  0.17531352904E+02  0.47000000000E+01 0.  1.
         -5    1    1    2    0  502  0.87373720945E+00 -0.18343157056E+01  0.35771483553E+01  0.62461284949E+01  0.47000000000E+01 0. -1.
<mgrwt>
<rscale>  2 0.51203643E+01</rscale>
<asrwt>0</asrwt>
<pdfrwt beam="1">  1       21 0.81443785E-03 0.51203643E+01</pdfrwt>
<pdfrwt beam="2">  1       21 0.28436362E-02 0.51203643E+01</pdfrwt>
<totfact> 0.82457965E+08</totfact>
</mgrwt>
</event>
<event>
 4    1  0.4084348E+006  0.7064044E+01  0.7546771E-02  0.2294585E+00
         21   -1    0    0  501  502  0.00000000000E+00  0.00000000000E+00  0.16827927735E+02  0.16827927735E+02  0.00000000000E+00 0.  1.
         21   -1    0    0  502  503 -0.00000000000E+00 -0.00000000000E+00 -0.34371842535E+01  0.34371842535E+01  0.00000000000E+00 0. -1.
          5    1    1    2  501    0  0.52591947454E+01  0.38935072899E+00  0.10449521358E+02  0.12613216083E+02  0.47000000000E+01 0.  1.
         -5    1    1    2    0  503 -0.52591947454E+01 -0.38935072899E+00  0.29412221237E+01  0.76518959050E+01  0.47000000000E+01 0. -1.
<mgrwt>
<rscale>  2 0.70640444E+01</rscale>
<asrwt>0</asrwt>
<pdfrwt beam="1">  1       21 0.25889119E-02 0.70640444E+01</pdfrwt>
<pdfrwt beam="2">  1       21 0.52879759E-03 0.70640444E+01</pdfrwt>
<totfact> 0.22627366E+09</totfact>
</mgrwt>
</event>
<event>
 4    1  0.4084348E+006  0.5878030E+01  0.7546771E-02  0.2431574E+00
         21   -1    0    0  501  502  0.00000000000E+00  0.00000000000E+00  0.79525770488E+02  0.79525770488E+02  0.00000000000E+00 0. -1.
         21   -1    0    0  502  503 -0.00000000000E+00 -0.00000000000E+00 -0.44136393999E+00  0.44136393999E+00  0.00000000000E+00 0. -1.
          5    1    1    2  501    0 -0.83469653972E+00  0.34299446828E+01  0.44540760004E+02  0.44926946709E+02  0.47000000000E+01 0. -1.
         -5    1    1    2    0  503  0.83469653972E+00 -0.34299446828E+01  0.34543646544E+02  0.35040187719E+02  0.47000000000E+01 0. -1.
<mgrwt>
<rscale>  2 0.58780302E+01</rscale>
<asrwt>0</asrwt>
<pdfrwt beam="1">  1       21 0.12234723E-01 0.58780302E+01</pdfrwt>
<pdfrwt beam="2">  1       21 0.67902208E-04 0.58780302E+01</pdfrwt>
<totfact> 0.31271643E+09</totfact>
</mgrwt>
</event>
<event>
 4    1  0.4084348E+006  0.5234633E+01  0.7546771E-02  0.2527141E+00
         21   -1    0    0  501  502  0.00000000000E+00  0.00000000000E+00  0.24123612976E+00  0.24123612976E+00  0.00000000000E+00 0. -1.
         21   -1    0    0  502  503 -0.00000000000E+00 -0.00000000000E+00 -0.11358900773E+03  0.11358900773E+03  0.00000000000E+00 0. -1.
          5    1    1    2  501    0 -0.22986375289E+01 -0.16628133844E+00 -0.56888229176E+02  0.57128556806E+02  0.47000000000E+01 0. -1.
         -5    1    1    2    0  503  0.22986375289E+01  0.16628133844E+00 -0.56459542428E+02  0.56701687057E+02  0.47000000000E+01 0. -1.
<mgrwt>
<rscale>  2 0.52346331E+01</rscale>
<asrwt>0</asrwt>
<pdfrwt beam="1">  1       21 0.37113127E-04 0.52346331E+01</pdfrwt>
<pdfrwt beam="2">  1       21 0.17475290E-01 0.52346331E+01</pdfrwt>
<totfact> 0.36049210E+09</totfact>
</mgrwt>
</event>
<event>
 4    1  0.4084348E+006  0.6659331E+01  0.7546771E-02  0.2336773E+00
         21   -1    0    0  503  502  0.00000000000E+00  0.00000000000E+00  0.10477213855E+03  0.10477213855E+03  0.00000000000E+00 0.  1.
         21   -1    0    0  501  503 -0.00000000000E+00 -0.00000000000E+00 -0.82815056683E+00  0.82815056683E+00  0.00000000000E+00 0. -1.
          5    1    1    2  501    0 -0.35513337788E+01 -0.31055945139E+01  0.15053411099E+02  0.16460615864E+02  0.47000000000E+01 0. -1.
         -5    1    1    2    0  502  0.35513337788E+01  0.31055945139E+01  0.88890576883E+02  0.89139673252E+02  0.47000000000E+01 0.  1.
<mgrwt>
<rscale>  2 0.66593310E+01</rscale>
<asrwt>0</asrwt>
<pdfrwt beam="1">  1       21 0.16118780E-01 0.66593310E+01</pdfrwt>
<pdfrwt beam="2">  1       21 0.12740786E-03 0.66593310E+01</pdfrwt>
<totfact> 0.95864570E+08</totfact>
</mgrwt>
</event>
<event>
 4    1  0.4084348E+006  0.5024313E+01  0.7546771E-02  0.2562859E+00
         21   -1    0    0  503  502  0.00000000000E+00  0.00000000000E+00  0.74503753710E+02  0.74503753710E+02  0.00000000000E+00 0.  1.
         21   -1    0    0  501  503 -0.00000000000E+00 -0.00000000000E+00 -0.44874403577E+00  0.44874403577E+00  0.00000000000E+00 0. -1.
          5    1    1    2  501    0 -0.17652083280E+01 -0.19431699845E+00  0.18479653026E+02  0.19150490737E+02  0.47000000000E+01 0. -1.
         -5    1    1    2    0  502  0.17652083280E+01  0.19431699845E+00  0.55575356648E+02  0.55802007008E+02  0.47000000000E+01 0.  1.
<mgrwt>
<rscale>  2 0.50243128E+01</rscale>
<asrwt>0</asrwt>
<pdfrwt beam="1">  1       21 0.11462106E-01 0.50243128E+01</pdfrwt>
<pdfrwt beam="2">  1       21 0.69037603E-04 0.50243128E+01</pdfrwt>
<totfact> 0.29261628E+09</totfact>
</mgrwt>
</event>
<event>
 4    1  0.4084348E+006  0.5586579E+01  0.7546771E-02  0.2472552E+00
         21   -1    0    0  503  502  0.00000000000E+00  0.00000000000E+00  0.37844116196E+02  0.37844116196E+02  0.00000000000E+00 0. -1.
         21   -1    0    0  501  503 -0.00000000000E+00 -0.00000000000E+00 -0.10478808222E+01  0.10478808222E+01  0.00000000000E+00 0. -1.
          5    1    1    2  501    0 -0.21840736415E+01  0.20855910600E+01  0.94236802392E+01  0.10955163942E+02  0.47000000000E+01 0. -1.
         -5    1    1    2    0  502  0.21840736415E+01 -0.20855910600E+01  0.27372555135E+02  0.27936833077E+02  0.47000000000E+01 0. -1.
<mgrwt>
<rscale>  2 0.55865793E+01</rscale>
<asrwt>0</asrwt>
<pdfrwt beam="1">  1       21 0.58221707E-02 0.55865793E+01</pdfrwt>
<pdfrwt beam="2">  1       21 0.16121246E-03 0.55865793E+01</pdfrwt>
<totfact> 0.28881798E+09</totfact>
</mgrwt>
</event>
<event>
 4    1  0.4084348E+006  0.1157316E+02  0.7546771E-02  0.1995157E+00
         21   -1    0    0  501  502  0.00000000000E+00  0.00000000000E+00  0.33738648482E+01  0.33738648482E+01  0.00000000000E+00 0. -1.
         21   -1    0    0  502  503 -0.00000000000E+00 -0.00000000000E+00 -0.47152280915E+02  0.47152280915E+02  0.00000000000E+00 0.  1.
          5    1    1    2  501    0 -0.10527384365E+02  0.10110660171E+01 -0.11844968322E+02  0.16560234014E+02  0.47000000000E+01 0. -1.
         -5    1    1    2    0  503  0.10527384365E+02 -0.10110660171E+01 -0.31933447745E+02  0.33965911749E+02  0.47000000000E+01 0.  1.
<mgrwt>
<rscale>  2 0.11573162E+02</rscale>
<asrwt>0</asrwt>
<pdfrwt beam="1">  1       21 0.51905611E-03 0.11573162E+02</pdfrwt>
<pdfrwt beam="2">  1       21 0.72541973E-02 0.11573162E+02</pdfrwt>
<totfact> 0.66774718E+08</totfact>
</mgrwt>
</event>
<event>
 4    1  0.4084348E+006  0.8457558E+01  0.7546771E-02  0.2175111E+00
         21   -1    0    0  503  502  0.00000000000E+00  0.00000000000E+00  0.85825832744E+00  0.85825832744E+00  0.00000000000E+00 0. -1.
         21   -1    0    0  501  503 -0.00000000000E+00 -0.00000000000E+00 -0.10507587951E+03  0.10507587951E+03  0.00000000000E+00 0. -1.
          5    1    1    2  501    0 -0.65307950728E+00 -0.70009835487E+01 -0.76197196930E+02  0.76665136167E+02  0.47000000000E+01 0. -1.
         -5    1    1    2    0  502  0.65307950728E+00  0.70009835487E+01 -0.28020424249E+02  0.29269001667E+02  0.47000000000E+01 0. -1.
<mgrwt>
<rscale>  2 0.84575578E+01</rscale>
<asrwt>0</asrwt>
<pdfrwt beam="1">  1       21 0.13203981E-03 0.84575578E+01</pdfrwt>
<pdfrwt beam="2">  1       21 0.16165512E-01 0.84575578E+01</pdfrwt>
<totfact> 0.10663579E+09</totfact>
</mgrwt>
</event>
<event>
 4    1  0.4084348E+006  0.6403169E+01  0.7546771E-02  0.2365729E+00
         21   -1    0    0  501  502  0.00000000000E+00  0.00000000000E+00  0.36754677822E+01  0.36754677822E+01  0.00000000000E+00 0.  1.
         21   -1    0    0  502  503 -0.00000000000E+00 -0.00000000000E+00 -0.52371873194E+02  0.52371873194E+02  0.00000000000E+00 0. -1.
          5    1    1    2  501    0 -0.94675125626E-01  0.43475980417E+01  0.51244504051E+00  0.64236416487E+01  0.47000000000E+01 0.  1.
         -5    1    1    2    0  503  0.94675125626E-01 -0.43475980417E+01 -0.49208850452E+02  0.49623699327E+02  0.47000000000E+01 0. -1.
<mgrwt>
<rscale>  2 0.64031689E+01</rscale>
<asrwt>0</asrwt>
<pdfrwt beam="1">  1       21 0.56545657E-03 0.64031689E+01</pdfrwt>
<pdfrwt beam="2">  1       21 0.80572114E-02 0.64031689E+01</pdfrwt>
<totfact> 0.35297245E+08</totfact>
</mgrwt>
</event>
<event>
 4    1  0.4084348E+006  0.5248392E+01  0.7546771E-02  0.2524890E+00
         21   -1    0    0  501  502  0.00000000000E+00  0.00000000000E+00  0.61679399924E+01  0.61679399924E+01  0.00000000000E+00 0.  1.
         21   -1    0    0  502  503 -0.00000000000E+00 -0.00000000000E+00 -0.70760111622E+01  0.70760111622E+01  0.00000000000E+00 0.  1.
          5    1    1    2  501    0  0.46286625589E+00 -0.22894046265E+01  0.35677592796E+01  0.63462213160E+01  0.47000000000E+01 0.  1.
         -5    1    1    2    0  503 -0.46286625589E+00  0.22894046265E+01 -0.44758304493E+01  0.68977298386E+01  0.47000000000E+01 0.  1.
<mgrwt>
<rscale>  2 0.52483920E+01</rscale>
<asrwt>0</asrwt>
<pdfrwt beam="1">  1       21 0.94891384E-03 0.52483920E+01</pdfrwt>
<pdfrwt beam="2">  1       21 0.10886171E-02 0.52483920E+01</pdfrwt>
<totfact> 0.26615246E+09</totfact>
</mgrwt>
</event>
<event>
 4    1  0.4084348E+006  0.6337735E+01  0.7546771E-02  0.2373436E+00
         21   -1    0    0  501  502  0.00000000000E+00  0.00000000000E+00  0.44372727913E+02  0.44372727913E+02  0.00000000000E+00 0. -1.
         21   -1    0    0  502  503 -0.00000000000E+00 -0.00000000000E+00 -0.11027832084E+01  0.11027832084E+01  0.00000000000E+00 0.  1.
          5    1    1    2  501    0 -0.37162591001E+01 -0.20655033732E+01  0.31259078034E+02  0.31895091243E+02  0.47000000000E+01 0. -1.
         -5    1    1    2    0  503  0.37162591001E+01  0.20655033732E+01  0.12010866671E+02  0.13580419878E+02  0.47000000000E+01 0.  1.
<mgrwt>
<rscale>  2 0.63377351E+01</rscale>
<asrwt>0</asrwt>
<pdfrwt beam="1">  1       21 0.68265722E-02 0.63377351E+01</pdfrwt>
<pdfrwt beam="2">  1       21 0.16965899E-03 0.63377351E+01</pdfrwt>
<totfact> 0.23687808E+09</totfact>
</mgrwt>
</event>
<event>
 4    1  0.4084348E+006  0.4785810E+01  0.7546771E-02  0.2606614E+00
         21   -1    0    0  503  502  0.00000000000E+00  0.00000000000E+00  0.11678339945E+03  0.11678339945E+03  0.00000000000E+00 0.  1.
         21   -1    0    0  501  503 -0.00000000000E+00 -0.00000000000E+00 -0.20336061057E+00  0.20336061057E+00  0.00000000000E+00 0.  1.
          5    1    1    2  501    0  0.40233878792E+00 -0.80752670303E+00  0.47255481602E+02  0.47497205363E+02  0.47000000000E+01 0.  1.
         -5    1    1    2    0  502 -0.40233878792E+00  0.80752670303E+00  0.69324557241E+02  0.69489554701E+02  0.47000000000E+01 0.  1.
<mgrwt>
<rscale>  2 0.47858098E+01</rscale>
<asrwt>0</asrwt>
<pdfrwt beam="1">  1       21 0.17966623E-01 0.47858098E+01</pdfrwt>
<pdfrwt beam="2">  1       21 0.31286341E-04 0.47858098E+01</pdfrwt>
<totfact> 0.39640729E+09</totfact>
</mgrwt>
</event>
<event>
 4    1  0.4084348E+006  0.6620654E+01  0.7546771E-02  0.2341026E+00
         21   -1    0    0  501  502  0.00000000000E+00  0.00000000000E+00  0.57489494053E+01  0.57489494053E+01  0.00000000000E+00 0.  1.
         21   -1    0    0  502  503 -0.00000000000E+00 -0.00000000000E+00 -0.78940416002E+01  0.78940416002E+01  0.00000000000E+00 0. -1.
          5    1    1    2  501    0 -0.10385534165E+00 -0.46617885937E+01 -0.23329669912E+01  0.70196719159E+01  0.47000000000E+01 0.  1.
         -5    1    1    2    0  503  0.10385534165E+00  0.46617885937E+01  0.18787479632E+00  0.66233190897E+01  0.47000000000E+01 0.  1.
<mgrwt>
<rscale>  2 0.66206540E+01</rscale>
<asrwt>0</asrwt>
<pdfrwt beam="1">  1       21 0.88445376E-03 0.66206540E+01</pdfrwt>
<pdfrwt beam="2">  1       21 0.12144679E-02 0.66206540E+01</pdfrwt>
<totfact> 0.31039597E+09</totfact>
</mgrwt>
</event>
<event>
 4    1  0.4084348E+006  0.6702851E+01  0.7546771E-02  0.2332036E+00
         21   -1    0    0  503  502  0.00000000000E+00  0.00000000000E+00  0.19624242582E+01  0.19624242582E+01  0.00000000000E+00 0.  1.
         21   -1    0    0  501  503 -0.00000000000E+00 -0.00000000000E+00 -0.90077646881E+02  0.90077646881E+02  0.00000000000E+00 0. -1.
          5    1    1    2  501    0 -0.16703295724E+01  0.44775230556E+01 -0.83801416249E+02  0.84069052445E+02  0.47000000000E+01 0. -1.
         -5    1    1    2    0  502  0.16703295724E+01 -0.44775230556E+01 -0.43138063732E+01  0.79710186939E+01  0.47000000000E+01 0.  1.
<mgrwt>
<rscale>  2 0.67028512E+01</rscale>
<asrwt>0</asrwt>
<pdfrwt beam="1">  1       21 0.30191138E-03 0.67028512E+01</pdfrwt>
<pdfrwt beam="2">  1       21 0.13858102E-01 0.67028512E+01</pdfrwt>
<totfact> 0.37581187E+08</totfact>
</mgrwt>
</event>
<event>
 4    1  0.4084348E+006  0.5895811E+01  0.7546771E-02  0.2429184E+00
         21   -1    0    0  501  502  0.00000000000E+00  0.00000000000E+00  0.63326579273E+03  0.63326579273E+03  0.00000000000E+00 0. -1.
         21   -1    0    0  502  503 -0.00000000000E+00 -0.00000000000E+00 -0.56595335759E-01  0.56595335759E-01  0.00000000000E+00 0. -1.
          5    1    1    2  501    0 -0.19284507500E+01  0.29919341238E+01  0.37155643503E+03  0.37160320909E+03  0.47000000000E+01 0. -1.
         -5    1    1    2    0  503  0.19284507500E+01 -0.29919341238E+01  0.26165276237E+03  0.26171917898E+03  0.47000000000E+01 0. -1.
<mgrwt>
<rscale>  2 0.58958114E+01</rscale>
<asrwt>0</asrwt>
<pdfrwt beam="1">  1       21 0.97419833E-01 0.58958114E+01</pdfrwt>
<pdfrwt beam="2">  1       21 0.87074818E-05 0.58958114E+01</pdfrwt>
<totfact> 0.13273760E+09</totfact>
</mgrwt>
</event>
<event>
 4    1  0.4084348E+006  0.7320689E+01  0.7546771E-02  0.2269829E+00
         21   -1    0    0  501  502  0.00000000000E+00  0.00000000000E+00  0.55884825847E+00  0.55884825847E+00  0.00000000000E+00 0.  1.
         21   -1    0    0  502  503 -0.00000000000E+00 -0.00000000000E+00 -0.10014314185E+03  0.10014314185E+03  0.00000000000E+00 0.  1.
          5    1    1    2  501    0  0.28973710117E+01 -0.48070496819E+01 -0.39425495073E+02  0.40099403327E+02  0.47000000000E+01 0.  1.
         -5    1    1    2    0  503 -0.28973710117E+01  0.48070496819E+01 -0.60158798520E+02  0.60602586783E+02  0.47000000000E+01 0.  1.
<mgrwt>
<rscale>  2 0.73206889E+01</rscale>
<asrwt>0</asrwt>
<pdfrwt beam="1">  1       21 0.85976775E-04 0.73206889E+01</pdfrwt>
<pdfrwt beam="2">  1       21 0.15406616E-01 0.73206889E+01</pdfrwt>
<totfact> 0.18801054E+09</totfact>
</mgrwt>
</event>
<event>
 4    1  0.4084348E+006  0.6949596E+01  0.7546771E-02  0.2306105E+00
         21   -1    0    0  501  502  0.00000000000E+00  0.00000000000E+00  0.35859252630E+01  0.35859252630E+01  0.00000000000E+00 0.  1.
         21   -1    0    0  502  503 -0.00000000000E+00 -0.00000000000E+00 -0.21000211641E+02  0.21000211641E+02  0.00000000000E+00 0.  1.
          5    1    1    2  501    0  0.51162653051E+01  0.17525011296E+00 -0.13451311829E+01  0.70785776236E+01  0.47000000000E+01 0.  1.
         -5    1    1    2    0  503 -0.51162653051E+01 -0.17525011296E+00 -0.16069155195E+02  0.17507559280E+02  0.47000000000E+01 0.  1.
<mgrwt>
<rscale>  2 0.69495959E+01</rscale>
<asrwt>0</asrwt>
<pdfrwt beam="1">  1       21 0.55168082E-03 0.69495959E+01</pdfrwt>
<pdfrwt beam="2">  1       21 0.32308017E-02 0.69495959E+01</pdfrwt>
<totfact> 0.15213988E+09</totfact>
</mgrwt>
</event>
<event>
 4    1  0.4084348E+006  0.7828414E+01  0.7546771E-02  0.2224784E+00
         21   -1    0    0  503  502  0.00000000000E+00  0.00000000000E+00  0.19465304880E+01  0.19465304880E+01  0.00000000000E+00 0. -1.
         21   -1    0    0  501  503 -0.00000000000E+00 -0.00000000000E+00 -0.35115433102E+02  0.35115433102E+02  0.00000000000E+00 0.  1.
          5    1    1    2  501    0 -0.31402462215E+01  0.54159870579E+01 -0.22543870194E+02  0.23864411693E+02  0.47000000000E+01 0.  1.
         -5    1    1    2    0  502  0.31402462215E+01 -0.54159870579E+01 -0.10625032420E+02  0.13197551897E+02  0.47000000000E+01 0. -1.
<mgrwt>
<rscale>  2 0.78284138E+01</rscale>
<asrwt>0</asrwt>
<pdfrwt beam="1">  1       21 0.29946623E-03 0.78284138E+01</pdfrwt>
<pdfrwt beam="2">  1       21 0.54023743E-02 0.78284138E+01</pdfrwt>
<totfact> 0.18121663E+09</totfact>
</mgrwt>
</event>
<event>
 4    1  0.4084348E+006  0.6837248E+01  0.7546771E-02  0.2317721E+00
         21   -1    0    0  503  502  0.00000000000E+00  0.00000000000E+00  0.15996915118E+03  0.15996915118E+03  0.00000000000E+00 0.  1.
         21   -1    0    0  501  503 -0.00000000000E+00 -0.00000000000E+00 -0.46147570429E+00  0.46147570429E+00  0.00000000000E+00 0.  1.
          5    1    1    2  501    0 -0.12941121761E+01  0.47940833942E+01  0.31175765890E+02  0.31916709428E+02  0.47000000000E+01 0.  1.
         -5    1    1    2    0  502  0.12941121761E+01 -0.47940833942E+01  0.12833190959E+03  0.12851391746E+03  0.47000000000E+01 0.  1.
<mgrwt>
<rscale>  2 0.68372481E+01</rscale>
<asrwt>0</asrwt>
<pdfrwt beam="1">  1       21 0.24610594E-01 0.68372481E+01</pdfrwt>
<pdfrwt beam="2">  1       21 0.70996390E-04 0.68372481E+01</pdfrwt>
<totfact> 0.10804807E+09</totfact>
</mgrwt>
</event>
<event>
 4    1  0.4084348E+006  0.4879642E+01  0.7546771E-02  0.2588958E+00
         21   -1    0    0  501  502  0.00000000000E+00  0.00000000000E+00  0.11162710134E+04  0.11162710134E+04  0.00000000000E+00 0. -1.
         21   -1    0    0  502  503 -0.00000000000E+00 -0.00000000000E+00 -0.23951935231E-01  0.23951935231E-01  0.00000000000E+00 0. -1.
          5    1    1    2  501    0  0.77426246922E+00  0.10589736228E+01  0.74276396407E+03  0.74277999248E+03  0.47000000000E+01 0. -1.
         -5    1    1    2    0  503 -0.77426246922E+00 -0.10589736228E+01  0.37348309739E+03  0.37351497285E+03  0.47000000000E+01 0. -1.
<mgrwt>
<rscale>  2 0.48796421E+01</rscale>
<asrwt>0</asrwt>
<pdfrwt beam="1">  1       21 0.17169234E+00 0.48796421E+01</pdfrwt>
<pdfrwt beam="2">  1       21 0.36858072E-05 0.48796421E+01</pdfrwt>
<totfact> 0.11341321E+09</totfact>
</mgrwt>
</event>
<event>
 4    1  0.4084348E+006  0.7553267E+01  0.7546771E-02  0.2248585E+00
         21   -1    0    0  503  502  0.00000000000E+00  0.00000000000E+00  0.36221885066E+00  0.36221885066E+00  0.00000000000E+00 0. -1.
         21   -1    0    0  501  503 -0.00000000000E+00 -0.00000000000E+00 -0.21908643969E+03  0.21908643969E+03  0.00000000000E+00 0. -1.
          5    1    1    2  501    0 -0.58059190624E+01 -0.11194391745E+01 -0.16753419832E+03  0.16770438112E+03  0.47000000000E+01 0. -1.
         -5    1    1    2    0  502  0.58059190624E+01  0.11194391745E+01 -0.51190022521E+02  0.51744277422E+02  0.47000000000E+01 0. -1.
<mgrwt>
<rscale>  2 0.75532669E+01</rscale>
<asrwt>0</asrwt>
<pdfrwt beam="1">  1       21 0.55725993E-04 0.75532669E+01</pdfrwt>
<pdfrwt beam="2">  1       21 0.33705596E-01 0.75532669E+01</pdfrwt>
<totfact> 0.93895728E+08</totfact>
</mgrwt>
</event>
<event>
 4    1  0.4084348E+006  0.5973207E+01  0.7546771E-02  0.2418924E+00
         21   -1    0    0  501  502  0.00000000000E+00  0.00000000000E+00  0.12313783690E+02  0.12313783690E+02  0.00000000000E+00 0.  1.
         21   -1    0    0  502  503 -0.00000000000E+00 -0.00000000000E+00 -0.54439570338E+01  0.54439570338E+01  0.00000000000E+00 0.  1.
          5    1    1    2  501    0  0.36013383573E+01 -0.78712052576E+00  0.95074268210E+01  0.11228105871E+02  0.47000000000E+01 0.  1.
         -5    1    1    2    0  503 -0.36013383573E+01  0.78712052576E+00 -0.26376001649E+01  0.65296348532E+01  0.47000000000E+01 0.  1.
<mgrwt>
<rscale>  2 0.59732066E+01</rscale>
<asrwt>0</asrwt>
<pdfrwt beam="1">  1       21 0.18944282E-02 0.59732066E+01</pdfrwt>
<pdfrwt beam="2">  1       21 0.83753186E-03 0.59732066E+01</pdfrwt>
<totfact> 0.16266555E+09</totfact>
</mgrwt>
</event>
<event>
 4    1  0.4084348E+006  0.6105795E+01  0.7546771E-02  0.2401854E+00
         21   -1    0    0  501  502  0.00000000000E+00  0.00000000000E+00  0.44589330285E+00  0.44589330285E+00  0.00000000000E+00 0.  1.
         21   -1    0    0  502  503 -0.00000000000E+00 -0.00000000000E+00 -0.83722157689E+02  0.83722157689E+02  0.00000000000E+00 0. -1.
          5    1    1    2  501    0  0.35747774805E+01  0.15529650269E+01 -0.43184673397E+02  0.43614180616E+02  0.47000000000E+01 0. -1.
         -5    1    1    2    0  503 -0.35747774805E+01 -0.15529650269E+01 -0.40091590989E+02  0.40553870376E+02  0.47000000000E+01 0. -1.
<mgrwt>
<rscale>  2 0.61057951E+01</rscale>
<asrwt>0</asrwt>
<pdfrwt beam="1">  1       21 0.68599019E-04 0.61057951E+01</pdfrwt>
<pdfrwt beam="2">  1       21 0.12880323E-01 0.61057951E+01</pdfrwt>
<totfact> 0.29410487E+09</totfact>
</mgrwt>
</event>
<event>
 4    1  0.4084348E+006  0.5034949E+01  0.7546771E-02  0.2560991E+00
         21   -1    0    0  503  502  0.00000000000E+00  0.00000000000E+00  0.28501976779E+02  0.28501976779E+02  0.00000000000E+00 0. -1.
         21   -1    0    0  501  503 -0.00000000000E+00 -0.00000000000E+00 -0.51299287082E+01  0.51299287082E+01  0.00000000000E+00 0.  1.
          5    1    1    2  501    0  0.10479480734E+01 -0.14705504266E+01 -0.36027943155E+01  0.61911905641E+01  0.47000000000E+01 0.  1.
         -5    1    1    2    0  502 -0.10479480734E+01  0.14705504266E+01  0.26974842386E+02  0.27440714923E+02  0.47000000000E+01 0. -1.
<mgrwt>
<rscale>  2 0.50349492E+01</rscale>
<asrwt>0</asrwt>
<pdfrwt beam="1">  1       21 0.43849194E-02 0.50349492E+01</pdfrwt>
<pdfrwt beam="2">  1       21 0.78921982E-03 0.50349492E+01</pdfrwt>
<totfact> 0.45378199E+08</totfact>
</mgrwt>
</event>
<event>
 4    1  0.4084348E+006  0.5540292E+01  0.7546771E-02  0.2479394E+00
         21   -1    0    0  503  502  0.00000000000E+00  0.00000000000E+00  0.39782604076E+01  0.39782604076E+01  0.00000000000E+00 0. -1.
         21   -1    0    0  501  503 -0.00000000000E+00 -0.00000000000E+00 -0.10368852979E+02  0.10368852979E+02  0.00000000000E+00 0. -1.
          5    1    1    2  501    0  0.11965088645E+00  0.29309585032E+01 -0.68240295759E+01  0.87898927032E+01  0.47000000000E+01 0. -1.
         -5    1    1    2    0  502 -0.11965088645E+00 -0.29309585032E+01  0.43343700480E+00  0.55572206830E+01  0.47000000000E+01 0. -1.
<mgrwt>
<rscale>  2 0.55402919E+01</rscale>
<asrwt>0</asrwt>
<pdfrwt beam="1">  1       21 0.61204007E-03 0.55402919E+01</pdfrwt>
<pdfrwt beam="2">  1       21 0.15952081E-02 0.55402919E+01</pdfrwt>
<totfact> 0.30132908E+09</totfact>
</mgrwt>
</event>
<event>
 4    1  0.4084348E+006  0.4834253E+01  0.7546771E-02  0.2597425E+00
         21   -1    0    0  501  502  0.00000000000E+00  0.00000000000E+00  0.37184431515E+01  0.37184431515E+01  0.00000000000E+00 0. -1.
         21   -1    0    0  502  503 -0.00000000000E+00 -0.00000000000E+00 -0.81919982926E+01  0.81919982926E+01  0.00000000000E+00 0. -1.
          5    1    1    2  501    0  0.89009775418E+00  0.69837465023E+00  0.63658722781E+00  0.48759865117E+01  0.47000000000E+01 0. -1.
         -5    1    1    2    0  503 -0.89009775418E+00 -0.69837465023E+00 -0.51101423689E+01  0.70344549323E+01  0.47000000000E+01 0. -1.
<mgrwt>
<rscale>  2 0.48342529E+01</rscale>
<asrwt>0</asrwt>
<pdfrwt beam="1">  1       21 0.57206818E-03 0.48342529E+01</pdfrwt>
<pdfrwt beam="2">  1       21 0.12603074E-02 0.48342529E+01</pdfrwt>
<totfact> 0.40158176E+09</totfact>
</mgrwt>
</event>
<event>
 4    1  0.4084348E+006  0.5805151E+01  0.7546771E-02  0.2441495E+00
         21   -1    0    0  503  502  0.00000000000E+00  0.00000000000E+00  0.71985240713E-01  0.71985240713E-01  0.00000000000E+00 0.  1.
         21   -1    0    0  501  503 -0.00000000000E+00 -0.00000000000E+00 -0.57974212023E+03  0.57974212023E+03  0.00000000000E+00 0. -1.
          5    1    1    2  501    0 -0.33488817001E+01  0.62830463782E+00 -0.41702748708E+03  0.41706788986E+03  0.47000000000E+01 0. -1.
         -5    1    1    2    0  502  0.33488817001E+01 -0.62830463782E+00 -0.16264264791E+03  0.16274621561E+03  0.47000000000E+01 0.  1.
<mgrwt>
<rscale>  2 0.58051508E+01</rscale>
<asrwt>0</asrwt>
<pdfrwt beam="1">  1       21 0.11075080E-04 0.58051508E+01</pdfrwt>
<pdfrwt beam="2">  1       21 0.89187648E-01 0.58051508E+01</pdfrwt>
<totfact> 0.11363483E+09</totfact>
</mgrwt>
</event>
<event>
 4    1  0.4084348E+006  0.5208357E+01  0.7546771E-02  0.2531468E+00
         21   -1    0    0  501  502  0.00000000000E+00  0.00000000000E+00  0.23441940880E-01  0.23441940880E-01  0.00000000000E+00 0.  1.
         21   -1    0    0  502  503 -0.00000000000E+00 -0.00000000000E+00 -0.12496502587E+04  0.12496502587E+04  0.00000000000E+00 0. -1.
          5    1    1    2  501    0  0.19615155579E+01  0.10906154709E+01 -0.45486021729E+03  0.45489003535E+03  0.47000000000E+01 0.  1.
         -5    1    1    2    0  503 -0.19615155579E+01 -0.10906154709E+01 -0.79476659946E+03  0.79478366529E+03  0.47000000000E+01 0. -1.
<mgrwt>
<rscale>  2 0.52083573E+01</rscale>
<asrwt>0</asrwt>
<pdfrwt beam="1">  1       21 0.36063084E-05 0.52083573E+01</pdfrwt>
<pdfrwt beam="2">  1       21 0.19226156E+00 0.52083573E+01</pdfrwt>
<totfact> 0.95585090E+08</totfact>
</mgrwt>
</event>
<event>
 4    1  0.4084348E+006  0.1518958E+02  0.7546771E-02  0.1862338E+00
         21   -1    0    0  503  502  0.00000000000E+00  0.00000000000E+00  0.11353309372E+02  0.11353309372E+02  0.00000000000E+00 0. -1.
         21   -1    0    0  501  503 -0.00000000000E+00 -0.00000000000E+00 -0.10799380919E+03  0.10799380919E+03  0.00000000000E+00 0.  1.
          5    1    1    2  501    0 -0.12309254655E+02 -0.75574762518E+01 -0.10208680672E+03  0.10321065499E+03  0.47000000000E+01 0.  1.
         -5    1    1    2    0  502  0.12309254655E+02  0.75574762518E+01  0.54463069070E+01  0.16136463565E+02  0.47000000000E+01 0. -1.
<mgrwt>
<rscale>  2 0.15189575E+02</rscale>
<asrwt>0</asrwt>
<pdfrwt beam="1">  1       21 0.17466629E-02 0.15189575E+02</pdfrwt>
<pdfrwt beam="2">  1       21 0.16614433E-01 0.15189575E+02</pdfrwt>
<totfact> 0.32624526E+07</totfact>
</mgrwt>
</event>
<event>
 4    1  0.4084348E+006  0.6943943E+01  0.7546771E-02  0.2306682E+00
         21   -1    0    0  501  502  0.00000000000E+00  0.00000000000E+00  0.47340620499E+02  0.47340620499E+02  0.00000000000E+00 0. -1.
         21   -1    0    0  502  503 -0.00000000000E+00 -0.00000000000E+00 -0.11359495606E+01  0.11359495606E+01  0.00000000000E+00 0.  1.
          5    1    1    2  501    0  0.51017100924E+01  0.31764078007E+00  0.30894768572E+02  0.31665518576E+02  0.47000000000E+01 0. -1.
         -5    1    1    2    0  503 -0.51017100924E+01 -0.31764078007E+00  0.15309902366E+02  0.16811051483E+02  0.47000000000E+01 0.  1.
<mgrwt>
<rscale>  2 0.69439428E+01</rscale>
<asrwt>0</asrwt>
<pdfrwt beam="1">  1       21 0.72831709E-02 0.69439428E+01</pdfrwt>
<pdfrwt beam="2">  1       21 0.17476151E-03 0.69439428E+01</pdfrwt>
<totfact> 0.22167569E+09</totfact>
</mgrwt>
</event>
<event>
 4    1  0.4084348E+006  0.4717449E+01  0.7546771E-02  0.2619859E+00
         21   -1    0    0  503  502  0.00000000000E+00  0.00000000000E+00  0.16496299545E+02  0.16496299545E+02  0.00000000000E+00 0. -1.
         21   -1    0    0  501  503 -0.00000000000E+00 -0.00000000000E+00 -0.30074528621E+01  0.30074528621E+01  0.00000000000E+00 0. -1.
          5    1    1    2  501    0  0.34831694706E+00  0.20736190583E+00 -0.49716540867E+00  0.47435742957E+01  0.47000000000E+01 0. -1.
         -5    1    1    2    0  502 -0.34831694706E+00 -0.20736190583E+00  0.13986012091E+02  0.14760178111E+02  0.47000000000E+01 0. -1.
<mgrwt>
<rscale>  2 0.47174489E+01</rscale>
<asrwt>0</asrwt>
<pdfrwt beam="1">  1       21 0.25378922E-02 0.47174489E+01</pdfrwt>
<pdfrwt beam="2">  1       21 0.46268507E-03 0.47174489E+01</pdfrwt>
<totfact> 0.19516427E+09</totfact>
</mgrwt>
</event>
<event>
 4    1  0.4084348E+006  0.5215275E+01  0.7546771E-02  0.2530325E+00
         21   -1    0    0  503  502  0.00000000000E+00  0.00000000000E+00  0.74135299100E+01  0.74135299100E+01  0.00000000000E+00 0. -1.
         21   -1    0    0  501  503 -0.00000000000E+00 -0.00000000000E+00 -0.56913429423E+02  0.56913429423E+02  0.00000000000E+00 0. -1.
          5    1    1    2  501    0 -0.47374426736E+00 -0.22101275554E+01 -0.55859473871E+02  0.56102405640E+02  0.47000000000E+01 0. -1.
         -5    1    1    2    0  502  0.47374426736E+00  0.22101275554E+01  0.63595743578E+01  0.82245536933E+01  0.47000000000E+01 0. -1.
<mgrwt>
<rscale>  2 0.52152754E+01</rscale>
<asrwt>0</asrwt>
<pdfrwt beam="1">  1       21 0.11405431E-02 0.52152754E+01</pdfrwt>
<pdfrwt beam="2">  1       21 0.87559121E-02 0.52152754E+01</pdfrwt>
<totfact> 0.10046923E+08</totfact>
</mgrwt>
</event>
<event>
 4    1  0.4084348E+006  0.8350754E+01  0.7546771E-02  0.2183118E+00
         21   -1    0    0  503  502  0.00000000000E+00  0.00000000000E+00  0.47184367401E+00  0.47184367401E+00  0.00000000000E+00 0.  1.
         21   -1    0    0  501  503 -0.00000000000E+00 -0.00000000000E+00 -0.15673613161E+03  0.15673613161E+03  0.00000000000E+00 0.  1.
          5    1    1    2  501    0  0.12652905780E+01  0.67855825441E+01 -0.96908445281E+02  0.97267578656E+02  0.47000000000E+01 0.  1.
         -5    1    1    2    0  502 -0.12652905780E+01 -0.67855825441E+01 -0.59355842657E+02  0.59940396630E+02  0.47000000000E+01 0.  1.
<mgrwt>
<rscale>  2 0.83507539E+01</rscale>
<asrwt>0</asrwt>
<pdfrwt beam="1">  1       21 0.72591352E-04 0.83507539E+01</pdfrwt>
<pdfrwt beam="2">  1       21 0.24113245E-01 0.83507539E+01</pdfrwt>
<totfact> 0.12383012E+09</totfact>
</mgrwt>
</event>
<event>
 4    1  0.4084348E+006  0.5196093E+01  0.7546771E-02  0.2533500E+00
         21   -1    0    0  501  502  0.00000000000E+00  0.00000000000E+00  0.72392445117E+01  0.72392445117E+01  0.00000000000E+00 0. -1.
         21   -1    0    0  502  503 -0.00000000000E+00 -0.00000000000E+00 -0.40238241145E+01  0.40238241145E+01  0.00000000000E+00 0. -1.
          5    1    1    2  501    0 -0.19869419228E+01 -0.98053462385E+00  0.31305582249E+01  0.60662823172E+01  0.47000000000E+01 0. -1.
         -5    1    1    2    0  503  0.19869419228E+01  0.98053462385E+00  0.84862172316E-01  0.51967863090E+01  0.47000000000E+01 0. -1.
<mgrwt>
<rscale>  2 0.51960934E+01</rscale>
<asrwt>0</asrwt>
<pdfrwt beam="1">  1       21 0.11137299E-02 0.51960934E+01</pdfrwt>
<pdfrwt beam="2">  1       21 0.61904986E-03 0.51960934E+01</pdfrwt>
<totfact> 0.46209298E+09</totfact>
</mgrwt>
</event>
<event>
 4    1  0.4084348E+006  0.5051779E+01  0.7546771E-02  0.2558049E+00
         21   -1    0    0  503  502  0.00000000000E+00  0.00000000000E+00  0.26534323413E+01  0.26534323413E+01  0.00000000000E+00 0. -1.
         21   -1    0    0  501  503 -0.00000000000E+00 -0.00000000000E+00 -0.15806662027E+02  0.15806662027E+02  0.00000000000E+00 0. -1.
          5    1    1    2  501    0 -0.16607138465E+01  0.82005936586E+00 -0.12352059843E+02  0.13345180786E+02  0.47000000000E+01 0. -1.
         -5    1    1    2    0  502  0.16607138465E+01 -0.82005936586E+00 -0.80116984338E+00  0.51149135830E+01  0.47000000000E+01 0. -1.
<mgrwt>
<rscale>  2 0.50517787E+01</rscale>
<asrwt>0</asrwt>
<pdfrwt beam="1">  1       21 0.40822036E-03 0.50517787E+01</pdfrwt>
<pdfrwt beam="2">  1       21 0.24317942E-02 0.50517787E+01</pdfrwt>
<totfact> 0.26394948E+09</totfact>
</mgrwt>
</event>
<event>
 4    1  0.4084348E+006  0.5316268E+01  0.7546771E-02  0.2513931E+00
         21   -1    0    0  501  502  0.00000000000E+00  0.00000000000E+00  0.66700127145E+00  0.66700127145E+00  0.00000000000E+00 0.  1.
         21   -1    0    0  502  503 -0.00000000000E+00 -0.00000000000E+00 -0.14535214465E+03  0.14535214465E+03  0.00000000000E+00 0.  1.
          5    1    1    2  501    0  0.21413611422E+01 -0.12598707229E+01 -0.10889417506E+02  0.12117842853E+02  0.47000000000E+01 0. -1.
         -5    1    1    2    0  503 -0.21413611422E+01  0.12598707229E+01 -0.13379572587E+03  0.13390130307E+03  0.47000000000E+01 0. -1.
<mgrwt>
<rscale>  2 0.53162677E+01</rscale>
<asrwt>0</asrwt>
<pdfrwt beam="1">  1       21 0.10261556E-03 0.53162677E+01</pdfrwt>
<pdfrwt beam="2">  1       21 0.22361873E-01 0.53162677E+01</pdfrwt>
<totfact> 0.63769109E+08</totfact>
</mgrwt>
</event>
<event>
 4    1  0.4084348E+006  0.5059035E+01  0.7546771E-02  0.2556786E+00
         21   -1    0    0  501  502  0.00000000000E+00  0.00000000000E+00  0.35006506732E+02  0.35006506732E+02  0.00000000000E+00 0.  1.
         21   -1    0    0  502  503 -0.00000000000E+00 -0.00000000000E+00 -0.14630127360E+01  0.14630127360E+01  0.00000000000E+00 0.  1.
          5    1    1    2  501    0 -0.15490141085E+01 -0.10508984747E+01  0.29669105409E+02  0.30097336229E+02  0.47000000000E+01 0.  1.
         -5    1    1    2    0  503  0.15490141085E+01  0.10508984747E+01  0.38743885877E+01  0.63721832397E+01  0.47000000000E+01 0.  1.
<mgrwt>
<rscale>  2 0.50590347E+01</rscale>
<asrwt>0</asrwt>
<pdfrwt beam="1">  1       21 0.53856158E-02 0.50590347E+01</pdfrwt>
<pdfrwt beam="2">  1       21 0.22507891E-03 0.50590347E+01</pdfrwt>
<totfact> 0.18804996E+09</totfact>
</mgrwt>
</event>
<event>
 4    1  0.4084348E+006  0.5416806E+01  0.7546771E-02  0.2498131E+00
         21   -1    0    0  503  502  0.00000000000E+00  0.00000000000E+00  0.55745251668E+02  0.55745251668E+02  0.00000000000E+00 0.  1.
         21   -1    0    0  501  503 -0.00000000000E+00 -0.00000000000E+00 -0.26485320774E+01  0.26485320774E+01  0.00000000000E+00 0.  1.
          5    1    1    2  501    0  0.13339803115E+01  0.23392916610E+01  0.41322056904E+00  0.54325445406E+01  0.47000000000E+01 0.  1.
         -5    1    1    2    0  502 -0.13339803115E+01 -0.23392916610E+01  0.52683499021E+02  0.52961239205E+02  0.47000000000E+01 0.  1.
<mgrwt>
<rscale>  2 0.54168062E+01</rscale>
<asrwt>0</asrwt>
<pdfrwt beam="1">  1       21 0.85761916E-02 0.54168062E+01</pdfrwt>
<pdfrwt beam="2">  1       21 0.40746652E-03 0.54168062E+01</pdfrwt>
<totfact> 0.44601352E+08</totfact>
</mgrwt>
</event>
<event>
 4    1  0.4084348E+006  0.6466754E+01  0.7546771E-02  0.2358365E+00
         21   -1    0    0  503  502  0.00000000000E+00  0.00000000000E+00  0.35164985493E+03  0.35164985493E+03  0.00000000000E+00 0.  1.
         21   -1    0    0  501  503 -0.00000000000E+00 -0.00000000000E+00 -0.69618996747E+00  0.69618996747E+00  0.00000000000E+00 0. -1.
          5    1    1    2  501    0 -0.33156364563E+00  0.44293303537E+01  0.15054710404E+02  0.16384846877E+02  0.47000000000E+01 0. -1.
         -5    1    1    2    0  502  0.33156364563E+00 -0.44293303537E+01  0.33589895456E+03  0.33596119802E+03  0.47000000000E+01 0.  1.
<mgrwt>
<rscale>  2 0.64667536E+01</rscale>
<asrwt>0</asrwt>
<pdfrwt beam="1">  1       21 0.54099836E-01 0.64667536E+01</pdfrwt>
<pdfrwt beam="2">  1       21 0.10710643E-03 0.64667536E+01</pdfrwt>
<totfact> 0.15182642E+08</totfact>
</mgrwt>
</event>
<event>
 4    1  0.4084348E+006  0.5825053E+01  0.7546771E-02  0.2438765E+00
         21   -1    0    0  503  502  0.00000000000E+00  0.00000000000E+00  0.62896226595E-01  0.62896226595E-01  0.00000000000E+00 0. -1.
         21   -1    0    0  501  503 -0.00000000000E+00 -0.00000000000E+00 -0.63717135574E+03  0.63717135574E+03  0.00000000000E+00 0. -1.
          5    1    1    2  501    0  0.27418593906E+01 -0.20792911122E+01 -0.44331253946E+03  0.44335080793E+03  0.47000000000E+01 0. -1.
         -5    1    1    2    0  502 -0.27418593906E+01  0.20792911122E+01 -0.19379592005E+03  0.19388344404E+03  0.47000000000E+01 0. -1.
<mgrwt>
<rscale>  2 0.58250532E+01</rscale>
<asrwt>0</asrwt>
<pdfrwt beam="1">  1       21 0.96765635E-05 0.58250532E+01</pdfrwt>
<pdfrwt beam="2">  1       21 0.98024125E-01 0.58250532E+01</pdfrwt>
<totfact> 0.11293246E+09</totfact>
</mgrwt>
</event>
<event>
 4    1  0.4084348E+006  0.5675034E+01  0.7546771E-02  0.2459740E+00
         21   -1    0    0  503  502  0.00000000000E+00  0.00000000000E+00  0.85675338939E-01  0.85675338939E-01  0.00000000000E+00 0. -1.
         21   -1    0    0  501  503 -0.00000000000E+00 -0.00000000000E+00 -0.77538739853E+03  0.77538739853E+03  0.00000000000E+00 0. -1.
          5    1    1    2  501    0 -0.27790170258E+01  0.15469553476E+01 -0.66595828961E+03  0.66598246937E+03  0.47000000000E+01 0. -1.
         -5    1    1    2    0  502  0.27790170258E+01 -0.15469553476E+01 -0.10934343357E+03  0.10949060449E+03  0.47000000000E+01 0. -1.
<mgrwt>
<rscale>  2 0.56750336E+01</rscale>
<asrwt>0</asrwt>
<pdfrwt beam="1">  1       21 0.13181257E-04 0.56750336E+01</pdfrwt>
<pdfrwt beam="2">  1       21 0.11928643E+00 0.56750336E+01</pdfrwt>
<totfact> 0.49218026E+08</totfact>
</mgrwt>
</event>
<event>
 4    1  0.4084348E+006  0.8704863E+01  0.7546771E-02  0.2157175E+00
         21   -1    0    0  501  502  0.00000000000E+00  0.00000000000E+00  0.97119243001E+03  0.97119243001E+03  0.00000000000E+00 0. -1.
         21   -1    0    0  502  503 -0.00000000000E+00 -0.00000000000E+00 -0.94014429463E-01  0.94014429463E-01  0.00000000000E+00 0.  1.
          5    1    1    2  501    0  0.24564163516E+01  0.69029455067E+01  0.68584583250E+03  0.68590107202E+03  0.47000000000E+01 0. -1.
         -5    1    1    2    0  503 -0.24564163516E+01 -0.69029455067E+01  0.28525258308E+03  0.28538537242E+03  0.47000000000E+01 0.  1.
<mgrwt>
<rscale>  2 0.87048629E+01</rscale>
<asrwt>0</asrwt>
<pdfrwt beam="1">  1       21 0.14940619E+00 0.87048629E+01</pdfrwt>
<pdfrwt beam="2">  1       21 0.14464536E-04 0.87048629E+01</pdfrwt>
<totfact> 0.34155870E+08</totfact>
</mgrwt>
</event>
<event>
 4    1  0.4084348E+006  0.6066849E+01  0.7546771E-02  0.2406804E+00
         21   -1    0    0  503  502  0.00000000000E+00  0.00000000000E+00  0.41560745947E+02  0.41560745947E+02  0.00000000000E+00 0. -1.
         21   -1    0    0  501  503 -0.00000000000E+00 -0.00000000000E+00 -0.10373351746E+01  0.10373351746E+01  0.00000000000E+00 0. -1.
          5    1    1    2  501    0 -0.16262624975E+01  0.34744670400E+01  0.12116013505E+02  0.13550071371E+02  0.47000000000E+01 0. -1.
         -5    1    1    2    0  502  0.16262624975E+01 -0.34744670400E+01  0.28407397267E+02  0.29048009750E+02  0.47000000000E+01 0. -1.
<mgrwt>
<rscale>  2 0.60668485E+01</rscale>
<asrwt>0</asrwt>
<pdfrwt beam="1">  1       21 0.63939596E-02 0.60668485E+01</pdfrwt>
<pdfrwt beam="2">  1       21 0.15959006E-03 0.60668485E+01</pdfrwt>
<totfact> 0.27378129E+09</totfact>
</mgrwt>
</event>
<event>
 4    1  0.4084348E+006  0.5867746E+01  0.7546771E-02  0.2432961E+00
         21   -1    0    0  503  502  0.00000000000E+00  0.00000000000E+00  0.59454227355E+01  0.59454227355E+01  0.00000000000E+00 0.  1.
         21   -1    0    0  501  503 -0.00000000000E+00 -0.00000000000E+00 -0.80299402044E+01  0.80299402044E+01  0.00000000000E+00 0. -1.
          5    1    1    2  501    0  0.14709106602E+00  0.35098164363E+01 -0.47319494844E+01  0.75380231574E+01  0.47000000000E+01 0. -1.
         -5    1    1    2    0  502 -0.14709106602E+00 -0.35098164363E+01  0.26474320156E+01  0.64373397825E+01  0.47000000000E+01 0.  1.
<mgrwt>
<rscale>  2 0.58677463E+01</rscale>
<asrwt>0</asrwt>
<pdfrwt beam="1">  1       21 0.91468043E-03 0.58677463E+01</pdfrwt>
<pdfrwt beam="2">  1       21 0.12353754E-02 0.58677463E+01</pdfrwt>
<totfact> 0.26020269E+09</totfact>
</mgrwt>
</event>
<event>
 4    1  0.4084348E+006  0.6136693E+01  0.7546771E-02  0.2397965E+00
         21   -1    0    0  503  502  0.00000000000E+00  0.00000000000E+00  0.56984544266E+01  0.56984544266E+01  0.00000000000E+00 0.  1.
         21   -1    0    0  501  503 -0.00000000000E+00 -0.00000000000E+00 -0.14263521447E+02  0.14263521447E+02  0.00000000000E+00 0.  1.
          5    1    1    2  501    0 -0.34393817814E+01  0.19338198656E+01 -0.11594421379E+02  0.13118293083E+02  0.47000000000E+01 0.  1.
         -5    1    1    2    0  502  0.34393817814E+01 -0.19338198656E+01  0.30293543581E+01  0.68436827906E+01  0.47000000000E+01 0.  1.
<mgrwt>
<rscale>  2 0.61366934E+01</rscale>
<asrwt>0</asrwt>
<pdfrwt beam="1">  1       21 0.87668530E-03 0.61366934E+01</pdfrwt>
<pdfrwt beam="2">  1       21 0.21943879E-02 0.61366934E+01</pdfrwt>
<totfact> 0.12630641E+09</totfact>
</mgrwt>
</event>
<event>
 4    1  0.4084348E+006  0.6979132E+01  0.7546771E-02  0.2303103E+00
         21   -1    0    0  501  502  0.00000000000E+00  0.00000000000E+00  0.97205063504E+00  0.97205063504E+00  0.00000000000E+00 0.  1.
         21   -1    0    0  502  503 -0.00000000000E+00 -0.00000000000E+00 -0.70886686264E+02  0.70886686264E+02  0.00000000000E+00 0. -1.
          5    1    1    2  501    0  0.38017353248E+00 -0.51452648970E+01 -0.15505149656E+02  0.17003468724E+02  0.47000000000E+01 0.  1.
         -5    1    1    2    0  503 -0.38017353248E+00  0.51452648970E+01 -0.54409485972E+02  0.54855268175E+02  0.47000000000E+01 0.  1.
<mgrwt>
<rscale>  2 0.69791319E+01</rscale>
<asrwt>0</asrwt>
<pdfrwt beam="1">  1       21 0.14954624E-03 0.69791319E+01</pdfrwt>
<pdfrwt beam="2">  1       21 0.10905645E-01 0.69791319E+01</pdfrwt>
<totfact> 0.14776036E+09</totfact>
</mgrwt>
</event>
<event>
 4    1  0.4084348E+006  0.6353797E+01  0.7546771E-02  0.2371532E+00
         21   -1    0    0  503  502  0.00000000000E+00  0.00000000000E+00  0.43020494576E+01  0.43020494576E+01  0.00000000000E+00 0. -1.
         21   -1    0    0  501  503 -0.00000000000E+00 -0.00000000000E+00 -0.55310848147E+02  0.55310848147E+02  0.00000000000E+00 0. -1.
          5    1    1    2  501    0 -0.19069256535E+01  0.38267962136E+01 -0.52664918425E+02  0.53046812981E+02  0.47000000000E+01 0. -1.
         -5    1    1    2    0  502  0.19069256535E+01 -0.38267962136E+01  0.16561197356E+01  0.65660846238E+01  0.47000000000E+01 0. -1.
<mgrwt>
<rscale>  2 0.63537969E+01</rscale>
<asrwt>0</asrwt>
<pdfrwt beam="1">  1       21 0.66185374E-03 0.63537969E+01</pdfrwt>
<pdfrwt beam="2">  1       21 0.85093615E-02 0.63537969E+01</pdfrwt>
<totfact> 0.25909636E+08</totfact>
</mgrwt>
</event>
<event>
 4    1  0.4084348E+006  0.5550091E+01  0.7546771E-02  0.2477937E+00
         21   -1    0    0  503  502  0.00000000000E+00  0.00000000000E+00  0.49731581544E+01  0.49731581544E+01  0.00000000000E+00 0. -1.
         21   -1    0    0  501  503 -0.00000000000E+00 -0.00000000000E+00 -0.15207431359E+02  0.15207431359E+02  0.00000000000E+00 0.  1.
          5    1    1    2  501    0 -0.28362847951E+01  0.81792404941E+00 -0.12885367300E+02  0.14029832560E+02  0.47000000000E+01 0.  1.
         -5    1    1    2    0  502  0.28362847951E+01 -0.81792404941E+00  0.26510940963E+01  0.61507569532E+01  0.47000000000E+01 0. -1.
<mgrwt>
<rscale>  2 0.55500911E+01</rscale>
<asrwt>0</asrwt>
<pdfrwt beam="1">  1       21 0.76510127E-03 0.55500911E+01</pdfrwt>
<pdfrwt beam="2">  1       21 0.23396048E-02 0.55500911E+01</pdfrwt>
<totfact> 0.12805449E+09</totfact>
</mgrwt>
</event>
<event>
 4    1  0.4084348E+006  0.6514782E+01  0.7546771E-02  0.2352881E+00
         21   -1    0    0  503  502  0.00000000000E+00  0.00000000000E+00  0.10175888425E+03  0.10175888425E+03  0.00000000000E+00 0.  1.
         21   -1    0    0  501  503 -0.00000000000E+00 -0.00000000000E+00 -0.35997647534E+01  0.35997647534E+01  0.00000000000E+00 0. -1.
          5    1    1    2  501    0  0.13612713062E+01 -0.43010840763E+01 -0.45398639147E+00  0.65305809423E+01  0.47000000000E+01 0. -1.
         -5    1    1    2    0  502 -0.13612713062E+01  0.43010840763E+01  0.98613105893E+02  0.98828068066E+02  0.47000000000E+01 0.  1.
<mgrwt>
<rscale>  2 0.65147819E+01</rscale>
<asrwt>0</asrwt>
<pdfrwt beam="1">  1       21 0.15655211E-01 0.65147819E+01</pdfrwt>
<pdfrwt beam="2">  1       21 0.55381004E-03 0.65147819E+01</pdfrwt>
<totfact> 0.13081448E+08</totfact>
</mgrwt>
</event>
<event>
 4    1  0.4084348E+006  0.5920073E+01  0.7546771E-02  0.2425944E+00
         21   -1    0    0  503  502  0.00000000000E+00  0.00000000000E+00  0.29670226089E+01  0.29670226089E+01  0.00000000000E+00 0. -1.
         21   -1    0    0  501  503 -0.00000000000E+00 -0.00000000000E+00 -0.30131593524E+02  0.30131593524E+02  0.00000000000E+00 0. -1.
          5    1    1    2  501    0 -0.30722407689E+01  0.18757920374E+01 -0.26486261816E+02  0.27139810687E+02  0.47000000000E+01 0. -1.
         -5    1    1    2    0  502  0.30722407689E+01 -0.18757920374E+01 -0.67830909854E+00  0.59588054459E+01  0.47000000000E+01 0. -1.
<mgrwt>
<rscale>  2 0.59200726E+01</rscale>
<asrwt>0</asrwt>
<pdfrwt beam="1">  1       21 0.45646500E-03 0.59200726E+01</pdfrwt>
<pdfrwt beam="2">  1       21 0.46356300E-02 0.59200726E+01</pdfrwt>
<totfact> 0.10255006E+09</totfact>
</mgrwt>
</event>
<event>
 4    1  0.4084348E+006  0.6316413E+01  0.7546771E-02  0.2375975E+00
         21   -1    0    0  501  502  0.00000000000E+00  0.00000000000E+00  0.23382526787E+02  0.23382526787E+02  0.00000000000E+00 0.  1.
         21   -1    0    0  502  503 -0.00000000000E+00 -0.00000000000E+00 -0.18814368131E+01  0.18814368131E+01  0.00000000000E+00 0.  1.
          5    1    1    2  501    0  0.36548139488E+01  0.21093617279E+01  0.14604828740E+02  0.15912199547E+02  0.47000000000E+01 0.  1.
         -5    1    1    2    0  503 -0.36548139488E+01 -0.21093617279E+01  0.68962612346E+01  0.93517640536E+01  0.47000000000E+01 0.  1.
<mgrwt>
<rscale>  2 0.63164129E+01</rscale>
<asrwt>0</asrwt>
<pdfrwt beam="1">  1       21 0.35973116E-02 0.63164129E+01</pdfrwt>
<pdfrwt beam="2">  1       21 0.28945183E-03 0.63164129E+01</pdfrwt>
<totfact> 0.29498571E+09</totfact>
</mgrwt>
</event>
<event>
 4    1  0.4084348E+006  0.5310712E+01  0.7546771E-02  0.2514819E+00
         21   -1    0    0  503  502  0.00000000000E+00  0.00000000000E+00  0.95232322038E-01  0.95232322038E-01  0.00000000000E+00 0. -1.
         21   -1    0    0  501  503 -0.00000000000E+00 -0.00000000000E+00 -0.45331741866E+03  0.45331741866E+03  0.00000000000E+00 0. -1.
          5    1    1    2  501    0 -0.10971931244E+01 -0.22158142749E+01 -0.36009680872E+03  0.36013596782E+03  0.47000000000E+01 0.  1.
         -5    1    1    2    0  502  0.10971931244E+01  0.22158142749E+01 -0.93125377611E+02  0.93276683158E+02  0.47000000000E+01 0.  1.
<mgrwt>
<rscale>  2 0.53107123E+01</rscale>
<asrwt>0</asrwt>
<pdfrwt beam="1">  1       21 0.14651134E-04 0.53107123E+01</pdfrwt>
<pdfrwt beam="2">  1       21 0.69741108E-01 0.53107123E+01</pdfrwt>
<totfact> 0.11778170E+09</totfact>
</mgrwt>
</event>
<event>
 4    1  0.4084348E+006  0.5477604E+01  0.7546771E-02  0.2488816E+00
         21   -1    0    0  503  502  0.00000000000E+00  0.00000000000E+00  0.42725864359E+03  0.42725864359E+03  0.00000000000E+00 0. -1.
         21   -1    0    0  501  503 -0.00000000000E+00 -0.00000000000E+00 -0.70980348533E-01  0.70980348533E-01  0.00000000000E+00 0. -1.
          5    1    1    2  501    0 -0.16927212027E-01  0.28131579666E+01  0.23563836217E+03  0.23570201923E+03  0.47000000000E+01 0.  1.
         -5    1    1    2    0  502  0.16927212027E-01 -0.28131579666E+01  0.19154930107E+03  0.19162760470E+03  0.47000000000E+01 0.  1.
<mgrwt>
<rscale>  2 0.54776039E+01</rscale>
<asrwt>0</asrwt>
<pdfrwt beam="1">  1       21 0.65730040E-01 0.54776039E+01</pdfrwt>
<pdfrwt beam="2">  1       21 0.10920396E-04 0.54776039E+01</pdfrwt>
<totfact> 0.19916778E+09</totfact>
</mgrwt>
</event>
<event>
 4    1  0.4084348E+006  0.6188340E+01  0.7546771E-02  0.2391537E+00
         21   -1    0    0  503  502  0.00000000000E+00  0.00000000000E+00  0.28141578169E+02  0.28141578169E+02  0.00000000000E+00 0.  1.
         21   -1    0    0  501  503 -0.00000000000E+00 -0.00000000000E+00 -0.64285168737E+01  0.64285168737E+01  0.00000000000E+00 0. -1.
          5    1    1    2  501    0 -0.23354165540E+01 -0.32789308547E+01 -0.44903669942E+01  0.76458455238E+01  0.47000000000E+01 0. -1.
         -5    1    1    2    0  502  0.23354165540E+01  0.32789308547E+01  0.26203428290E+02  0.26924249519E+02  0.47000000000E+01 0.  1.
<mgrwt>
<rscale>  2 0.61883405E+01</rscale>
<asrwt>0</asrwt>
<pdfrwt beam="1">  1       21 0.43294735E-02 0.61883405E+01</pdfrwt>
<pdfrwt beam="2">  1       21 0.98900261E-03 0.61883405E+01</pdfrwt>
<totfact> 0.39805946E+08</totfact>
</mgrwt>
</event>
<event>
 4    1  0.4084348E+006  0.5912014E+01  0.7546771E-02  0.2427018E+00
         21   -1    0    0  501  502  0.00000000000E+00  0.00000000000E+00  0.73159441626E+01  0.73159441626E+01  0.00000000000E+00 0. -1.
         21   -1    0    0  502  503 -0.00000000000E+00 -0.00000000000E+00 -0.66737019478E+01  0.66737019478E+01  0.00000000000E+00 0. -1.
          5    1    1    2  501    0 -0.35788240006E+01  0.23222166524E+00  0.40496358107E+01  0.71659931851E+01  0.47000000000E+01 0. -1.
         -5    1    1    2    0  503  0.35788240006E+01 -0.23222166524E+00 -0.34073935959E+01  0.68236529254E+01  0.47000000000E+01 0. -1.
<mgrwt>
<rscale>  2 0.59120139E+01</rscale>
<asrwt>0</asrwt>
<pdfrwt beam="1">  1       21 0.11255299E-02 0.59120139E+01</pdfrwt>
<pdfrwt beam="2">  1       21 0.10267234E-02 0.59120139E+01</pdfrwt>
<totfact> 0.25395419E+09</totfact>
</mgrwt>
</event>
<event>
 4    1  0.4084348E+006  0.4969681E+01  0.7546771E-02  0.2572560E+00
         21   -1    0    0  501  502  0.00000000000E+00  0.00000000000E+00  0.88749419180E+00  0.88749419180E+00  0.00000000000E+00 0. -1.
         21   -1    0    0  502  503 -0.00000000000E+00 -0.00000000000E+00 -0.28397973881E+02  0.28397973881E+02  0.00000000000E+00 0. -1.
          5    1    1    2  501    0  0.12289246506E+01  0.10476058519E+01 -0.15828585451E+02  0.16590414437E+02  0.47000000000E+01 0. -1.
         -5    1    1    2    0  503 -0.12289246506E+01 -0.10476058519E+01 -0.11681894238E+02  0.12695053635E+02  0.47000000000E+01 0. -1.
<mgrwt>
<rscale>  2 0.49696815E+01</rscale>
<asrwt>0</asrwt>
<pdfrwt beam="1">  1       21 0.13653758E-03 0.49696815E+01</pdfrwt>
<pdfrwt beam="2">  1       21 0.43689187E-02 0.49696815E+01</pdfrwt>
<totfact> 0.49028718E+09</totfact>
</mgrwt>
</event>
<event>
 4    1  0.4084348E+006  0.4801373E+01  0.7546771E-02  0.2603644E+00
         21   -1    0    0  501  502  0.00000000000E+00  0.00000000000E+00  0.89669445596E+02  0.89669445596E+02  0.00000000000E+00 0. -1.
         21   -1    0    0  502  503 -0.00000000000E+00 -0.00000000000E+00 -0.29118932823E+01  0.29118932823E+01  0.00000000000E+00 0.  1.
          5    1    1    2  501    0  0.97953508647E+00  0.60749018730E-01  0.87578733569E+02  0.87710248848E+02  0.47000000000E+01 0. -1.
         -5    1    1    2    0  503 -0.97953508647E+00 -0.60749018730E-01 -0.82118125527E+00  0.48710900303E+01  0.47000000000E+01 0.  1.
<mgrwt>
<rscale>  2 0.48013727E+01</rscale>
<asrwt>0</asrwt>
<pdfrwt beam="1">  1       21 0.13795297E-01 0.48013727E+01</pdfrwt>
<pdfrwt beam="2">  1       21 0.44798365E-03 0.48013727E+01</pdfrwt>
<totfact> 0.17183837E+08</totfact>
</mgrwt>
</event>
<event>
 4    1  0.4084348E+006  0.5767655E+01  0.7546771E-02  0.2446681E+00
         21   -1    0    0  501  502  0.00000000000E+00  0.00000000000E+00  0.14063400998E+01  0.14063400998E+01  0.00000000000E+00 0. -1.
         21   -1    0    0  502  503 -0.00000000000E+00 -0.00000000000E+00 -0.62351759152E+02  0.62351759152E+02  0.00000000000E+00 0. -1.
          5    1    1    2  501    0  0.33429995862E+01 -0.14031303602E-01 -0.53583085352E+01  0.78725671460E+01  0.47000000000E+01 0. -1.
         -5    1    1    2    0  503 -0.33429995862E+01  0.14031303602E-01 -0.55587110517E+02  0.55885532106E+02  0.47000000000E+01 0. -1.
<mgrwt>
<rscale>  2 0.57676549E+01</rscale>
<asrwt>0</asrwt>
<pdfrwt beam="1">  1       21 0.21635997E-03 0.57676549E+01</pdfrwt>
<pdfrwt beam="2">  1       21 0.95925804E-02 0.57676549E+01</pdfrwt>
<totfact> 0.94010588E+08</totfact>
</mgrwt>
</event>
<event>
 4    1  0.4084348E+006  0.5956342E+01  0.7546771E-02  0.2421141E+00
         21   -1    0    0  503  502  0.00000000000E+00  0.00000000000E+00  0.15142340951E+01  0.15142340951E+01  0.00000000000E+00 0. -1.
         21   -1    0    0  501  503 -0.00000000000E+00 -0.00000000000E+00 -0.32787451109E+02  0.32787451109E+02  0.00000000000E+00 0. -1.
          5    1    1    2  501    0 -0.28828849385E+01 -0.22532166081E+01 -0.24799192950E+02  0.25504469836E+02  0.47000000000E+01 0. -1.
         -5    1    1    2    0  502  0.28828849385E+01  0.22532166081E+01 -0.64740240644E+01  0.87972153684E+01  0.47000000000E+01 0. -1.
<mgrwt>
<rscale>  2 0.59563421E+01</rscale>
<asrwt>0</asrwt>
<pdfrwt beam="1">  1       21 0.23295911E-03 0.59563421E+01</pdfrwt>
<pdfrwt beam="2">  1       21 0.50442229E-02 0.59563421E+01</pdfrwt>
<totfact> 0.22942054E+09</totfact>
</mgrwt>
</event>
<event>
 4    1  0.4084348E+006  0.5352017E+01  0.7546771E-02  0.2508255E+00
         21   -1    0    0  503  502  0.00000000000E+00  0.00000000000E+00  0.74002839240E+01  0.74002839240E+01  0.00000000000E+00 0.  1.
         21   -1    0    0  501  503 -0.00000000000E+00 -0.00000000000E+00 -0.15266671706E+02  0.15266671706E+02  0.00000000000E+00 0.  1.
          5    1    1    2  501    0  0.25147432247E+01  0.47974575853E+00 -0.13725098740E+02  0.14731680994E+02  0.47000000000E+01 0.  1.
         -5    1    1    2    0  502 -0.25147432247E+01 -0.47974575853E+00  0.58587109574E+01  0.79352746368E+01  0.47000000000E+01 0.  1.
<mgrwt>
<rscale>  2 0.53520173E+01</rscale>
<asrwt>0</asrwt>
<pdfrwt beam="1">  1       21 0.11385052E-02 0.53520173E+01</pdfrwt>
<pdfrwt beam="2">  1       21 0.23487187E-02 0.53520173E+01</pdfrwt>
<totfact> 0.70704179E+08</totfact>
</mgrwt>
</event>
<event>
 4    1  0.4084348E+006  0.8191331E+01  0.7546771E-02  0.2195381E+00
         21   -1    0    0  501  502  0.00000000000E+00  0.00000000000E+00  0.40200152326E+01  0.40200152326E+01  0.00000000000E+00 0. -1.
         21   -1    0    0  502  503 -0.00000000000E+00 -0.00000000000E+00 -0.18623564460E+02  0.18623564460E+02  0.00000000000E+00 0.  1.
          5    1    1    2  501    0 -0.65754799160E+01  0.13307762270E+01 -0.36546087956E+01  0.89696191079E+01  0.47000000000E+01 0. -1.
         -5    1    1    2    0  503  0.65754799160E+01 -0.13307762270E+01 -0.10948940432E+02  0.13673960585E+02  0.47000000000E+01 0.  1.
<mgrwt>
<rscale>  2 0.81913309E+01</rscale>
<asrwt>0</asrwt>
<pdfrwt beam="1">  1       21 0.61846388E-03 0.81913309E+01</pdfrwt>
<pdfrwt beam="2">  1       21 0.28651638E-02 0.81913309E+01</pdfrwt>
<totfact> 0.17416931E+09</totfact>
</mgrwt>
</event>
<event>
 4    1  0.4084348E+006  0.4854469E+01  0.7546771E-02  0.2593637E+00
         21   -1    0    0  503  502  0.00000000000E+00  0.00000000000E+00  0.37195903788E+02  0.37195903788E+02  0.00000000000E+00 0. -1.
         21   -1    0    0  501  503 -0.00000000000E+00 -0.00000000000E+00 -0.64133328671E+00  0.64133328671E+00  0.00000000000E+00 0. -1.
          5    1    1    2  501    0  0.11454904521E+01  0.40462685406E+00  0.16194598334E+02  0.16906533840E+02  0.47000000000E+01 0. -1.
         -5    1    1    2    0  502 -0.11454904521E+01 -0.40462685406E+00  0.20359972167E+02  0.20930703234E+02  0.47000000000E+01 0. -1.
<mgrwt>
<rscale>  2 0.48544692E+01</rscale>
<asrwt>0</asrwt>
<pdfrwt beam="1">  1       21 0.57224451E-02 0.48544692E+01</pdfrwt>
<pdfrwt beam="2">  1       21 0.98666688E-04 0.48544692E+01</pdfrwt>
<totfact> 0.49688718E+09</totfact>
</mgrwt>
</event>
<event>
 4    1  0.4084348E+006  0.9467794E+01  0.7546771E-02  0.2106605E+00
         21   -1    0    0  501  502  0.00000000000E+00  0.00000000000E+00  0.65956795417E+01  0.65956795417E+01  0.00000000000E+00 0. -1.
         21   -1    0    0  502  503 -0.00000000000E+00 -0.00000000000E+00 -0.17587957203E+02  0.17587957203E+02  0.00000000000E+00 0.  1.
          5    1    1    2  501    0  0.54965726365E+01 -0.61103856571E+01  0.26849030400E+00  0.94716002170E+01  0.47000000000E+01 0. -1.
         -5    1    1    2    0  503 -0.54965726365E+01  0.61103856571E+01 -0.11260767965E+02  0.14712036528E+02  0.47000000000E+01 0.  1.
<mgrwt>
<rscale>  2 0.94677940E+01</rscale>
<asrwt>0</asrwt>
<pdfrwt beam="1">  1       21 0.10147199E-02 0.94677940E+01</pdfrwt>
<pdfrwt beam="2">  1       21 0.27058396E-02 0.94677940E+01</pdfrwt>
<totfact> 0.10243695E+09</totfact>
</mgrwt>
</event>
<event>
 4    1  0.4084348E+006  0.5081859E+01  0.7546771E-02  0.2552834E+00
         21   -1    0    0  501  502  0.00000000000E+00  0.00000000000E+00  0.51177764300E-01  0.51177764300E-01  0.00000000000E+00 0. -1.
         21   -1    0    0  502  503 -0.00000000000E+00 -0.00000000000E+00 -0.52997312768E+03  0.52997312768E+03  0.00000000000E+00 0. -1.
          5    1    1    2  501    0 -0.89802038093E+00 -0.17113895064E+01 -0.20699682751E+03  0.20705919901E+03  0.47000000000E+01 0. -1.
         -5    1    1    2    0  503  0.89802038093E+00  0.17113895064E+01 -0.32292512241E+03  0.32296510644E+03  0.47000000000E+01 0. -1.
<mgrwt>
<rscale>  2 0.50818594E+01</rscale>
<asrwt>0</asrwt>
<pdfrwt beam="1">  1       21 0.78735676E-05 0.50818594E+01</pdfrwt>
<pdfrwt beam="2">  1       21 0.81533650E-01 0.50818594E+01</pdfrwt>
<totfact> 0.19253593E+09</totfact>
</mgrwt>
</event>
<event>
 4    1  0.4084348E+006  0.5237443E+01  0.7546771E-02  0.2526680E+00
         21   -1    0    0  503  502  0.00000000000E+00  0.00000000000E+00  0.15764986679E+03  0.15764986679E+03  0.00000000000E+00 0.  1.
         21   -1    0    0  501  503 -0.00000000000E+00 -0.00000000000E+00 -0.12060288640E+01  0.12060288640E+01  0.00000000000E+00 0.  1.
          5    1    1    2  501    0  0.22687945368E+01  0.43975505337E+00  0.47467210187E+01  0.70683925744E+01  0.47000000000E+01 0.  1.
         -5    1    1    2    0  502 -0.22687945368E+01 -0.43975505337E+00  0.15169711690E+03  0.15178750308E+03  0.47000000000E+01 0.  1.
<mgrwt>
<rscale>  2 0.52374434E+01</rscale>
<asrwt>0</asrwt>
<pdfrwt beam="1">  1       21 0.24253809E-01 0.52374434E+01</pdfrwt>
<pdfrwt beam="2">  1       21 0.18554303E-03 0.52374434E+01</pdfrwt>
<totfact> 0.24968590E+08</totfact>
</mgrwt>
</event>
<event>
 4    1  0.4084348E+006  0.4942901E+01  0.7546771E-02  0.2577384E+00
         21   -1    0    0  501  502  0.00000000000E+00  0.00000000000E+00  0.14436358585E+01  0.14436358585E+01  0.00000000000E+00 0. -1.
         21   -1    0    0  502  503 -0.00000000000E+00 -0.00000000000E+00 -0.63125801625E+02  0.63125801625E+02  0.00000000000E+00 0. -1.
          5    1    1    2  501    0  0.10844711529E+01 -0.10799044123E+01 -0.32211619913E+01  0.58998437094E+01  0.47000000000E+01 0. -1.
         -5    1    1    2    0  503 -0.10844711529E+01  0.10799044123E+01 -0.58461003775E+02  0.58669593774E+02  0.47000000000E+01 0. -1.
<mgrwt>
<rscale>  2 0.49429011E+01</rscale>
<asrwt>0</asrwt>
<pdfrwt beam="1">  1       21 0.22209780E-03 0.49429011E+01</pdfrwt>
<pdfrwt beam="2">  1       21 0.97116629E-02 0.49429011E+01</pdfrwt>
<totfact> 0.77945148E+08</totfact>
</mgrwt>
</event>
<event>
 4    1  0.4084348E+006  0.8034140E+01  0.7546771E-02  0.2207854E+00
         21   -1    0    0  501  502  0.00000000000E+00  0.00000000000E+00  0.35569279184E+02  0.35569279184E+02  0.00000000000E+00 0. -1.
         21   -1    0    0  502  503 -0.00000000000E+00 -0.00000000000E+00 -0.84170289141E+01  0.84170289141E+01  0.00000000000E+00 0.  1.
          5    1    1    2  501    0 -0.30022367848E+01  0.57830773252E+01  0.33054684552E+02  0.34017048371E+02  0.47000000000E+01 0. -1.
         -5    1    1    2    0  503  0.30022367848E+01 -0.57830773252E+01 -0.59024342816E+01  0.99692597273E+01  0.47000000000E+01 0.  1.
<mgrwt>
<rscale>  2 0.80341402E+01</rscale>
<asrwt>0</asrwt>
<pdfrwt beam="1">  1       21 0.54721967E-02 0.80341402E+01</pdfrwt>
<pdfrwt beam="2">  1       21 0.12949275E-02 0.80341402E+01</pdfrwt>
<totfact> 0.22653335E+08</totfact>
</mgrwt>
</event>
<event>
 4    1  0.4084348E+006  0.5849546E+01  0.7546771E-02  0.2435426E+00
         21   -1    0    0  501  502  0.00000000000E+00  0.00000000000E+00  0.18939395016E+00  0.18939395016E+00  0.00000000000E+00 0. -1.
         21   -1    0    0  502  503 -0.00000000000E+00 -0.00000000000E+00 -0.18145715478E+03  0.18145715478E+03  0.00000000000E+00 0. -1.
          5    1    1    2  501    0 -0.31752103363E+01  0.14301149985E+01 -0.84639632816E+02  0.84841526583E+02  0.47000000000E+01 0. -1.
         -5    1    1    2    0  503  0.31752103363E+01 -0.14301149985E+01 -0.96628128011E+02  0.96805022145E+02  0.47000000000E+01 0. -1.
<mgrwt>
<rscale>  2 0.58495461E+01</rscale>
<asrwt>0</asrwt>
<pdfrwt beam="1">  1       21 0.29137390E-04 0.58495461E+01</pdfrwt>
<pdfrwt beam="2">  1       21 0.27916620E-01 0.58495461E+01</pdfrwt>
<totfact> 0.25664508E+09</totfact>
</mgrwt>
</event>
<event>
 4    1  0.4084348E+006  0.6341139E+01  0.7546771E-02  0.2373031E+00
         21   -1    0    0  503  502  0.00000000000E+00  0.00000000000E+00  0.92313867716E+01  0.92313867716E+01  0.00000000000E+00 0.  1.
         21   -1    0    0  501  503 -0.00000000000E+00 -0.00000000000E+00 -0.19173088983E+02  0.19173088983E+02  0.00000000000E+00 0. -1.
          5    1    1    2  501    0 -0.21672524850E+01 -0.36637490271E+01 -0.17456041468E+02  0.18572114150E+02  0.47000000000E+01 0. -1.
         -5    1    1    2    0  502  0.21672524850E+01  0.36637490271E+01  0.75143392564E+01  0.98323616048E+01  0.47000000000E+01 0.  1.
<mgrwt>
<rscale>  2 0.63411387E+01</rscale>
<asrwt>0</asrwt>
<pdfrwt beam="1">  1       21 0.14202134E-02 0.63411387E+01</pdfrwt>
<pdfrwt beam="2">  1       21 0.29497060E-02 0.63411387E+01</pdfrwt>
<totfact> 0.42573765E+08</totfact>
</mgrwt>
</event>
<event>
 4    1  0.4084348E+006  0.5916783E+01  0.7546771E-02  0.2426382E+00
         21   -1    0    0  501  502  0.00000000000E+00  0.00000000000E+00  0.75932331070E+02  0.75932331070E+02  0.00000000000E+00 0.  1.
         21   -1    0    0  502  503 -0.00000000000E+00 -0.00000000000E+00 -0.66996818133E+01  0.66996818133E+01  0.00000000000E+00 0. -1.
          5    1    1    2  501    0  0.19215455998E+01 -0.30374295792E+01  0.74485390137E+02  0.74720021813E+02  0.47000000000E+01 0.  1.
         -5    1    1    2    0  503 -0.19215455998E+01  0.30374295792E+01 -0.52527408801E+01  0.79119910701E+01  0.47000000000E+01 0. -1.
<mgrwt>
<rscale>  2 0.59167826E+01</rscale>
<asrwt>0</asrwt>
<pdfrwt beam="1">  1       21 0.11681896E-01 0.59167826E+01</pdfrwt>
<pdfrwt beam="2">  1       21 0.10307203E-02 0.59167826E+01</pdfrwt>
<totfact> 0.81372478E+07</totfact>
</mgrwt>
</event>
<event>
 4    1  0.4084348E+006  0.4981257E+01  0.7546771E-02  0.2570490E+00
         21   -1    0    0  501  502  0.00000000000E+00  0.00000000000E+00  0.23178621998E+00  0.23178621998E+00  0.00000000000E+00 0.  1.
         21   -1    0    0  502  503 -0.00000000000E+00 -0.00000000000E+00 -0.10990713293E+03  0.10990713293E+03  0.00000000000E+00 0.  1.
          5    1    1    2  501    0  0.14710751109E+01  0.74756890366E+00 -0.45960076678E+02  0.46229228519E+02  0.47000000000E+01 0.  1.
         -5    1    1    2    0  503 -0.14710751109E+01 -0.74756890366E+00 -0.63715270033E+02  0.63909690632E+02  0.47000000000E+01 0.  1.
<mgrwt>
<rscale>  2 0.49812570E+01</rscale>
<asrwt>0</asrwt>
<pdfrwt beam="1">  1       21 0.35659295E-04 0.49812570E+01</pdfrwt>
<pdfrwt beam="2">  1       21 0.16908848E-01 0.49812570E+01</pdfrwt>
<totfact> 0.38163866E+09</totfact>
</mgrwt>
</event>
<event>
 4    1  0.4084348E+006  0.7042367E+01  0.7546771E-02  0.2296744E+00
         21   -1    0    0  503  502  0.00000000000E+00  0.00000000000E+00  0.86118430245E+00  0.86118430245E+00  0.00000000000E+00 0. -1.
         21   -1    0    0  501  503 -0.00000000000E+00 -0.00000000000E+00 -0.58498143154E+02  0.58498143154E+02  0.00000000000E+00 0.  1.
          5    1    1    2  501    0  0.52434083157E+01 -0.10773131731E+00 -0.25118917872E+02  0.26087448551E+02  0.47000000000E+01 0. -1.
         -5    1    1    2    0  502 -0.52434083157E+01  0.10773131731E+00 -0.32518040980E+02  0.33271878906E+02  0.47000000000E+01 0. -1.
<mgrwt>
<rscale>  2 0.70423673E+01</rscale>
<asrwt>0</asrwt>
<pdfrwt beam="1">  1       21 0.13248988E-03 0.70423673E+01</pdfrwt>
<pdfrwt beam="2">  1       21 0.89997150E-02 0.70423673E+01</pdfrwt>
<totfact> 0.23637960E+09</totfact>
</mgrwt>
</event>
<event>
 4    1  0.4084348E+006  0.4721715E+01  0.7546771E-02  0.2619023E+00
         21   -1    0    0  503  502  0.00000000000E+00  0.00000000000E+00  0.11535163211E-01  0.11535163211E-01  0.00000000000E+00 0.  1.
         21   -1    0    0  501  503 -0.00000000000E+00 -0.00000000000E+00 -0.19327637407E+04  0.19327637407E+04  0.00000000000E+00 0.  1.
          5    1    1    2  501    0 -0.39909535432E+00 -0.21288059129E+00 -0.96888234254E+03  0.96889384779E+03  0.47000000000E+01 0.  1.
         -5    1    1    2    0  502  0.39909535432E+00  0.21288059129E+00 -0.96386986296E+03  0.96388142804E+03  0.47000000000E+01 0.  1.
<mgrwt>
<rscale>  2 0.47217153E+01</rscale>
<asrwt>0</asrwt>
<pdfrwt beam="1">  1       21 0.17761109E-05 0.47217153E+01</pdfrwt>
<pdfrwt beam="2">  1       21 0.29710210E+00 0.47217153E+01</pdfrwt>
<totfact> 0.89861854E+08</totfact>
</mgrwt>
</event>
<event>
 4    1  0.4084348E+006  0.4887681E+01  0.7546771E-02  0.2587473E+00
         21   -1    0    0  503  502  0.00000000000E+00  0.00000000000E+00  0.98862677954E+03  0.98862677954E+03  0.00000000000E+00 0. -1.
         21   -1    0    0  501  503 -0.00000000000E+00 -0.00000000000E+00 -0.43237171967E-01  0.43237171967E-01  0.00000000000E+00 0. -1.
          5    1    1    2  501    0 -0.13413206580E+01  0.16865278374E-01  0.16596875140E+03  0.16604070545E+03  0.47000000000E+01 0. -1.
         -5    1    1    2    0  502  0.13413206580E+01 -0.16865278374E-01  0.82261479097E+03  0.82262931127E+03  0.47000000000E+01 0. -1.
<mgrwt>
<rscale>  2 0.48876810E+01</rscale>
<asrwt>0</asrwt>
<pdfrwt beam="1">  1       21 0.15207833E+00 0.48876810E+01</pdfrwt>
<pdfrwt beam="2">  1       21 0.66526644E-05 0.48876810E+01</pdfrwt>
<totfact> 0.66039036E+08</totfact>
</mgrwt>
</event>
<event>
 4    1  0.4084348E+006  0.8475871E+01  0.7546771E-02  0.2173754E+00
         21   -1    0    0  503  502  0.00000000000E+00  0.00000000000E+00  0.10817871158E+02  0.10817871158E+02  0.00000000000E+00 0. -1.
         21   -1    0    0  501  503 -0.00000000000E+00 -0.00000000000E+00 -0.14550979882E+02  0.14550979882E+02  0.00000000000E+00 0.  1.
          5    1    1    2  501    0  0.53195255124E+01 -0.46317427939E+01 -0.11218783448E+02  0.14060636367E+02  0.47000000000E+01 0.  1.
         -5    1    1    2    0  502 -0.53195255124E+01  0.46317427939E+01  0.74856747244E+01  0.11308214672E+02  0.47000000000E+01 0. -1.
<mgrwt>
<rscale>  2 0.84758712E+01</rscale>
<asrwt>0</asrwt>
<pdfrwt beam="1">  1       21 0.16642879E-02 0.84758712E+01</pdfrwt>
<pdfrwt beam="2">  1       21 0.22386123E-02 0.84758712E+01</pdfrwt>
<totfact> 0.61705012E+08</totfact>
</mgrwt>
</event>
<event>
 4    1  0.4084348E+006  0.7758653E+01  0.7546771E-02  0.2230689E+00
         21   -1    0    0  503  502  0.00000000000E+00  0.00000000000E+00  0.34454262275E+00  0.34454262275E+00  0.00000000000E+00 0.  1.
         21   -1    0    0  501  503 -0.00000000000E+00 -0.00000000000E+00 -0.77450403032E+03  0.77450403032E+03  0.00000000000E+00 0. -1.
          5    1    1    2  501    0  0.33846550667E+01 -0.51624419418E+01 -0.72801689756E+03  0.72805823931E+03  0.47000000000E+01 0. -1.
         -5    1    1    2    0  502 -0.33846550667E+01  0.51624419418E+01 -0.46142590130E+02  0.46790333624E+02  0.47000000000E+01 0.  1.
<mgrwt>
<rscale>  2 0.77586530E+01</rscale>
<asrwt>0</asrwt>
<pdfrwt beam="1">  1       21 0.53006593E-04 0.77586530E+01</pdfrwt>
<pdfrwt beam="2">  1       21 0.11915439E+00 0.77586530E+01</pdfrwt>
<totfact> 0.91319875E+07</totfact>
</mgrwt>
</event>
<event>
 4    1  0.4084348E+006  0.5915072E+01  0.7546771E-02  0.2426610E+00
         21   -1    0    0  501  502  0.00000000000E+00  0.00000000000E+00  0.23556458669E+02  0.23556458669E+02  0.00000000000E+00 0.  1.
         21   -1    0    0  502  503 -0.00000000000E+00 -0.00000000000E+00 -0.32913513025E+01  0.32913513025E+01  0.00000000000E+00 0. -1.
          5    1    1    2  501    0 -0.34504687229E+01 -0.99616534779E+00  0.20076493031E+02  0.20929731298E+02  0.47000000000E+01 0.  1.
         -5    1    1    2    0  503  0.34504687229E+01  0.99616534779E+00  0.18861433518E+00  0.59180786726E+01  0.47000000000E+01 0.  1.
<mgrwt>
<rscale>  2 0.59150723E+01</rscale>
<asrwt>0</asrwt>
<pdfrwt beam="1">  1       21 0.36240705E-02 0.59150723E+01</pdfrwt>
<pdfrwt beam="2">  1       21 0.50636175E-03 0.59150723E+01</pdfrwt>
<totfact> 0.12741385E+09</totfact>
</mgrwt>
</event>
<event>
 4    1  0.4084348E+006  0.6914591E+01  0.7546771E-02  0.2309691E+00
         21   -1    0    0  501  502  0.00000000000E+00  0.00000000000E+00  0.44026072257E+03  0.44026072257E+03  0.00000000000E+00 0.  1.
         21   -1    0    0  502  503 -0.00000000000E+00 -0.00000000000E+00 -0.61803304435E+00  0.61803304435E+00  0.00000000000E+00 0. -1.
          5    1    1    2  501    0 -0.31182334778E+01  0.39997729254E+01  0.41995844894E+03  0.42001536924E+03  0.47000000000E+01 0.  1.
         -5    1    1    2    0  503  0.31182334778E+01 -0.39997729254E+01  0.19684240582E+02  0.20863386369E+02  0.47000000000E+01 0. -1.
<mgrwt>
<rscale>  2 0.69145906E+01</rscale>
<asrwt>0</asrwt>
<pdfrwt beam="1">  1       21 0.67732168E-01 0.69145906E+01</pdfrwt>
<pdfrwt beam="2">  1       21 0.95082359E-04 0.69145906E+01</pdfrwt>
<totfact> 0.12171759E+08</totfact>
</mgrwt>
</event>
<event>
 4    1  0.4084348E+006  0.7011214E+01  0.7546771E-02  0.2299865E+00
         21   -1    0    0  501  502  0.00000000000E+00  0.00000000000E+00  0.70872390044E+01  0.70872390044E+01  0.00000000000E+00 0. -1.
         21   -1    0    0  502  503 -0.00000000000E+00 -0.00000000000E+00 -0.72585492087E+01  0.72585492087E+01  0.00000000000E+00 0. -1.
          5    1    1    2  501    0 -0.42424332878E+01 -0.30114573232E+01  0.14263910874E+01  0.71548380097E+01  0.47000000000E+01 0. -1.
         -5    1    1    2    0  503  0.42424332878E+01  0.30114573232E+01 -0.15977012916E+01  0.71909502034E+01  0.47000000000E+01 0. -1.
<mgrwt>
<rscale>  2 0.70112135E+01</rscale>
<asrwt>0</asrwt>
<pdfrwt beam="1">  1       21 0.10903445E-02 0.70112135E+01</pdfrwt>
<pdfrwt beam="2">  1       21 0.11166999E-02 0.70112135E+01</pdfrwt>
<totfact> 0.27213606E+09</totfact>
</mgrwt>
</event>
<event>
 4    1  0.4084348E+006  0.5925848E+01  0.7546771E-02  0.2425176E+00
         21   -1    0    0  503  502  0.00000000000E+00  0.00000000000E+00  0.13980426015E+00  0.13980426015E+00  0.00000000000E+00 0. -1.
         21   -1    0    0  501  503 -0.00000000000E+00 -0.00000000000E+00 -0.46575414043E+03  0.46575414043E+03  0.00000000000E+00 0. -1.
          5    1    1    2  501    0 -0.27717612255E+01  0.23114953729E+01 -0.39092105888E+03  0.39096597032E+03  0.47000000000E+01 0. -1.
         -5    1    1    2    0  502  0.27717612255E+01 -0.23114953729E+01 -0.74693277282E+02  0.74927974364E+02  0.47000000000E+01 0. -1.
<mgrwt>
<rscale>  2 0.59258477E+01</rscale>
<asrwt>0</asrwt>
<pdfrwt beam="1">  1       21 0.21508445E-04 0.59258477E+01</pdfrwt>
<pdfrwt beam="2">  1       21 0.71654159E-01 0.59258477E+01</pdfrwt>
<totfact> 0.72885055E+08</totfact>
</mgrwt>
</event>
<event>
 4    1  0.4084348E+006  0.7670059E+01  0.7546771E-02  0.2238313E+00
         21   -1    0    0  501  502  0.00000000000E+00  0.00000000000E+00  0.26228715985E+03  0.26228715985E+03  0.00000000000E+00 0.  1.
         21   -1    0    0  502  503 -0.00000000000E+00 -0.00000000000E+00 -0.65334525353E+00  0.65334525353E+00  0.00000000000E+00 0.  1.
          5    1    1    2  501    0 -0.60606893694E+01 -0.88611778868E-01  0.23735624627E+03  0.23748014117E+03  0.47000000000E+01 0.  1.
         -5    1    1    2    0  503  0.60606893694E+01  0.88611778868E-01  0.24277568326E+02  0.25460363931E+02  0.47000000000E+01 0.  1.
<mgrwt>
<rscale>  2 0.76700592E+01</rscale>
<asrwt>0</asrwt>
<pdfrwt beam="1">  1       21 0.40351787E-01 0.76700592E+01</pdfrwt>
<pdfrwt beam="2">  1       21 0.10051486E-03 0.76700592E+01</pdfrwt>
<totfact> 0.31036763E+08</totfact>
</mgrwt>
</event>
<event>
 4    1  0.4084348E+006  0.4944484E+01  0.7546771E-02  0.2577097E+00
         21   -1    0    0  503  502  0.00000000000E+00  0.00000000000E+00  0.11847892421E+00  0.11847892421E+00  0.00000000000E+00 0.  1.
         21   -1    0    0  501  503 -0.00000000000E+00 -0.00000000000E+00 -0.25041883519E+03  0.25041883519E+03  0.00000000000E+00 0. -1.
          5    1    1    2  501    0  0.52241518792E+00 -0.14439540373E+01 -0.17770145133E+03  0.17777022733E+03  0.47000000000E+01 0. -1.
         -5    1    1    2    0  502 -0.52241518792E+00  0.14439540373E+01 -0.72598904932E+02  0.72767086778E+02  0.47000000000E+01 0.  1.
<mgrwt>
<rscale>  2 0.49444839E+01</rscale>
<asrwt>0</asrwt>
<pdfrwt beam="1">  1       21 0.18227728E-04 0.49444839E+01</pdfrwt>
<pdfrwt beam="2">  1       21 0.38525550E-01 0.49444839E+01</pdfrwt>
<totfact> 0.24035610E+09</totfact>
</mgrwt>
</event>
<event>
 4    1  0.4084348E+006  0.8828613E+01  0.7546771E-02  0.2148503E+00
         21   -1    0    0  501  502  0.00000000000E+00  0.00000000000E+00  0.67861816225E-01  0.67861816225E-01  0.00000000000E+00 0. -1.
         21   -1    0    0  502  503 -0.00000000000E+00 -0.00000000000E+00 -0.13936770025E+04  0.13936770025E+04  0.00000000000E+00 0. -1.
          5    1    1    2  501    0 -0.11033299001E+01  0.73916892830E+01 -0.40456073196E+03  0.40465705264E+03  0.47000000000E+01 0. -1.
         -5    1    1    2    0  503  0.11033299001E+01 -0.73916892830E+01 -0.98904840872E+03  0.98908781167E+03  0.47000000000E+01 0. -1.
<mgrwt>
<rscale>  2 0.88286130E+01</rscale>
<asrwt>0</asrwt>
<pdfrwt beam="1">  1       21 0.10439950E-04 0.88286130E+01</pdfrwt>
<pdfrwt beam="2">  1       21 0.21441861E+00 0.88286130E+01</pdfrwt>
<totfact> 0.23311205E+08</totfact>
</mgrwt>
</event>
<event>
 4    1  0.4084348E+006  0.5342938E+01  0.7546771E-02  0.2509690E+00
         21   -1    0    0  503  502  0.00000000000E+00  0.00000000000E+00  0.29774879142E+03  0.29774879142E+03  0.00000000000E+00 0.  1.
         21   -1    0    0  501  503 -0.00000000000E+00 -0.00000000000E+00 -0.96289305466E-01  0.96289305466E-01  0.00000000000E+00 0.  1.
          5    1    1    2  501    0 -0.15398055253E+00  0.25363913014E+01  0.13907055935E+03  0.13917315642E+03  0.47000000000E+01 0.  1.
         -5    1    1    2    0  502  0.15398055253E+00 -0.25363913014E+01  0.15858194276E+03  0.15867192430E+03  0.47000000000E+01 0.  1.
<mgrwt>
<rscale>  2 0.53429384E+01</rscale>
<asrwt>0</asrwt>
<pdfrwt beam="1">  1       21 0.45806769E-01 0.53429384E+01</pdfrwt>
<pdfrwt beam="2">  1       21 0.14813978E-04 0.53429384E+01</pdfrwt>
<totfact> 0.25067818E+09</totfact>
</mgrwt>
</event>
<event>
 4    1  0.4084348E+006  0.1488339E+02  0.7546771E-02  0.1871648E+00
         21   -1    0    0  503  502  0.00000000000E+00  0.00000000000E+00  0.10870617430E+00  0.10870617430E+00  0.00000000000E+00 0.  1.
         21   -1    0    0  501  503 -0.00000000000E+00 -0.00000000000E+00 -0.22268351874E+04  0.22268351874E+04  0.00000000000E+00 0. -1.
          5    1    1    2  501    0  0.12228423860E+02 -0.70633608271E+01 -0.14378300165E+04  0.14379070456E+04  0.47000000000E+01 0. -1.
         -5    1    1    2    0  502 -0.12228423860E+02  0.70633608271E+01 -0.78889646470E+03  0.78903684795E+03  0.47000000000E+01 0.  1.
<mgrwt>
<rscale>  2 0.14883394E+02</rscale>
<asrwt>0</asrwt>
<pdfrwt beam="1">  1       21 0.16723964E-04 0.14883394E+02</pdfrwt>
<pdfrwt beam="2">  1       21 0.34259132E+00 0.14883394E+02</pdfrwt>
<totfact> 0.36471622E+07</totfact>
</mgrwt>
</event>
<event>
 4    1  0.4084348E+006  0.5420010E+01  0.7546771E-02  0.2497636E+00
         21   -1    0    0  501  502  0.00000000000E+00  0.00000000000E+00  0.26329215595E+02  0.26329215595E+02  0.00000000000E+00 0.  1.
         21   -1    0    0  502  503 -0.00000000000E+00 -0.00000000000E+00 -0.12908989612E+01  0.12908989612E+01  0.00000000000E+00 0. -1.
          5    1    1    2  501    0 -0.24180613086E+01  0.11997867621E+01  0.17606230501E+02  0.18421613969E+02  0.47000000000E+01 0.  1.
         -5    1    1    2    0  503  0.24180613086E+01 -0.11997867621E+01  0.74320861322E+01  0.91985005867E+01  0.47000000000E+01 0. -1.
<mgrwt>
<rscale>  2 0.54200100E+01</rscale>
<asrwt>0</asrwt>
<pdfrwt beam="1">  1       21 0.40506481E-02 0.54200100E+01</pdfrwt>
<pdfrwt beam="2">  1       21 0.19859986E-03 0.54200100E+01</pdfrwt>
<totfact> 0.36137993E+09</totfact>
</mgrwt>
</event>
<event>
 4    1  0.4084348E+006  0.7466118E+01  0.7546771E-02  0.2256419E+00
         21   -1    0    0  503  502  0.00000000000E+00  0.00000000000E+00  0.85134904321E+00  0.85134904321E+00  0.00000000000E+00 0.  1.
         21   -1    0    0  501  503 -0.00000000000E+00 -0.00000000000E+00 -0.23034616424E+03  0.23034616424E+03  0.00000000000E+00 0. -1.
          5    1    1    2  501    0 -0.28325496669E+01  0.50625668378E+01 -0.21254625136E+03  0.21267734220E+03  0.47000000000E+01 0. -1.
         -5    1    1    2    0  502  0.28325496669E+01 -0.50625668378E+01 -0.16948563837E+02  0.18520171078E+02  0.47000000000E+01 0.  1.
<mgrwt>
<rscale>  2 0.74661182E+01</rscale>
<asrwt>0</asrwt>
<pdfrwt beam="1">  1       21 0.13097676E-03 0.74661182E+01</pdfrwt>
<pdfrwt beam="2">  1       21 0.35437876E-01 0.74661182E+01</pdfrwt>
<totfact> 0.26766484E+08</totfact>
</mgrwt>
</event>
<event>
 4    1  0.4084348E+006  0.6250141E+01  0.7546771E-02  0.2383962E+00
         21   -1    0    0  503  502  0.00000000000E+00  0.00000000000E+00  0.13211008591E+02  0.13211008591E+02  0.00000000000E+00 0.  1.
         21   -1    0    0  501  503 -0.00000000000E+00 -0.00000000000E+00 -0.30265046582E+01  0.30265046582E+01  0.00000000000E+00 0.  1.
          5    1    1    2  501    0  0.72682984408E+00 -0.40553648404E+01  0.38614500573E+01  0.73467722270E+01  0.47000000000E+01 0.  1.
         -5    1    1    2    0  502 -0.72682984408E+00  0.40553648404E+01  0.63230538757E+01  0.88907410223E+01  0.47000000000E+01 0.  1.
<mgrwt>
<rscale>  2 0.62501412E+01</rscale>
<asrwt>0</asrwt>
<pdfrwt beam="1">  1       21 0.20324628E-02 0.62501412E+01</pdfrwt>
<pdfrwt beam="2">  1       21 0.46561611E-03 0.62501412E+01</pdfrwt>
<totfact> 0.34735528E+09</totfact>
</mgrwt>
</event>
<event>
 4    1  0.4084348E+006  0.9321934E+01  0.7546771E-02  0.2115764E+00
         21   -1    0    0  503  502  0.00000000000E+00  0.00000000000E+00  0.48206425232E+01  0.48206425232E+01  0.00000000000E+00 0. -1.
         21   -1    0    0  501  503 -0.00000000000E+00 -0.00000000000E+00 -0.30115270927E+02  0.30115270927E+02  0.00000000000E+00 0. -1.
          5    1    1    2  501    0  0.39163201072E+01 -0.70335547880E+01 -0.23714647391E+02  0.25481031317E+02  0.47000000000E+01 0. -1.
         -5    1    1    2    0  502 -0.39163201072E+01  0.70335547880E+01 -0.15799810129E+01  0.94548821325E+01  0.47000000000E+01 0. -1.
<mgrwt>
<rscale>  2 0.93219341E+01</rscale>
<asrwt>0</asrwt>
<pdfrwt beam="1">  1       21 0.74163730E-03 0.93219341E+01</pdfrwt>
<pdfrwt beam="2">  1       21 0.46331187E-02 0.93219341E+01</pdfrwt>
<totfact> 0.71001373E+08</totfact>
</mgrwt>
</event>
<event>
 4    1  0.4084348E+006  0.6380042E+01  0.7546771E-02  0.2368438E+00
         21   -1    0    0  503  502  0.00000000000E+00  0.00000000000E+00  0.42087364124E+01  0.42087364124E+01  0.00000000000E+00 0.  1.
         21   -1    0    0  501  503 -0.00000000000E+00 -0.00000000000E+00 -0.14459876380E+02  0.14459876380E+02  0.00000000000E+00 0.  1.
          5    1    1    2  501    0 -0.42117656665E+01 -0.93593271200E+00 -0.10497029794E+02  0.12283833871E+02  0.47000000000E+01 0.  1.
         -5    1    1    2    0  502  0.42117656665E+01  0.93593271200E+00  0.24588982640E+00  0.63847789216E+01  0.47000000000E+01 0.  1.
<mgrwt>
<rscale>  2 0.63800423E+01</rscale>
<asrwt>0</asrwt>
<pdfrwt beam="1">  1       21 0.64749791E-03 0.63800423E+01</pdfrwt>
<pdfrwt beam="2">  1       21 0.22245964E-02 0.63800423E+01</pdfrwt>
<totfact> 0.19581199E+09</totfact>
</mgrwt>
</event>
<event>
 4    1  0.4084348E+006  0.6159805E+01  0.7546771E-02  0.2395078E+00
         21   -1    0    0  501  502  0.00000000000E+00  0.00000000000E+00  0.99610189241E+01  0.99610189241E+01  0.00000000000E+00 0.  1.
         21   -1    0    0  502  503 -0.00000000000E+00 -0.00000000000E+00 -0.50385778027E+01  0.50385778027E+01  0.00000000000E+00 0.  1.
          5    1    1    2  501    0  0.21931780935E+01  0.33231265696E+01  0.61658419978E+01  0.87155497755E+01  0.47000000000E+01 0.  1.
         -5    1    1    2    0  503 -0.21931780935E+01 -0.33231265696E+01 -0.12434008764E+01  0.62840469513E+01  0.47000000000E+01 0.  1.
<mgrwt>
<rscale>  2 0.61598052E+01</rscale>
<asrwt>0</asrwt>
<pdfrwt beam="1">  1       21 0.15324644E-02 0.61598052E+01</pdfrwt>
<pdfrwt beam="2">  1       21 0.77516582E-03 0.61598052E+01</pdfrwt>
<totfact> 0.25221863E+09</totfact>
</mgrwt>
</event>
<event>
 4    1  0.4084348E+006  0.5064702E+01  0.7546771E-02  0.2555802E+00
         21   -1    0    0  503  502  0.00000000000E+00  0.00000000000E+00  0.12103474008E+03  0.12103474008E+03  0.00000000000E+00 0. -1.
         21   -1    0    0  501  503 -0.00000000000E+00 -0.00000000000E+00 -0.54600274164E+00  0.54600274164E+00  0.00000000000E+00 0. -1.
          5    1    1    2  501    0  0.30750919396E+00 -0.18618921435E+01  0.12693743492E+02  0.13666833141E+02  0.47000000000E+01 0. -1.
         -5    1    1    2    0  502 -0.30750919396E+00  0.18618921435E+01  0.10779499385E+03  0.10791390968E+03  0.47000000000E+01 0. -1.
<mgrwt>
<rscale>  2 0.50647018E+01</rscale>
<asrwt>0</asrwt>
<pdfrwt beam="1">  1       21 0.18620708E-01 0.50647018E+01</pdfrwt>
<pdfrwt beam="2">  1       21 0.84000518E-04 0.50647018E+01</pdfrwt>
<totfact> 0.10697174E+09</totfact>
</mgrwt>
</event>
<event>
 4    1  0.4084348E+006  0.8036048E+01  0.7546771E-02  0.2207700E+00
         21   -1    0    0  503  502  0.00000000000E+00  0.00000000000E+00  0.76275520004E+01  0.76275520004E+01  0.00000000000E+00 0. -1.
         21   -1    0    0  501  503 -0.00000000000E+00 -0.00000000000E+00 -0.10219755090E+02  0.10219755090E+02  0.00000000000E+00 0. -1.
          5    1    1    2  501    0  0.24583660988E+00 -0.65136498674E+01 -0.49922953372E+01  0.94605012007E+01  0.47000000000E+01 0. -1.
         -5    1    1    2    0  502 -0.24583660988E+00  0.65136498674E+01  0.24000922476E+01  0.83868058897E+01  0.47000000000E+01 0. -1.
<mgrwt>
<rscale>  2 0.80360482E+01</rscale>
<asrwt>0</asrwt>
<pdfrwt beam="1">  1       21 0.11734695E-02 0.80360482E+01</pdfrwt>
<pdfrwt beam="2">  1       21 0.15722700E-02 0.80360482E+01</pdfrwt>
<totfact> 0.16576155E+09</totfact>
</mgrwt>
</event>
<event>
 4    1  0.4084348E+006  0.4952883E+01  0.7546771E-02  0.2575581E+00
         21   -1    0    0  501  502  0.00000000000E+00  0.00000000000E+00  0.61602849247E+02  0.61602849247E+02  0.00000000000E+00 0.  1.
         21   -1    0    0  502  503 -0.00000000000E+00 -0.00000000000E+00 -0.42352147793E+00  0.42352147793E+00  0.00000000000E+00 0.  1.
          5    1    1    2  501    0 -0.11213437118E+01  0.10879536915E+01  0.38170929831E+02  0.38490920217E+02  0.47000000000E+01 0.  1.
         -5    1    1    2    0  503  0.11213437118E+01 -0.10879536915E+01  0.23008397937E+02  0.23535450507E+02  0.47000000000E+01 0.  1.
<mgrwt>
<rscale>  2 0.49528835E+01</rscale>
<asrwt>0</asrwt>
<pdfrwt beam="1">  1       21 0.94773543E-02 0.49528835E+01</pdfrwt>
<pdfrwt beam="2">  1       21 0.65157200E-04 0.49528835E+01</pdfrwt>
<totfact> 0.41549150E+09</totfact>
</mgrwt>
</event>
<event>
 4    1  0.4084348E+006  0.5642793E+01  0.7546771E-02  0.2464370E+00
         21   -1    0    0  503  502  0.00000000000E+00  0.00000000000E+00  0.34563024183E+02  0.34563024183E+02  0.00000000000E+00 0.  1.
         21   -1    0    0  501  503 -0.00000000000E+00 -0.00000000000E+00 -0.95791567797E+00  0.95791567797E+00  0.00000000000E+00 0. -1.
          5    1    1    2  501    0 -0.13466225988E+01  0.28173953718E+01  0.13327721931E+02  0.14473053616E+02  0.47000000000E+01 0.  1.
         -5    1    1    2    0  502  0.13466225988E+01 -0.28173953718E+01  0.20277386574E+02  0.21047886245E+02  0.47000000000E+01 0. -1.
<mgrwt>
<rscale>  2 0.56427927E+01</rscale>
<asrwt>0</asrwt>
<pdfrwt beam="1">  1       21 0.53173874E-02 0.56427927E+01</pdfrwt>
<pdfrwt beam="2">  1       21 0.14737167E-03 0.56427927E+01</pdfrwt>
<totfact> 0.37627618E+09</totfact>
</mgrwt>
</event>
<event>
 4    1  0.4084348E+006  0.5422209E+01  0.7546771E-02  0.2497296E+00
         21   -1    0    0  501  502  0.00000000000E+00  0.00000000000E+00  0.83931653385E+02  0.83931653385E+02  0.00000000000E+00 0. -1.
         21   -1    0    0  502  503 -0.00000000000E+00 -0.00000000000E+00 -0.86517481726E+00  0.86517481726E+00  0.00000000000E+00 0.  1.
          5    1    1    2  501    0  0.21435062375E+00 -0.26952562012E+01  0.74241168953E+02  0.74438911328E+02  0.47000000000E+01 0. -1.
         -5    1    1    2    0  503 -0.21435062375E+00  0.26952562012E+01  0.88253096149E+01  0.10357916874E+02  0.47000000000E+01 0.  1.
<mgrwt>
<rscale>  2 0.54222092E+01</rscale>
<asrwt>0</asrwt>
<pdfrwt beam="1">  1       21 0.12912556E-01 0.54222092E+01</pdfrwt>
<pdfrwt beam="2">  1       21 0.13310389E-03 0.54222092E+01</pdfrwt>
<totfact> 0.10904482E+09</totfact>
</mgrwt>
</event>
<event>
 4    1  0.4084348E+006  0.2024165E+02  0.7546771E-02  0.1740565E+00
         21   -1    0    0  501  502  0.00000000000E+00  0.00000000000E+00  0.15013629382E+01  0.15013629382E+01  0.00000000000E+00 0.  1.
         21   -1    0    0  502  503 -0.00000000000E+00 -0.00000000000E+00 -0.27364869833E+03  0.27364869833E+03  0.00000000000E+00 0. -1.
          5    1    1    2  501    0 -0.14765374273E+02  0.13023745756E+02 -0.12888489956E+03  0.13046471387E+03  0.47000000000E+01 0. -1.
         -5    1    1    2    0  503  0.14765374273E+02 -0.13023745756E+02 -0.14326243583E+03  0.14468534740E+03  0.47000000000E+01 0.  1.
<mgrwt>
<rscale>  2 0.20241646E+02</rscale>
<asrwt>0</asrwt>
<pdfrwt beam="1">  1       21 0.23097924E-03 0.20241646E+02</pdfrwt>
<pdfrwt beam="2">  1       21 0.42099741E-01 0.20241646E+02</pdfrwt>
<totfact> 0.13350540E+08</totfact>
</mgrwt>
</event>
<event>
 4    1  0.4084348E+006  0.7171985E+01  0.7546771E-02  0.2283997E+00
         21   -1    0    0  503  502  0.00000000000E+00  0.00000000000E+00  0.20150258316E+01  0.20150258316E+01  0.00000000000E+00 0.  1.
         21   -1    0    0  501  503 -0.00000000000E+00 -0.00000000000E+00 -0.33099495628E+02  0.33099495628E+02  0.00000000000E+00 0.  1.
          5    1    1    2  501    0 -0.52652161885E+01  0.12747044862E+01 -0.23940088696E+02  0.24991302883E+02  0.47000000000E+01 0.  1.
         -5    1    1    2    0  502  0.52652161885E+01 -0.12747044862E+01 -0.71443811012E+01  0.10123218577E+02  0.47000000000E+01 0.  1.
<mgrwt>
<rscale>  2 0.71719853E+01</rscale>
<asrwt>0</asrwt>
<pdfrwt beam="1">  1       21 0.31000397E-03 0.71719853E+01</pdfrwt>
<pdfrwt beam="2">  1       21 0.50922302E-02 0.71719853E+01</pdfrwt>
<totfact> 0.17711880E+09</totfact>
</mgrwt>
</event>
<event>
 4    1  0.4084348E+006  0.6057153E+01  0.7546771E-02  0.2408044E+00
         21   -1    0    0  501  502  0.00000000000E+00  0.00000000000E+00  0.67886424780E-01  0.67886424780E-01  0.00000000000E+00 0. -1.
         21   -1    0    0  502  503 -0.00000000000E+00 -0.00000000000E+00 -0.12403661739E+04  0.12403661739E+04  0.00000000000E+00 0. -1.
          5    1    1    2  501    0  0.37896576439E+01 -0.48744021501E+00 -0.15424961463E+03  0.15436849651E+03  0.47000000000E+01 0. -1.
         -5    1    1    2    0  503 -0.37896576439E+01  0.48744021501E+00 -0.10860486729E+04  0.10860655638E+04  0.47000000000E+01 0. -1.
<mgrwt>
<rscale>  2 0.60571530E+01</rscale>
<asrwt>0</asrwt>
<pdfrwt beam="1">  1       21 0.10443003E-04 0.60571530E+01</pdfrwt>
<pdfrwt beam="2">  1       21 0.19084498E+00 0.60571530E+01</pdfrwt>
<totfact> 0.25481197E+08</totfact>
</mgrwt>
</event>
<event>
 4    1  0.4084348E+006  0.8503180E+01  0.7546771E-02  0.2171739E+00
         21   -1    0    0  501  502  0.00000000000E+00  0.00000000000E+00  0.20365698790E+01  0.20365698790E+01  0.00000000000E+00 0.  1.
         21   -1    0    0  502  503 -0.00000000000E+00 -0.00000000000E+00 -0.48259752660E+02  0.48259752660E+02  0.00000000000E+00 0. -1.
          5    1    1    2  501    0 -0.64919293744E+01 -0.28405855713E+01 -0.10181964572E+02  0.13265612535E+02  0.47000000000E+01 0.  1.
         -5    1    1    2    0  503  0.64919293744E+01  0.28405855713E+01 -0.36041218209E+02  0.37030710004E+02  0.47000000000E+01 0.  1.
<mgrwt>
<rscale>  2 0.85031802E+01</rscale>
<asrwt>0</asrwt>
<pdfrwt beam="1">  1       21 0.31331844E-03 0.85031802E+01</pdfrwt>
<pdfrwt beam="2">  1       21 0.74245774E-02 0.85031802E+01</pdfrwt>
<totfact> 0.11051486E+09</totfact>
</mgrwt>
</event>
<event>
 4    1  0.4084348E+006  0.7412799E+01  0.7546771E-02  0.2261286E+00
         21   -1    0    0  501  502  0.00000000000E+00  0.00000000000E+00  0.55972185872E+00  0.55972185872E+00  0.00000000000E+00 0.  1.
         21   -1    0    0  502  503 -0.00000000000E+00 -0.00000000000E+00 -0.33714104747E+03  0.33714104747E+03  0.00000000000E+00 0.  1.
          5    1    1    2  501    0  0.19209227500E+01  0.54008934802E+01 -0.26134359084E+02  0.27165314637E+02  0.47000000000E+01 0.  1.
         -5    1    1    2    0  503 -0.19209227500E+01 -0.54008934802E+01 -0.31044696652E+03  0.31053545469E+03  0.47000000000E+01 0.  1.
<mgrwt>
<rscale>  2 0.74127994E+01</rscale>
<asrwt>0</asrwt>
<pdfrwt beam="1">  1       21 0.86110886E-04 0.74127994E+01</pdfrwt>
<pdfrwt beam="2">  1       21 0.51867955E-01 0.74127994E+01</pdfrwt>
<totfact> 0.23857527E+08</totfact>
</mgrwt>
</event>
<event>
 4    1  0.4084348E+006  0.7013850E+01  0.7546771E-02  0.2299600E+00
         21   -1    0    0  501  502  0.00000000000E+00  0.00000000000E+00  0.93572427511E+03  0.93572427511E+03  0.00000000000E+00 0. -1.
         21   -1    0    0  502  503 -0.00000000000E+00 -0.00000000000E+00 -0.57793882438E-01  0.57793882438E-01  0.00000000000E+00 0. -1.
          5    1    1    2  501    0  0.48869553336E+01  0.17949243166E+01  0.60845887055E+03  0.60849929436E+03  0.47000000000E+01 0. -1.
         -5    1    1    2    0  503 -0.48869553336E+01 -0.17949243166E+01  0.32720761068E+03  0.32728277463E+03  0.47000000000E+01 0. -1.
<mgrwt>
<rscale>  2 0.70138496E+01</rscale>
<asrwt>0</asrwt>
<pdfrwt beam="1">  1       21 0.14394545E+00 0.70138496E+01</pdfrwt>
<pdfrwt beam="2">  1       21 0.88921159E-05 0.70138496E+01</pdfrwt>
<totfact> 0.63685766E+08</totfact>
</mgrwt>
</event>
<event>
 4    1  0.4084348E+006  0.7103843E+01  0.7546771E-02  0.2290651E+00
         21   -1    0    0  503  502  0.00000000000E+00  0.00000000000E+00  0.85865235314E+00  0.85865235314E+00  0.00000000000E+00 0. -1.
         21   -1    0    0  501  503 -0.00000000000E+00 -0.00000000000E+00 -0.90889383994E+02  0.90889383994E+02  0.00000000000E+00 0.  1.
          5    1    1    2  501    0 -0.29630261501E+01  0.44266303949E+01 -0.72285128043E+02  0.72633355401E+02  0.47000000000E+01 0.  1.
         -5    1    1    2    0  502  0.29630261501E+01 -0.44266303949E+01 -0.17745603598E+02  0.19114680946E+02  0.47000000000E+01 0. -1.
<mgrwt>
<rscale>  2 0.71038427E+01</rscale>
<asrwt>0</asrwt>
<pdfrwt beam="1">  1       21 0.13210043E-03 0.71038427E+01</pdfrwt>
<pdfrwt beam="2">  1       21 0.13982975E-01 0.71038427E+01</pdfrwt>
<totfact> 0.11984072E+09</totfact>
</mgrwt>
</event>
<event>
 4    1  0.4084348E+006  0.6310327E+01  0.7546771E-02  0.2376703E+00
         21   -1    0    0  501  502  0.00000000000E+00  0.00000000000E+00  0.69752161702E+01  0.69752161702E+01  0.00000000000E+00 0.  1.
         21   -1    0    0  502  503 -0.00000000000E+00 -0.00000000000E+00 -0.68560264995E+01  0.68560264995E+01  0.00000000000E+00 0. -1.
          5    1    1    2  501    0  0.31124448765E+01  0.28360037076E+01  0.28884870283E+01  0.69399990959E+01  0.47000000000E+01 0.  1.
         -5    1    1    2    0  503 -0.31124448765E+01 -0.28360037076E+01 -0.27692973576E+01  0.68912435738E+01  0.47000000000E+01 0. -1.
<mgrwt>
<rscale>  2 0.63103273E+01</rscale>
<asrwt>0</asrwt>
<pdfrwt beam="1">  1       21 0.10731102E-02 0.63103273E+01</pdfrwt>
<pdfrwt beam="2">  1       21 0.10547733E-02 0.63103273E+01</pdfrwt>
<totfact> 0.27688381E+09</totfact>
</mgrwt>
</event>
<event>
 4    1  0.4084348E+006  0.5825639E+01  0.7546771E-02  0.2438685E+00
         21   -1    0    0  503  502  0.00000000000E+00  0.00000000000E+00  0.67718990241E+01  0.67718990241E+01  0.00000000000E+00 0.  1.
         21   -1    0    0  501  503 -0.00000000000E+00 -0.00000000000E+00 -0.53853226112E+01  0.53853226112E+01  0.00000000000E+00 0.  1.
          5    1    1    2  501    0 -0.20392447877E+01  0.27730041224E+01 -0.90800652293E+00  0.58959771890E+01  0.47000000000E+01 0.  1.
         -5    1    1    2    0  502  0.20392447877E+01 -0.27730041224E+01  0.22945829358E+01  0.62612444463E+01  0.47000000000E+01 0.  1.
<mgrwt>
<rscale>  2 0.58256391E+01</rscale>
<asrwt>0</asrwt>
<pdfrwt beam="1">  1       21 0.10418306E-02 0.58256391E+01</pdfrwt>
<pdfrwt beam="2">  1       21 0.82851116E-03 0.58256391E+01</pdfrwt>
<totfact> 0.37792149E+09</totfact>
</mgrwt>
</event>
<event>
 4    1  0.4084348E+006  0.5565865E+01  0.7546771E-02  0.2475602E+00
         21   -1    0    0  501  502  0.00000000000E+00  0.00000000000E+00  0.20752551557E+00  0.20752551557E+00  0.00000000000E+00 0. -1.
         21   -1    0    0  502  503 -0.00000000000E+00 -0.00000000000E+00 -0.43279009053E+03  0.43279009053E+03  0.00000000000E+00 0. -1.
          5    1    1    2  501    0 -0.29773141066E+01 -0.15636966900E+00 -0.41063414898E+02  0.41438905558E+02  0.47000000000E+01 0. -1.
         -5    1    1    2    0  503  0.29773141066E+01  0.15636966900E+00 -0.39151915011E+03  0.39155871048E+03  0.47000000000E+01 0. -1.
<mgrwt>
<rscale>  2 0.55658648E+01</rscale>
<asrwt>0</asrwt>
<pdfrwt beam="1">  1       21 0.31927219E-04 0.55658648E+01</pdfrwt>
<pdfrwt beam="2">  1       21 0.66582639E-01 0.55658648E+01</pdfrwt>
<totfact> 0.47315859E+08</totfact>
</mgrwt>
</event>
<event>
 4    1  0.4084348E+006  0.8376083E+01  0.7546771E-02  0.2181204E+00
         21   -1    0    0  503  502  0.00000000000E+00  0.00000000000E+00  0.73647674413E+00  0.73647674413E+00  0.00000000000E+00 0.  1.
         21   -1    0    0  501  503 -0.00000000000E+00 -0.00000000000E+00 -0.10215045129E+03  0.10215045129E+03  0.00000000000E+00 0. -1.
          5    1    1    2  501    0  0.63920561035E+01  0.26852173814E+01 -0.64065199518E+02  0.64610436951E+02  0.47000000000E+01 0. -1.
         -5    1    1    2    0  502 -0.63920561035E+01 -0.26852173814E+01 -0.37348775028E+02  0.38276491084E+02  0.47000000000E+01 0.  1.
<mgrwt>
<rscale>  2 0.83760834E+01</rscale>
<asrwt>0</asrwt>
<pdfrwt beam="1">  1       21 0.11330414E-03 0.83760834E+01</pdfrwt>
<pdfrwt beam="2">  1       21 0.15715450E-01 0.83760834E+01</pdfrwt>
<totfact> 0.13690277E+09</totfact>
</mgrwt>
</event>
<event>
 4    1  0.4084348E+006  0.7134652E+01  0.7546771E-02  0.2287629E+00
         21   -1    0    0  501  502  0.00000000000E+00  0.00000000000E+00  0.51136813486E+00  0.51136813486E+00  0.00000000000E+00 0.  1.
         21   -1    0    0  502  503 -0.00000000000E+00 -0.00000000000E+00 -0.62739746565E+03  0.62739746565E+03  0.00000000000E+00 0.  1.
          5    1    1    2  501    0 -0.40927587221E+01 -0.34731239914E+01 -0.25469764182E+02  0.26450182452E+02  0.47000000000E+01 0.  1.
         -5    1    1    2    0  503  0.40927587221E+01  0.34731239914E+01 -0.60141633333E+03  0.60145865133E+03  0.47000000000E+01 0.  1.
<mgrwt>
<rscale>  2 0.71346524E+01</rscale>
<asrwt>0</asrwt>
<pdfrwt beam="1">  1       21 0.78672340E-04 0.71346524E+01</pdfrwt>
<pdfrwt beam="2">  1       21 0.96522295E-01 0.71346524E+01</pdfrwt>
<totfact> 0.79591615E+07</totfact>
</mgrwt>
</event>
<event>
 4    1  0.4084348E+006  0.7367596E+01  0.7546771E-02  0.2265456E+00
         21   -1    0    0  503  502  0.00000000000E+00  0.00000000000E+00  0.18596921285E+01  0.18596921285E+01  0.00000000000E+00 0.  1.
         21   -1    0    0  501  503 -0.00000000000E+00 -0.00000000000E+00 -0.53162783135E+03  0.53162783135E+03  0.00000000000E+00 0.  1.
          5    1    1    2  501    0 -0.28911786875E+01 -0.48818599939E+01 -0.52420183294E+03  0.52425360574E+03  0.47000000000E+01 0.  1.
         -5    1    1    2    0  502  0.28911786875E+01  0.48818599939E+01 -0.55663062784E+01  0.92339177378E+01  0.47000000000E+01 0.  1.
<mgrwt>
<rscale>  2 0.73675960E+01</rscale>
<asrwt>0</asrwt>
<pdfrwt beam="1">  1       21 0.28610658E-03 0.73675960E+01</pdfrwt>
<pdfrwt beam="2">  1       21 0.81788869E-01 0.73675960E+01</pdfrwt>
<totfact> 0.19243496E+07</totfact>
</mgrwt>
</event>
<event>
 4    1  0.4084348E+006  0.5337356E+01  0.7546771E-02  0.2510575E+00
         21   -1    0    0  501  502  0.00000000000E+00  0.00000000000E+00  0.65988401526E+02  0.65988401526E+02  0.00000000000E+00 0. -1.
         21   -1    0    0  502  503 -0.00000000000E+00 -0.00000000000E+00 -0.13906976983E+01  0.13906976983E+01  0.00000000000E+00 0. -1.
          5    1    1    2  501    0  0.25292941366E+01  0.61739217099E-02  0.60274942299E+02  0.60510792724E+02  0.47000000000E+01 0. -1.
         -5    1    1    2    0  503 -0.25292941366E+01 -0.61739217099E-02  0.43227615285E+01  0.68683065000E+01  0.47000000000E+01 0. -1.
<mgrwt>
<rscale>  2 0.53373558E+01</rscale>
<asrwt>0</asrwt>
<pdfrwt beam="1">  1       21 0.10152059E-01 0.53373558E+01</pdfrwt>
<pdfrwt beam="2">  1       21 0.21395354E-03 0.53373558E+01</pdfrwt>
<totfact> 0.82094712E+08</totfact>
</mgrwt>
</event>
<event>
 4    1  0.4084348E+006  0.5564838E+01  0.7546771E-02  0.2475754E+00
         21   -1    0    0  501  502  0.00000000000E+00  0.00000000000E+00  0.23918126414E+03  0.23918126414E+03  0.00000000000E+00 0.  1.
         21   -1    0    0  502  503 -0.00000000000E+00 -0.00000000000E+00 -0.54154567245E+00  0.54154567245E+00  0.00000000000E+00 0. -1.
          5    1    1    2  501    0 -0.29435278138E+01  0.46158747879E+00  0.22387585425E+03  0.22394500561E+03  0.47000000000E+01 0.  1.
         -5    1    1    2    0  503  0.29435278138E+01 -0.46158747879E+00  0.14763864217E+02  0.15777804207E+02  0.47000000000E+01 0. -1.
<mgrwt>
<rscale>  2 0.55648377E+01</rscale>
<asrwt>0</asrwt>
<pdfrwt beam="1">  1       21 0.36797033E-01 0.55648377E+01</pdfrwt>
<pdfrwt beam="2">  1       21 0.83314910E-04 0.55648377E+01</pdfrwt>
<totfact> 0.38116867E+08</totfact>
</mgrwt>
</event>
<event>
 4    1  0.4084348E+006  0.8781776E+01  0.7546771E-02  0.2151762E+00
         21   -1    0    0  503  502  0.00000000000E+00  0.00000000000E+00  0.54328198220E+01  0.54328198220E+01  0.00000000000E+00 0. -1.
         21   -1    0    0  501  503 -0.00000000000E+00 -0.00000000000E+00 -0.22285593961E+02  0.22285593961E+02  0.00000000000E+00 0.  1.
          5    1    1    2  501    0 -0.71940037283E+01 -0.18099465548E+01 -0.16776895583E+02  0.18936309608E+02  0.47000000000E+01 0.  1.
         -5    1    1    2    0  502  0.71940037283E+01  0.18099465548E+01 -0.75878555660E-01  0.87821041744E+01  0.47000000000E+01 0. -1.
<mgrwt>
<rscale>  2 0.87817764E+01</rscale>
<asrwt>0</asrwt>
<pdfrwt beam="1">  1       21 0.83581844E-03 0.87817764E+01</pdfrwt>
<pdfrwt beam="2">  1       21 0.34285529E-02 0.87817764E+01</pdfrwt>
<totfact> 0.90779443E+08</totfact>
</mgrwt>
</event>
<event>
 4    1  0.4084348E+006  0.6918091E+01  0.7546771E-02  0.2309331E+00
         21   -1    0    0  503  502  0.00000000000E+00  0.00000000000E+00  0.12317173623E+04  0.12317173623E+04  0.00000000000E+00 0.  1.
         21   -1    0    0  501  503 -0.00000000000E+00 -0.00000000000E+00 -0.70605504435E-01  0.70605504435E-01  0.00000000000E+00 0. -1.
          5    1    1    2  501    0 -0.48241832374E+01  0.15802668681E+01  0.20282051623E+03  0.20293846799E+03  0.47000000000E+01 0. -1.
         -5    1    1    2    0  502  0.48241832374E+01 -0.15802668681E+01  0.10288262406E+04  0.10288494998E+04  0.47000000000E+01 0.  1.
<mgrwt>
<rscale>  2 0.69180913E+01</rscale>
<asrwt>0</asrwt>
<pdfrwt beam="1">  1       21 0.18947777E+00 0.69180913E+01</pdfrwt>
<pdfrwt beam="2">  1       21 0.10863372E-04 0.69180913E+01</pdfrwt>
<totfact> 0.26369509E+08</totfact>
</mgrwt>
</event>
<event>
 4    1  0.4084348E+006  0.4974950E+01  0.7546771E-02  0.2571617E+00
         21   -1    0    0  503  502  0.00000000000E+00  0.00000000000E+00  0.81007041065E+01  0.81007041065E+01  0.00000000000E+00 0.  1.
         21   -1    0    0  501  503 -0.00000000000E+00 -0.00000000000E+00 -0.33806456103E+01  0.33806456103E+01  0.00000000000E+00 0.  1.
          5    1    1    2  501    0  0.39302900917E+00 -0.15829275233E+01  0.41408962028E+01  0.64728009941E+01  0.47000000000E+01 0.  1.
         -5    1    1    2    0  502 -0.39302900917E+00  0.15829275233E+01  0.57916229334E+00  0.50085487227E+01  0.47000000000E+01 0.  1.
<mgrwt>
<rscale>  2 0.49749504E+01</rscale>
<asrwt>0</asrwt>
<pdfrwt beam="1">  1       21 0.12462622E-02 0.49749504E+01</pdfrwt>
<pdfrwt beam="2">  1       21 0.52009933E-03 0.49749504E+01</pdfrwt>
<totfact> 0.47944874E+09</totfact>
</mgrwt>
</event>
<event>
 4    1  0.4084348E+006  0.5309142E+01  0.7546771E-02  0.2515071E+00
         21   -1    0    0  501  502  0.00000000000E+00  0.00000000000E+00  0.15366636105E+02  0.15366636105E+02  0.00000000000E+00 0.  1.
         21   -1    0    0  502  503 -0.00000000000E+00 -0.00000000000E+00 -0.31667875457E+01  0.31667875457E+01  0.00000000000E+00 0.  1.
          5    1    1    2  501    0  0.73099369936E+00 -0.23585243371E+01  0.12110943403E+02  0.13223537309E+02  0.47000000000E+01 0.  1.
         -5    1    1    2    0  503 -0.73099369936E+00  0.23585243371E+01  0.88905156051E-01  0.53098863419E+01  0.47000000000E+01 0.  1.
<mgrwt>
<rscale>  2 0.53091420E+01</rscale>
<asrwt>0</asrwt>
<pdfrwt beam="1">  1       21 0.23640978E-02 0.53091420E+01</pdfrwt>
<pdfrwt beam="2">  1       21 0.48719809E-03 0.53091420E+01</pdfrwt>
<totfact> 0.22645244E+09</totfact>
</mgrwt>
</event>
<event>
 4    1  0.4084348E+006  0.4797386E+01  0.7546771E-02  0.2604403E+00
         21   -1    0    0  501  502  0.00000000000E+00  0.00000000000E+00  0.69511701454E+02  0.69511701454E+02  0.00000000000E+00 0. -1.
         21   -1    0    0  502  503 -0.00000000000E+00 -0.00000000000E+00 -0.20813064623E+01  0.20813064623E+01  0.00000000000E+00 0.  1.
          5    1    1    2  501    0 -0.22326790379E+00 -0.93545049741E+00  0.66541197660E+02  0.66713910860E+02  0.47000000000E+01 0. -1.
         -5    1    1    2    0  503  0.22326790379E+00  0.93545049741E+00  0.88919733162E+00  0.48790970563E+01  0.47000000000E+01 0.  1.
<mgrwt>
<rscale>  2 0.47973864E+01</rscale>
<asrwt>0</asrwt>
<pdfrwt beam="1">  1       21 0.10694106E-01 0.47973864E+01</pdfrwt>
<pdfrwt beam="2">  1       21 0.32020105E-03 0.47973864E+01</pdfrwt>
<totfact> 0.40003575E+08</totfact>
</mgrwt>
</event>
<event>
 4    1  0.4084348E+006  0.9868011E+01  0.7546771E-02  0.2082578E+00
         21   -1    0    0  501  502  0.00000000000E+00  0.00000000000E+00  0.63095923179E+00  0.63095923179E+00  0.00000000000E+00 0.  1.
         21   -1    0    0  502  503 -0.00000000000E+00 -0.00000000000E+00 -0.34121954388E+03  0.34121954388E+03  0.00000000000E+00 0. -1.
          5    1    1    2  501    0  0.86768283340E+01 -0.17289368502E-01 -0.43797756981E+02  0.44895669784E+02  0.47000000000E+01 0.  1.
         -5    1    1    2    0  503 -0.86768283340E+01  0.17289368502E-01 -0.29679082767E+03  0.29695483333E+03  0.47000000000E+01 0. -1.
<mgrwt>
<rscale>  2 0.98680114E+01</rscale>
<asrwt>0</asrwt>
<pdfrwt beam="1">  1       21 0.97070590E-04 0.98680114E+01</pdfrwt>
<pdfrwt beam="2">  1       21 0.52495348E-01 0.98680114E+01</pdfrwt>
<totfact> 0.22938379E+08</totfact>
</mgrwt>
</event>
<event>
 4    1  0.4084348E+006  0.5080153E+01  0.7546771E-02  0.2553128E+00
         21   -1    0    0  503  502  0.00000000000E+00  0.00000000000E+00  0.27722675582E+02  0.27722675582E+02  0.00000000000E+00 0.  1.
         21   -1    0    0  501  503 -0.00000000000E+00 -0.00000000000E+00 -0.21046068805E+01  0.21046068805E+01  0.00000000000E+00 0.  1.
          5    1    1    2  501    0  0.17245241484E+01  0.86253912668E+00  0.16719401444E+01  0.53482091517E+01  0.47000000000E+01 0.  1.
         -5    1    1    2    0  502 -0.17245241484E+01 -0.86253912668E+00  0.23946128557E+02  0.24479073310E+02  0.47000000000E+01 0.  1.
<mgrwt>
<rscale>  2 0.50801533E+01</rscale>
<asrwt>0</asrwt>
<pdfrwt beam="1">  1       21 0.42650268E-02 0.50801533E+01</pdfrwt>
<pdfrwt beam="2">  1       21 0.32378569E-03 0.50801533E+01</pdfrwt>
<totfact> 0.16214995E+09</totfact>
</mgrwt>
</event>
<event>
 4    1  0.4084348E+006  0.4812035E+01  0.7546771E-02  0.2601619E+00
         21   -1    0    0  501  502  0.00000000000E+00  0.00000000000E+00  0.33426455590E+02  0.33426455590E+02  0.00000000000E+00 0.  1.
         21   -1    0    0  502  503 -0.00000000000E+00 -0.00000000000E+00 -0.39016225308E+01  0.39016225308E+01  0.00000000000E+00 0.  1.
          5    1    1    2  501    0 -0.83333802671E+00  0.60928336840E+00  0.31688647063E+02  0.32051927105E+02  0.47000000000E+01 0.  1.
         -5    1    1    2    0  503  0.83333802671E+00 -0.60928336840E+00 -0.21638140040E+01  0.52761510151E+01  0.47000000000E+01 0.  1.
<mgrwt>
<rscale>  2 0.48120348E+01</rscale>
<asrwt>0</asrwt>
<pdfrwt beam="1">  1       21 0.51425314E-02 0.48120348E+01</pdfrwt>
<pdfrwt beam="2">  1       21 0.60024964E-03 0.48120348E+01</pdfrwt>
<totfact> 0.50409558E+08</totfact>
</mgrwt>
</event>
<event>
 4    1  0.4084348E+006  0.5864118E+01  0.7546771E-02  0.2433452E+00
         21   -1    0    0  503  502  0.00000000000E+00  0.00000000000E+00  0.51423026735E+00  0.51423026735E+00  0.00000000000E+00 0.  1.
         21   -1    0    0  501  503 -0.00000000000E+00 -0.00000000000E+00 -0.78290436857E+02  0.78290436857E+02  0.00000000000E+00 0.  1.
          5    1    1    2  501    0 -0.33267667236E+01  0.11092785114E+01 -0.53935485636E+02  0.54253336178E+02  0.47000000000E+01 0.  1.
         -5    1    1    2    0  502  0.33267667236E+01 -0.11092785114E+01 -0.23840720954E+02  0.24551330947E+02  0.47000000000E+01 0.  1.
<mgrwt>
<rscale>  2 0.58641176E+01</rscale>
<asrwt>0</asrwt>
<pdfrwt beam="1">  1       21 0.79112373E-04 0.58641176E+01</pdfrwt>
<pdfrwt beam="2">  1       21 0.12044679E-01 0.58641176E+01</pdfrwt>
<totfact> 0.26062446E+09</totfact>
</mgrwt>
</event>
<event>
 4    1  0.4084348E+006  0.5595114E+01  0.7546771E-02  0.2471301E+00
         21   -1    0    0  501  502  0.00000000000E+00  0.00000000000E+00  0.10449870318E+02  0.10449870318E+02  0.00000000000E+00 0. -1.
         21   -1    0    0  502  503 -0.00000000000E+00 -0.00000000000E+00 -0.33874927428E+01  0.33874927428E+01  0.00000000000E+00 0. -1.
          5    1    1    2  501    0 -0.11148874108E+01 -0.28235311316E+01  0.11784204308E+01  0.57178646977E+01  0.47000000000E+01 0. -1.
         -5    1    1    2    0  503  0.11148874108E+01  0.28235311316E+01  0.58839571442E+01  0.81194983629E+01  0.47000000000E+01 0. -1.
<mgrwt>
<rscale>  2 0.55951141E+01</rscale>
<asrwt>0</asrwt>
<pdfrwt beam="1">  1       21 0.16076723E-02 0.55951141E+01</pdfrwt>
<pdfrwt beam="2">  1       21 0.52115273E-03 0.55951141E+01</pdfrwt>
<totfact> 0.37585428E+09</totfact>
</mgrwt>
</event>
<event>
 4    1  0.4084348E+006  0.5047467E+01  0.7546771E-02  0.2558801E+00
         21   -1    0    0  501  502  0.00000000000E+00  0.00000000000E+00  0.18190107116E+02  0.18190107116E+02  0.00000000000E+00 0.  1.
         21   -1    0    0  502  503 -0.00000000000E+00 -0.00000000000E+00 -0.15616923178E+01  0.15616923178E+01  0.00000000000E+00 0.  1.
          5    1    1    2  501    0  0.97050765404E+00  0.15636617593E+01  0.11486160700E+02  0.12546266809E+02  0.47000000000E+01 0.  1.
         -5    1    1    2    0  503 -0.97050765404E+00 -0.15636617593E+01  0.51422540986E+01  0.72055326256E+01  0.47000000000E+01 0.  1.
<mgrwt>
<rscale>  2 0.50474670E+01</rscale>
<asrwt>0</asrwt>
<pdfrwt beam="1">  1       21 0.27984779E-02 0.50474670E+01</pdfrwt>
<pdfrwt beam="2">  1       21 0.24026037E-03 0.50474670E+01</pdfrwt>
<totfact> 0.44365310E+09</totfact>
</mgrwt>
</event>
<event>
 4    1  0.4084348E+006  0.4849092E+01  0.7546771E-02  0.2594642E+00
         21   -1    0    0  501  502  0.00000000000E+00  0.00000000000E+00  0.61463943848E+00  0.61463943848E+00  0.00000000000E+00 0.  1.
         21   -1    0    0  502  503 -0.00000000000E+00 -0.00000000000E+00 -0.87401604219E+02  0.87401604219E+02  0.00000000000E+00 0.  1.
          5    1    1    2  501    0 -0.25940692090E+00  0.11646481912E+01 -0.10393393857E+02  0.11468929036E+02  0.47000000000E+01 0.  1.
         -5    1    1    2    0  503  0.25940692090E+00 -0.11646481912E+01 -0.76393570923E+02  0.76547314621E+02  0.47000000000E+01 0.  1.
<mgrwt>
<rscale>  2 0.48490924E+01</rscale>
<asrwt>0</asrwt>
<pdfrwt beam="1">  1       21 0.94559913E-04 0.48490924E+01</pdfrwt>
<pdfrwt beam="2">  1       21 0.13446401E-01 0.48490924E+01</pdfrwt>
<totfact> 0.14588489E+09</totfact>
</mgrwt>
</event>
<event>
 4    1  0.4084348E+006  0.4967670E+01  0.7546771E-02  0.2572921E+00
         21   -1    0    0  503  502  0.00000000000E+00  0.00000000000E+00  0.42728822051E-01  0.42728822051E-01  0.00000000000E+00 0. -1.
         21   -1    0    0  501  503 -0.00000000000E+00 -0.00000000000E+00 -0.66503805339E+03  0.66503805339E+03  0.00000000000E+00 0. -1.
          5    1    1    2  501    0 -0.11611715294E+01 -0.11132959795E+01 -0.45311563460E+03  0.45314286496E+03  0.47000000000E+01 0.  1.
         -5    1    1    2    0  502  0.11611715294E+01  0.11132959795E+01 -0.21187968997E+03  0.21193791725E+03  0.47000000000E+01 0.  1.
<mgrwt>
<rscale>  2 0.49676702E+01</rscale>
<asrwt>0</asrwt>
<pdfrwt beam="1">  1       21 0.65728462E-05 0.49676702E+01</pdfrwt>
<pdfrwt beam="2">  1       21 0.10232629E+00 0.49676702E+01</pdfrwt>
<totfact> 0.15399268E+09</totfact>
</mgrwt>
</event>
<event>
 4    1  0.4084348E+006  0.5246119E+01  0.7546771E-02  0.2525261E+00
         21   -1    0    0  501  502  0.00000000000E+00  0.00000000000E+00  0.29588002578E+03  0.29588002578E+03  0.00000000000E+00 0. -1.
         21   -1    0    0  502  503 -0.00000000000E+00 -0.00000000000E+00 -0.15475005979E+00  0.15475005979E+00  0.00000000000E+00 0. -1.
          5    1    1    2  501    0 -0.66917114385E+00  0.22324818405E+01  0.24135098871E+03  0.24140799804E+03  0.47000000000E+01 0. -1.
         -5    1    1    2    0  503  0.66917114385E+00 -0.22324818405E+01  0.54374287005E+02  0.54626777797E+02  0.47000000000E+01 0. -1.
<mgrwt>
<rscale>  2 0.52461191E+01</rscale>
<asrwt>0</asrwt>
<pdfrwt beam="1">  1       21 0.45519551E-01 0.52461191E+01</pdfrwt>
<pdfrwt beam="2">  1       21 0.23807938E-04 0.52461191E+01</pdfrwt>
<totfact> 0.13304475E+09</totfact>
</mgrwt>
</event>
<event>
 4    1  0.4084348E+006  0.4766827E+01  0.7546771E-02  0.2610259E+00
         21   -1    0    0  503  502  0.00000000000E+00  0.00000000000E+00  0.10555937186E+00  0.10555937186E+00  0.00000000000E+00 0.  1.
         21   -1    0    0  501  503 -0.00000000000E+00 -0.00000000000E+00 -0.25366810835E+03  0.25366810835E+03  0.00000000000E+00 0.  1.
          5    1    1    2  501    0  0.67290272007E-01  0.79253483825E+00 -0.77407209547E+02  0.77553844065E+02  0.47000000000E+01 0.  1.
         -5    1    1    2    0  502 -0.67290272007E-01 -0.79253483825E+00 -0.17615533943E+03  0.17621982366E+03  0.47000000000E+01 0.  1.
<mgrwt>
<rscale>  2 0.47668270E+01</rscale>
<asrwt>0</asrwt>
<pdfrwt beam="1">  1       21 0.16239957E-04 0.47668270E+01</pdfrwt>
<pdfrwt beam="2">  1       21 0.39025734E-01 0.47668270E+01</pdfrwt>
<totfact> 0.26478392E+09</totfact>
</mgrwt>
</event>
<event>
 4    1  0.4084348E+006  0.4817870E+01  0.7546771E-02  0.2600514E+00
         21   -1    0    0  501  502  0.00000000000E+00  0.00000000000E+00  0.21392214575E+01  0.21392214575E+01  0.00000000000E+00 0. -1.
         21   -1    0    0  502  503 -0.00000000000E+00 -0.00000000000E+00 -0.12951761143E+02  0.12951761143E+02  0.00000000000E+00 0. -1.
          5    1    1    2  501    0  0.61312230355E+00  0.86368271093E+00 -0.23671255548E+01  0.53679744948E+01  0.47000000000E+01 0. -1.
         -5    1    1    2    0  503 -0.61312230355E+00 -0.86368271093E+00 -0.84454141303E+01  0.97230081054E+01  0.47000000000E+01 0. -1.
<mgrwt>
<rscale>  2 0.48178695E+01</rscale>
<asrwt>0</asrwt>
<pdfrwt beam="1">  1       21 0.32911099E-03 0.48178695E+01</pdfrwt>
<pdfrwt beam="2">  1       21 0.19925786E-02 0.48178695E+01</pdfrwt>
<totfact> 0.44710757E+09</totfact>
</mgrwt>
</event>
<event>
 4    1  0.4084348E+006  0.5030330E+01  0.7546771E-02  0.2561801E+00
         21   -1    0    0  503  502  0.00000000000E+00  0.00000000000E+00  0.14236844281E+04  0.14236844281E+04  0.00000000000E+00 0.  1.
         21   -1    0    0  501  503 -0.00000000000E+00 -0.00000000000E+00 -0.33789668693E-01  0.33789668693E-01  0.00000000000E+00 0.  1.
          5    1    1    2  501    0 -0.38554221828E-01  0.17924106508E+01  0.22173299550E+03  0.22179004828E+03  0.47000000000E+01 0.  1.
         -5    1    1    2    0  502  0.38554221828E-01 -0.17924106508E+01  0.12019176429E+04  0.12019281695E+04  0.47000000000E+01 0.  1.
<mgrwt>
<rscale>  2 0.50303302E+01</rscale>
<asrwt>0</asrwt>
<pdfrwt beam="1">  1       21 0.21898034E+00 0.50303302E+01</pdfrwt>
<pdfrwt beam="2">  1       21 0.51995508E-05 0.50303302E+01</pdfrwt>
<totfact> 0.42681589E+08</totfact>
</mgrwt>
</event>
<event>
 4    1  0.4084348E+006  0.5145969E+01  0.7546771E-02  0.2541893E+00
         21   -1    0    0  503  502  0.00000000000E+00  0.00000000000E+00  0.71820670813E+00  0.71820670813E+00  0.00000000000E+00 0. -1.
         21   -1    0    0  501  503 -0.00000000000E+00 -0.00000000000E+00 -0.40225638337E+02  0.40225638337E+02  0.00000000000E+00 0. -1.
          5    1    1    2  501    0 -0.19399028456E+01 -0.79231901873E+00 -0.13841767263E+02  0.14767380047E+02  0.47000000000E+01 0. -1.
         -5    1    1    2    0  502  0.19399028456E+01  0.79231901873E+00 -0.25665664365E+02  0.26176464998E+02  0.47000000000E+01 0. -1.
<mgrwt>
<rscale>  2 0.51459686E+01</rscale>
<asrwt>0</asrwt>
<pdfrwt beam="1">  1       21 0.11049331E-03 0.51459686E+01</pdfrwt>
<pdfrwt beam="2">  1       21 0.61885615E-02 0.51459686E+01</pdfrwt>
<totfact> 0.40459279E+09</totfact>
</mgrwt>
</event>
<event>
 4    1  0.4084348E+006  0.4827447E+01  0.7546771E-02  0.2598706E+00
         21   -1    0    0  501  502  0.00000000000E+00  0.00000000000E+00  0.30874084782E-01  0.30874084782E-01  0.00000000000E+00 0.  1.
         21   -1    0    0  502  503 -0.00000000000E+00 -0.00000000000E+00 -0.83015722237E+03  0.83015722237E+03  0.00000000000E+00 0.  1.
          5    1    1    2  501    0  0.10303084491E+00  0.10971019381E+01 -0.29001333313E+03  0.29005350824E+03  0.47000000000E+01 0.  1.
         -5    1    1    2    0  503 -0.10303084491E+00 -0.10971019381E+01 -0.54011301516E+03  0.54013458822E+03  0.47000000000E+01 0.  1.
<mgrwt>
<rscale>  2 0.48274474E+01</rscale>
<asrwt>0</asrwt>
<pdfrwt beam="1">  1       21 0.47492637E-05 0.48274474E+01</pdfrwt>
<pdfrwt beam="2">  1       21 0.12773251E+00 0.48274474E+01</pdfrwt>
<totfact> 0.14833764E+09</totfact>
</mgrwt>
</event>
<event>
 4    1  0.4084348E+006  0.5090542E+01  0.7546771E-02  0.2551338E+00
         21   -1    0    0  501  502  0.00000000000E+00  0.00000000000E+00  0.98737315778E+01  0.98737315778E+01  0.00000000000E+00 0. -1.
         21   -1    0    0  502  503 -0.00000000000E+00 -0.00000000000E+00 -0.45703535633E+01  0.45703535633E+01  0.00000000000E+00 0.  1.
          5    1    1    2  501    0  0.13410723682E+01  0.14230762382E+01  0.73640665753E+01  0.89522677351E+01  0.47000000000E+01 0. -1.
         -5    1    1    2    0  503 -0.13410723682E+01 -0.14230762382E+01 -0.20606885607E+01  0.54918174060E+01  0.47000000000E+01 0.  1.
<mgrwt>
<rscale>  2 0.50905423E+01</rscale>
<asrwt>0</asrwt>
<pdfrwt beam="1">  1       21 0.15190356E-02 0.50905423E+01</pdfrwt>
<pdfrwt beam="2">  1       21 0.70313132E-03 0.50905423E+01</pdfrwt>
<totfact> 0.24523412E+09</totfact>
</mgrwt>
</event>
<event>
 4    1  0.4084348E+006  0.5706260E+01  0.7546771E-02  0.2455298E+00
         21   -1    0    0  503  502  0.00000000000E+00  0.00000000000E+00  0.16236604922E+01  0.16236604922E+01  0.00000000000E+00 0.  1.
         21   -1    0    0  501  503 -0.00000000000E+00 -0.00000000000E+00 -0.32173667402E+02  0.32173667402E+02  0.00000000000E+00 0.  1.
          5    1    1    2  501    0  0.29225373900E+01 -0.13893077822E+01 -0.25646508215E+02  0.26273651907E+02  0.47000000000E+01 0.  1.
         -5    1    1    2    0  502 -0.29225373900E+01  0.13893077822E+01 -0.49034986948E+01  0.75236759872E+01  0.47000000000E+01 0.  1.
<mgrwt>
<rscale>  2 0.57062598E+01</rscale>
<asrwt>0</asrwt>
<pdfrwt beam="1">  1       21 0.24979392E-03 0.57062598E+01</pdfrwt>
<pdfrwt beam="2">  1       21 0.49497949E-02 0.57062598E+01</pdfrwt>
<totfact> 0.20666319E+09</totfact>
</mgrwt>
</event>
<event>
 4    1  0.4084348E+006  0.5514972E+01  0.7546771E-02  0.2483178E+00
         21   -1    0    0  503  502  0.00000000000E+00  0.00000000000E+00  0.54451380211E+02  0.54451380211E+02  0.00000000000E+00 0.  1.
         21   -1    0    0  501  503 -0.00000000000E+00 -0.00000000000E+00 -0.13610010147E+01  0.13610010147E+01  0.00000000000E+00 0.  1.
          5    1    1    2  501    0  0.12018628290E+01  0.26230604879E+01  0.51175111941E+01  0.75235524458E+01  0.47000000000E+01 0.  1.
         -5    1    1    2    0  502 -0.12018628290E+01 -0.26230604879E+01  0.47972868002E+02  0.48288828780E+02  0.47000000000E+01 0.  1.
<mgrwt>
<rscale>  2 0.55149724E+01</rscale>
<asrwt>0</asrwt>
<pdfrwt beam="1">  1       21 0.83771338E-02 0.55149724E+01</pdfrwt>
<pdfrwt beam="2">  1       21 0.20938481E-03 0.55149724E+01</pdfrwt>
<totfact> 0.11634685E+09</totfact>
</mgrwt>
</event>
<event>
 4    1  0.4084348E+006  0.6483358E+01  0.7546771E-02  0.2356461E+00
         21   -1    0    0  501  502  0.00000000000E+00  0.00000000000E+00  0.18288526489E+02  0.18288526489E+02  0.00000000000E+00 0. -1.
         21   -1    0    0  502  503 -0.00000000000E+00 -0.00000000000E+00 -0.27321297300E+01  0.27321297300E+01  0.00000000000E+00 0. -1.
          5    1    1    2  501    0 -0.28957994749E+01 -0.33997467558E+01  0.35903917728E+01  0.74111298521E+01  0.47000000000E+01 0. -1.
         -5    1    1    2    0  503  0.28957994749E+01  0.33997467558E+01  0.11966004987E+02  0.13609526367E+02  0.47000000000E+01 0. -1.
<mgrwt>
<rscale>  2 0.64833581E+01</rscale>
<asrwt>0</asrwt>
<pdfrwt beam="1">  1       21 0.28136194E-02 0.64833581E+01</pdfrwt>
<pdfrwt beam="2">  1       21 0.42032766E-03 0.64833581E+01</pdfrwt>
<totfact> 0.25792160E+09</totfact>
</mgrwt>
</event>
<event>
 4    1  0.4084348E+006  0.5209164E+01  0.7546771E-02  0.2531334E+00
         21   -1    0    0  503  502  0.00000000000E+00  0.00000000000E+00  0.22242874274E+01  0.22242874274E+01  0.00000000000E+00 0.  1.
         21   -1    0    0  501  503 -0.00000000000E+00 -0.00000000000E+00 -0.28306395927E+02  0.28306395927E+02  0.00000000000E+00 0.  1.
          5    1    1    2  501    0  0.14314658826E+01 -0.17309818396E+01 -0.24556187441E+02  0.25102624053E+02  0.47000000000E+01 0.  1.
         -5    1    1    2    0  502 -0.14314658826E+01  0.17309818396E+01 -0.15259210585E+01  0.54280593013E+01  0.47000000000E+01 0.  1.
<mgrwt>
<rscale>  2 0.52091643E+01</rscale>
<asrwt>0</asrwt>
<pdfrwt beam="1">  1       21 0.34219808E-03 0.52091643E+01</pdfrwt>
<pdfrwt beam="2">  1       21 0.43548300E-02 0.52091643E+01</pdfrwt>
<totfact> 0.14941695E+09</totfact>
</mgrwt>
</event>
<event>
 4    1  0.4084348E+006  0.5595325E+01  0.7546771E-02  0.2471270E+00
         21   -1    0    0  503  502  0.00000000000E+00  0.00000000000E+00  0.23001653323E+01  0.23001653323E+01  0.00000000000E+00 0.  1.
         21   -1    0    0  501  503 -0.00000000000E+00 -0.00000000000E+00 -0.15612804918E+02  0.15612804918E+02  0.00000000000E+00 0.  1.
          5    1    1    2  501    0  0.30268057972E+01 -0.23687684247E+00 -0.98633471106E+01  0.11339897715E+02  0.47000000000E+01 0.  1.
         -5    1    1    2    0  502 -0.30268057972E+01  0.23687684247E+00 -0.34492924755E+01  0.65730725353E+01  0.47000000000E+01 0.  1.
<mgrwt>
<rscale>  2 0.55953252E+01</rscale>
<asrwt>0</asrwt>
<pdfrwt beam="1">  1       21 0.35387159E-03 0.55953252E+01</pdfrwt>
<pdfrwt beam="2">  1       21 0.24019700E-02 0.55953252E+01</pdfrwt>
<totfact> 0.36111742E+09</totfact>
</mgrwt>
</event>
<event>
 4    1  0.4084348E+006  0.4896182E+01  0.7546771E-02  0.2585907E+00
         21   -1    0    0  503  502  0.00000000000E+00  0.00000000000E+00  0.19335118903E+03  0.19335118903E+03  0.00000000000E+00 0.  1.
         21   -1    0    0  501  503 -0.00000000000E+00 -0.00000000000E+00 -0.12556664904E+00  0.12556664904E+00  0.00000000000E+00 0.  1.
          5    1    1    2  501    0 -0.13007232814E+01  0.43670643680E+00  0.85754687877E+02  0.85894348396E+02  0.47000000000E+01 0.  1.
         -5    1    1    2    0  502  0.13007232814E+01 -0.43670643680E+00  0.10747093451E+03  0.10758240729E+03  0.47000000000E+01 0.  1.
<mgrwt>
<rscale>  2 0.48961815E+01</rscale>
<asrwt>0</asrwt>
<pdfrwt beam="1">  1       21 0.29746099E-01 0.48961815E+01</pdfrwt>
<pdfrwt beam="2">  1       21 0.19318101E-04 0.48961815E+01</pdfrwt>
<totfact> 0.34062203E+09</totfact>
</mgrwt>
</event>
<event>
 4    1  0.4084348E+006  0.5181715E+01  0.7546771E-02  0.2535893E+00
         21   -1    0    0  501  502  0.00000000000E+00  0.00000000000E+00  0.20740744626E+01  0.20740744626E+01  0.00000000000E+00 0. -1.
         21   -1    0    0  502  503 -0.00000000000E+00 -0.00000000000E+00 -0.27708379841E+02  0.27708379841E+02  0.00000000000E+00 0. -1.
          5    1    1    2  501    0 -0.98347126802E+00  0.19475502792E+01 -0.19476722635E+01  0.55356657297E+01  0.47000000000E+01 0. -1.
         -5    1    1    2    0  503  0.98347126802E+00 -0.19475502792E+01 -0.23686633115E+02  0.24246788574E+02  0.47000000000E+01 0. -1.
<mgrwt>
<rscale>  2 0.51817148E+01</rscale>
<asrwt>0</asrwt>
<pdfrwt beam="1">  1       21 0.31908834E-03 0.51817148E+01</pdfrwt>
<pdfrwt beam="2">  1       21 0.42628282E-02 0.51817148E+01</pdfrwt>
<totfact> 0.16871709E+09</totfact>
</mgrwt>
</event>
<event>
 4    1  0.4084348E+006  0.1386545E+02  0.7546771E-02  0.1904802E+00
         21   -1    0    0  503  502  0.00000000000E+00  0.00000000000E+00  0.29596857913E+02  0.29596857913E+02  0.00000000000E+00 0. -1.
         21   -1    0    0  501  503 -0.00000000000E+00 -0.00000000000E+00 -0.11933427578E+02  0.11933427578E+02  0.00000000000E+00 0.  1.
          5    1    1    2  501    0 -0.54443225315E+01  0.11854117378E+02  0.22848975925E+02  0.26726886229E+02  0.47000000000E+01 0. -1.
         -5    1    1    2    0  502  0.54443225315E+01 -0.11854117378E+02 -0.51855455902E+01  0.14803399262E+02  0.47000000000E+01 0.  1.
<mgrwt>
<rscale>  2 0.13865452E+02</rscale>
<asrwt>0</asrwt>
<pdfrwt beam="1">  1       21 0.45533627E-02 0.13865452E+02</pdfrwt>
<pdfrwt beam="2">  1       21 0.18359119E-02 0.13865452E+02</pdfrwt>
<totfact> 0.23547737E+08</totfact>
</mgrwt>
</event>
<event>
 4    1  0.4084348E+006  0.5034467E+01  0.7546771E-02  0.2561075E+00
         21   -1    0    0  503  502  0.00000000000E+00  0.00000000000E+00  0.20496197380E-01  0.20496197380E-01  0.00000000000E+00 0. -1.
         21   -1    0    0  501  503 -0.00000000000E+00 -0.00000000000E+00 -0.12526615039E+04  0.12526615039E+04  0.00000000000E+00 0. -1.
          5    1    1    2  501    0  0.31222122840E-02 -0.18043975902E+01 -0.55542581397E+03  0.55544863011E+03  0.47000000000E+01 0. -1.
         -5    1    1    2    0  502 -0.31222122840E-02  0.18043975902E+01 -0.69721519376E+03  0.69723337002E+03  0.47000000000E+01 0. -1.
<mgrwt>
<rscale>  2 0.50344672E+01</rscale>
<asrwt>0</asrwt>
<pdfrwt beam="1">  1       21 0.31531431E-05 0.50344672E+01</pdfrwt>
<pdfrwt beam="2">  1       21 0.19272437E+00 0.50344672E+01</pdfrwt>
<totfact> 0.11186177E+09</totfact>
</mgrwt>
</event>
<event>
 4    1  0.4084348E+006  0.5687265E+01  0.7546771E-02  0.2457995E+00
         21   -1    0    0  501  502  0.00000000000E+00  0.00000000000E+00  0.20062701003E+03  0.20062701003E+03  0.00000000000E+00 0.  1.
         21   -1    0    0  502  503 -0.00000000000E+00 -0.00000000000E+00 -0.28790376778E+00  0.28790376778E+00  0.00000000000E+00 0.  1.
          5    1    1    2  501    0 -0.24303948152E+01  0.20852248170E+01  0.16680723623E+03  0.16690416124E+03  0.47000000000E+01 0.  1.
         -5    1    1    2    0  503  0.24303948152E+01 -0.20852248170E+01  0.33531870034E+02  0.34010752557E+02  0.47000000000E+01 0.  1.
<mgrwt>
<rscale>  2 0.56872649E+01</rscale>
<asrwt>0</asrwt>
<pdfrwt beam="1">  1       21 0.30865582E-01 0.56872649E+01</pdfrwt>
<pdfrwt beam="2">  1       21 0.44293048E-04 0.56872649E+01</pdfrwt>
<totfact> 0.12132028E+09</totfact>
</mgrwt>
</event>
<event>
 4    1  0.4084348E+006  0.5112787E+01  0.7546771E-02  0.2547526E+00
         21   -1    0    0  501  502  0.00000000000E+00  0.00000000000E+00  0.39643327022E+02  0.39643327022E+02  0.00000000000E+00 0.  1.
         21   -1    0    0  502  503 -0.00000000000E+00 -0.00000000000E+00 -0.97077365084E+00  0.97077365084E+00  0.00000000000E+00 0.  1.
          5    1    1    2  501    0  0.14116286195E+01  0.14345362669E+01  0.30837198682E+02  0.31258173527E+02  0.47000000000E+01 0.  1.
         -5    1    1    2    0  503 -0.14116286195E+01 -0.14345362669E+01  0.78353546885E+01  0.93559271457E+01  0.47000000000E+01 0.  1.
<mgrwt>
<rscale>  2 0.51127869E+01</rscale>
<asrwt>0</asrwt>
<pdfrwt beam="1">  1       21 0.60989721E-02 0.51127869E+01</pdfrwt>
<pdfrwt beam="2">  1       21 0.14934982E-03 0.51127869E+01</pdfrwt>
<totfact> 0.27460896E+09</totfact>
</mgrwt>
</event>
<event>
 4    1  0.4084348E+006  0.5793069E+01  0.7546771E-02  0.2443160E+00
         21   -1    0    0  501  502  0.00000000000E+00  0.00000000000E+00  0.59499955518E+02  0.59499955518E+02  0.00000000000E+00 0. -1.
         21   -1    0    0  502  503 -0.00000000000E+00 -0.00000000000E+00 -0.65605457230E+00  0.65605457230E+00  0.00000000000E+00 0. -1.
          5    1    1    2  501    0  0.27246921700E+01 -0.20113932469E+01  0.40687056890E+02  0.41097399535E+02  0.47000000000E+01 0. -1.
         -5    1    1    2    0  503 -0.27246921700E+01  0.20113932469E+01  0.18156844056E+02  0.19058610555E+02  0.47000000000E+01 0. -1.
<mgrwt>
<rscale>  2 0.57930692E+01</rscale>
<asrwt>0</asrwt>
<pdfrwt beam="1">  1       21 0.91538351E-02 0.57930692E+01</pdfrwt>
<pdfrwt beam="2">  1       21 0.10093152E-03 0.57930692E+01</pdfrwt>
<totfact> 0.28366749E+09</totfact>
</mgrwt>
</event>
<event>
 4    1  0.4084348E+006  0.6867822E+01  0.7546771E-02  0.2314529E+00
         21   -1    0    0  503  502  0.00000000000E+00  0.00000000000E+00  0.21485830253E+01  0.21485830253E+01  0.00000000000E+00 0.  1.
         21   -1    0    0  501  503 -0.00000000000E+00 -0.00000000000E+00 -0.30978547941E+02  0.30978547941E+02  0.00000000000E+00 0. -1.
          5    1    1    2  501    0  0.47984769744E+01 -0.14323400367E+01 -0.23355646225E+02  0.24344469389E+02  0.47000000000E+01 0. -1.
         -5    1    1    2    0  502 -0.47984769744E+01  0.14323400367E+01 -0.54743186914E+01  0.87826615778E+01  0.47000000000E+01 0.  1.
<mgrwt>
<rscale>  2 0.68678220E+01</rscale>
<asrwt>0</asrwt>
<pdfrwt beam="1">  1       21 0.33055123E-03 0.68678220E+01</pdfrwt>
<pdfrwt beam="2">  1       21 0.47659305E-02 0.68678220E+01</pdfrwt>
<totfact> 0.17318171E+09</totfact>
</mgrwt>
</event>
<event>
 4    1  0.4084348E+006  0.4851898E+01  0.7546771E-02  0.2594117E+00
         21   -1    0    0  503  502  0.00000000000E+00  0.00000000000E+00  0.88180849980E+03  0.88180849980E+03  0.00000000000E+00 0.  1.
         21   -1    0    0  501  503 -0.00000000000E+00 -0.00000000000E+00 -0.13644298186E+00  0.13644298186E+00  0.00000000000E+00 0.  1.
          5    1    1    2  501    0  0.59566700201E+00  0.10469465657E+01  0.45349386646E+02  0.45608198664E+02  0.47000000000E+01 0.  1.
         -5    1    1    2    0  502 -0.59566700201E+00 -0.10469465657E+01  0.83632267017E+03  0.83633674412E+03  0.47000000000E+01 0.  1.
<mgrwt>
<rscale>  2 0.48518982E+01</rscale>
<asrwt>0</asrwt>
<pdfrwt beam="1">  1       21 0.13565828E+00 0.48518982E+01</pdfrwt>
<pdfrwt beam="2">  1       21 0.20991934E-04 0.48518982E+01</pdfrwt>
<totfact> 0.18210352E+08</totfact>
</mgrwt>
</event>
<event>
 4    1  0.4084348E+006  0.5086207E+01  0.7546771E-02  0.2552084E+00
         21   -1    0    0  503  502  0.00000000000E+00  0.00000000000E+00  0.73409515662E-01  0.73409515662E-01  0.00000000000E+00 0. -1.
         21   -1    0    0  501  503 -0.00000000000E+00 -0.00000000000E+00 -0.42197239213E+03  0.42197239213E+03  0.00000000000E+00 0. -1.
          5    1    1    2  501    0 -0.19336394654E+01  0.20135370711E+00 -0.29663480597E+03  0.29667840774E+03  0.47000000000E+01 0. -1.
         -5    1    1    2    0  502  0.19336394654E+01 -0.20135370711E+00 -0.12526417664E+03  0.12536739390E+03  0.47000000000E+01 0. -1.
<mgrwt>
<rscale>  2 0.50862073E+01</rscale>
<asrwt>0</asrwt>
<pdfrwt beam="1">  1       21 0.11293378E-04 0.50862073E+01</pdfrwt>
<pdfrwt beam="2">  1       21 0.64921092E-01 0.50862073E+01</pdfrwt>
<totfact> 0.18356370E+09</totfact>
</mgrwt>
</event>
<event>
 4    1  0.4084348E+006  0.5011895E+01  0.7546771E-02  0.2565048E+00
         21   -1    0    0  501  502  0.00000000000E+00  0.00000000000E+00  0.75190276601E+02  0.75190276601E+02  0.00000000000E+00 0.  1.
         21   -1    0    0  502  503 -0.00000000000E+00 -0.00000000000E+00 -0.55845141158E+00  0.55845141158E+00  0.00000000000E+00 0.  1.
          5    1    1    2  501    0  0.95533789012E+00  0.14547938284E+01  0.61323166635E+02  0.61527634943E+02  0.47000000000E+01 0.  1.
         -5    1    1    2    0  503 -0.95533789012E+00 -0.14547938284E+01  0.13308658554E+02  0.14221093069E+02  0.47000000000E+01 0.  1.
<mgrwt>
<rscale>  2 0.50118954E+01</rscale>
<asrwt>0</asrwt>
<pdfrwt beam="1">  1       21 0.11567727E-01 0.50118954E+01</pdfrwt>
<pdfrwt beam="2">  1       21 0.85915661E-04 0.50118954E+01</pdfrwt>
<totfact> 0.21536683E+09</totfact>
</mgrwt>
</event>
<event>
 4    1  0.4084348E+006  0.5414286E+01  0.7546771E-02  0.2498521E+00
         21   -1    0    0  501  502  0.00000000000E+00  0.00000000000E+00  0.17609187290E+03  0.17609187290E+03  0.00000000000E+00 0. -1.
         21   -1    0    0  502  503 -0.00000000000E+00 -0.00000000000E+00 -0.35480215509E+00  0.35480215509E+00  0.00000000000E+00 0.  1.
          5    1    1    2  501    0  0.30768923866E+00  0.26701733329E+01  0.15214462183E+03  0.15224092896E+03  0.47000000000E+01 0. -1.
         -5    1    1    2    0  503 -0.30768923866E+00 -0.26701733329E+01  0.23592448912E+02  0.24205746093E+02  0.47000000000E+01 0.  1.
<mgrwt>
<rscale>  2 0.54142865E+01</rscale>
<asrwt>0</asrwt>
<pdfrwt beam="1">  1       21 0.27090988E-01 0.54142865E+01</pdfrwt>
<pdfrwt beam="2">  1       21 0.54585087E-04 0.54142865E+01</pdfrwt>
<totfact> 0.10970310E+09</totfact>
</mgrwt>
</event>
<event>
 4    1  0.4084348E+006  0.6205193E+01  0.7546771E-02  0.2389459E+00
         21   -1    0    0  503  502  0.00000000000E+00  0.00000000000E+00  0.51878049215E+01  0.51878049215E+01  0.00000000000E+00 0. -1.
         21   -1    0    0  501  503 -0.00000000000E+00 -0.00000000000E+00 -0.83711099652E+01  0.83711099652E+01  0.00000000000E+00 0.  1.
          5    1    1    2  501    0  0.33317574570E+01  0.23051707504E+01 -0.38742967456E+01  0.73153670594E+01  0.47000000000E+01 0.  1.
         -5    1    1    2    0  502 -0.33317574570E+01 -0.23051707504E+01  0.69099170176E+00  0.62435478273E+01  0.47000000000E+01 0.  1.
<mgrwt>
<rscale>  2 0.62051930E+01</rscale>
<asrwt>0</asrwt>
<pdfrwt beam="1">  1       21 0.79812384E-03 0.62051930E+01</pdfrwt>
<pdfrwt beam="2">  1       21 0.12878631E-02 0.62051930E+01</pdfrwt>
<totfact> 0.31217232E+09</totfact>
</mgrwt>
</event>
<event>
 4    1  0.4084348E+006  0.4935487E+01  0.7546771E-02  0.2578727E+00
         21   -1    0    0  501  502  0.00000000000E+00  0.00000000000E+00  0.36883198962E+00  0.36883198962E+00  0.00000000000E+00 0. -1.
         21   -1    0    0  502  503 -0.00000000000E+00 -0.00000000000E+00 -0.19513102595E+03  0.19513102595E+03  0.00000000000E+00 0. -1.
          5    1    1    2  501    0  0.11809929773E+01 -0.93503281320E+00 -0.17875979822E+02  0.18544802112E+02  0.47000000000E+01 0. -1.
         -5    1    1    2    0  503 -0.11809929773E+01  0.93503281320E+00 -0.17688621413E+03  0.17695505582E+03  0.47000000000E+01 0. -1.
<mgrwt>
<rscale>  2 0.49354869E+01</rscale>
<asrwt>0</asrwt>
<pdfrwt beam="1">  1       21 0.56743206E-04 0.49354869E+01</pdfrwt>
<pdfrwt beam="2">  1       21 0.30020252E-01 0.49354869E+01</pdfrwt>
<totfact> 0.81201498E+08</totfact>
</mgrwt>
</event>
<event>
 4    1  0.4084348E+006  0.7681906E+01  0.7546771E-02  0.2237285E+00
         21   -1    0    0  503  502  0.00000000000E+00  0.00000000000E+00  0.61191862334E-01  0.61191862334E-01  0.00000000000E+00 0. -1.
         21   -1    0    0  501  503 -0.00000000000E+00 -0.00000000000E+00 -0.11279268687E+04  0.11279268687E+04  0.00000000000E+00 0. -1.
          5    1    1    2  501    0 -0.53851259127E+01  0.28146232187E+01 -0.77869932162E+03  0.77873721189E+03  0.47000000000E+01 0. -1.
         -5    1    1    2    0  502  0.53851259127E+01 -0.28146232187E+01 -0.34916635522E+03  0.34925084867E+03  0.47000000000E+01 0. -1.
<mgrwt>
<rscale>  2 0.76819063E+01</rscale>
<asrwt>0</asrwt>
<pdfrwt beam="1">  1       21 0.94146203E-05 0.76819063E+01</pdfrwt>
<pdfrwt beam="2">  1       21 0.17351822E+00 0.76819063E+01</pdfrwt>
<totfact> 0.41049588E+08</totfact>
</mgrwt>
</event>
<event>
 4    1  0.4084348E+006  0.4733530E+01  0.7546771E-02  0.2616713E+00
         21   -1    0    0  501  502  0.00000000000E+00  0.00000000000E+00  0.15344090521E+02  0.15344090521E+02  0.00000000000E+00 0.  1.
         21   -1    0    0  502  503 -0.00000000000E+00 -0.00000000000E+00 -0.40309377991E+01  0.40309377991E+01  0.00000000000E+00 0.  1.
          5    1    1    2  501    0  0.45803159328E+00 -0.32637082263E+00  0.13392878185E+02  0.14204770217E+02  0.47000000000E+01 0.  1.
         -5    1    1    2    0  503 -0.45803159328E+00  0.32637082263E+00 -0.20797254624E+01  0.51702581032E+01  0.47000000000E+01 0.  1.
<mgrwt>
<rscale>  2 0.47335305E+01</rscale>
<asrwt>0</asrwt>
<pdfrwt beam="1">  1       21 0.23606293E-02 0.47335305E+01</pdfrwt>
<pdfrwt beam="2">  1       21 0.62014428E-03 0.47335305E+01</pdfrwt>
<totfact> 0.14529723E+09</totfact>
</mgrwt>
</event>
<event>
 4    1  0.4084348E+006  0.5261576E+01  0.7546771E-02  0.2522742E+00
         21   -1    0    0  501  502  0.00000000000E+00  0.00000000000E+00  0.21695827048E+02  0.21695827048E+02  0.00000000000E+00 0.  1.
         21   -1    0    0  502  503 -0.00000000000E+00 -0.00000000000E+00 -0.12923449370E+01  0.12923449370E+01  0.00000000000E+00 0.  1.
          5    1    1    2  501    0  0.15032058703E+01 -0.18260758798E+01  0.11493821561E+02  0.12640890597E+02  0.47000000000E+01 0.  1.
         -5    1    1    2    0  503 -0.15032058703E+01  0.18260758798E+01  0.89096605502E+01  0.10347281388E+02  0.47000000000E+01 0.  1.
<mgrwt>
<rscale>  2 0.52615759E+01</rscale>
<asrwt>0</asrwt>
<pdfrwt beam="1">  1       21 0.33378193E-02 0.52615759E+01</pdfrwt>
<pdfrwt beam="2">  1       21 0.19882231E-03 0.52615759E+01</pdfrwt>
<totfact> 0.46399541E+09</totfact>
</mgrwt>
</event>
<event>
 4    1  0.4084348E+006  0.5336793E+01  0.7546771E-02  0.2510664E+00
         21   -1    0    0  501  502  0.00000000000E+00  0.00000000000E+00  0.35775549724E+04  0.35775549724E+04  0.00000000000E+00 0.  1.
         21   -1    0    0  502  503 -0.00000000000E+00 -0.00000000000E+00 -0.20450385231E-01  0.20450385231E-01  0.00000000000E+00 0.  1.
          5    1    1    2  501    0 -0.92292617984E+00  0.23536288553E+01  0.31866682668E+04  0.31866727356E+04  0.47000000000E+01 0.  1.
         -5    1    1    2    0  503  0.92292617984E+00 -0.23536288553E+01  0.39086625523E+03  0.39090268718E+03  0.47000000000E+01 0.  1.
<mgrwt>
<rscale>  2 0.53367932E+01</rscale>
<asrwt>0</asrwt>
<pdfrwt beam="1">  1       21 0.54989226E+00 0.53367932E+01</pdfrwt>
<pdfrwt beam="2">  1       21 0.31490785E-05 0.53367932E+01</pdfrwt>
<totfact> 0.25376266E+07</totfact>
</mgrwt>
</event>
<event>
 4    1  0.4084348E+006  0.8454130E+01  0.7546771E-02  0.2175365E+00
         21   -1    0    0  503  502  0.00000000000E+00  0.00000000000E+00  0.18727894349E+03  0.18727894349E+03  0.00000000000E+00 0. -1.
         21   -1    0    0  501  503 -0.00000000000E+00 -0.00000000000E+00 -0.44241319444E+00  0.44241319444E+00  0.00000000000E+00 0.  1.
          5    1    1    2  501    0 -0.67803580679E+01 -0.18463641621E+01  0.58629314687E+02  0.59235705928E+02  0.47000000000E+01 0.  1.
         -5    1    1    2    0  502  0.67803580679E+01  0.18463641621E+01  0.12820721561E+03  0.12848565076E+03  0.47000000000E+01 0. -1.
<mgrwt>
<rscale>  2 0.84541301E+01</rscale>
<asrwt>0</asrwt>
<pdfrwt beam="1">  1       21 0.28812082E-01 0.84541301E+01</pdfrwt>
<pdfrwt beam="2">  1       21 0.68063718E-04 0.84541301E+01</pdfrwt>
<totfact> 0.10063517E+09</totfact>
</mgrwt>
</event>
<event>
 4    1  0.4084348E+006  0.5966231E+01  0.7546771E-02  0.2419839E+00
         21   -1    0    0  503  502  0.00000000000E+00  0.00000000000E+00  0.13395785285E+03  0.13395785285E+03  0.00000000000E+00 0. -1.
         21   -1    0    0  501  503 -0.00000000000E+00 -0.00000000000E+00 -0.47292126458E+00  0.47292126458E+00  0.00000000000E+00 0. -1.
          5    1    1    2  501    0  0.26727031670E+01 -0.25224134707E+01  0.22252144221E+02  0.23038095286E+02  0.47000000000E+01 0. -1.
         -5    1    1    2    0  502 -0.26727031670E+01  0.25224134707E+01  0.11123278736E+03  0.11139267882E+03  0.47000000000E+01 0. -1.
<mgrwt>
<rscale>  2 0.59662310E+01</rscale>
<asrwt>0</asrwt>
<pdfrwt beam="1">  1       21 0.20608870E-01 0.59662310E+01</pdfrwt>
<pdfrwt beam="2">  1       21 0.72757224E-04 0.59662310E+01</pdfrwt>
<totfact> 0.12639035E+09</totfact>
</mgrwt>
</event>
<event>
 4    1  0.4084348E+006  0.6776216E+01  0.7546771E-02  0.2324164E+00
         21   -1    0    0  501  502  0.00000000000E+00  0.00000000000E+00  0.31780483106E+00  0.31780483106E+00  0.00000000000E+00 0.  1.
         21   -1    0    0  502  503 -0.00000000000E+00 -0.00000000000E+00 -0.33308388289E+03  0.33308388289E+03  0.00000000000E+00 0. -1.
          5    1    1    2  501    0  0.46792103978E+01  0.13899969791E+01 -0.40943654569E+02  0.41500601816E+02  0.47000000000E+01 0.  1.
         -5    1    1    2    0  503 -0.46792103978E+01 -0.13899969791E+01 -0.29182242349E+03  0.29190108590E+03  0.47000000000E+01 0. -1.
<mgrwt>
<rscale>  2 0.67762159E+01</rscale>
<asrwt>0</asrwt>
<pdfrwt beam="1">  1       21 0.48892877E-04 0.67762159E+01</pdfrwt>
<pdfrwt beam="2">  1       21 0.51243856E-01 0.67762159E+01</pdfrwt>
<totfact> 0.49621177E+08</totfact>
</mgrwt>
</event>
<event>
 4    1  0.4084348E+006  0.1111194E+02  0.7546771E-02  0.2016731E+00
         21   -1    0    0  503  502  0.00000000000E+00  0.00000000000E+00  0.99098964382E+02  0.99098964382E+02  0.00000000000E+00 0. -1.
         21   -1    0    0  501  503 -0.00000000000E+00 -0.00000000000E+00 -0.23018542910E+01  0.23018542910E+01  0.00000000000E+00 0.  1.
          5    1    1    2  501    0  0.87426432896E+01 -0.49951299236E+01  0.14060233783E+02  0.17921085589E+02  0.47000000000E+01 0.  1.
         -5    1    1    2    0  502 -0.87426432896E+01  0.49951299236E+01  0.82736876307E+02  0.83479733084E+02  0.47000000000E+01 0. -1.
<mgrwt>
<rscale>  2 0.11111937E+02</rscale>
<asrwt>0</asrwt>
<pdfrwt beam="1">  1       21 0.15245991E-01 0.11111937E+02</pdfrwt>
<pdfrwt beam="2">  1       21 0.35413151E-03 0.11111937E+02</pdfrwt>
<totfact> 0.34300286E+08</totfact>
</mgrwt>
</event>
<event>
 4    1  0.4084348E+006  0.7397879E+01  0.7546771E-02  0.2262658E+00
         21   -1    0    0  501  502  0.00000000000E+00  0.00000000000E+00  0.12203983430E+02  0.12203983430E+02  0.00000000000E+00 0.  1.
         21   -1    0    0  502  503 -0.00000000000E+00 -0.00000000000E+00 -0.45521014410E+01  0.45521014410E+01  0.00000000000E+00 0. -1.
          5    1    1    2  501    0  0.56379852627E+01  0.92289431783E+00  0.48470087361E+01  0.88443261718E+01  0.47000000000E+01 0.  1.
         -5    1    1    2    0  503 -0.56379852627E+01 -0.92289431783E+00  0.28048732525E+01  0.79117586988E+01  0.47000000000E+01 0.  1.
<mgrwt>
<rscale>  2 0.73978789E+01</rscale>
<asrwt>0</asrwt>
<pdfrwt beam="1">  1       21 0.18775359E-02 0.73978789E+01</pdfrwt>
<pdfrwt beam="2">  1       21 0.70032330E-03 0.73978789E+01</pdfrwt>
<totfact> 0.25197678E+09</totfact>
</mgrwt>
</event>
<event>
 4    1  0.4084348E+006  0.4788510E+01  0.7546771E-02  0.2606097E+00
         21   -1    0    0  503  502  0.00000000000E+00  0.00000000000E+00  0.11972545593E+00  0.11972545593E+00  0.00000000000E+00 0. -1.
         21   -1    0    0  501  503 -0.00000000000E+00 -0.00000000000E+00 -0.11030311985E+04  0.11030311985E+04  0.00000000000E+00 0. -1.
          5    1    1    2  501    0 -0.24628723778E+00  0.88270701907E+00 -0.10528646200E+04  0.10528755092E+04  0.47000000000E+01 0. -1.
         -5    1    1    2    0  502  0.24628723778E+00 -0.88270701907E+00 -0.50046853031E+02  0.50275414741E+02  0.47000000000E+01 0. -1.
<mgrwt>
<rscale>  2 0.47885101E+01</rscale>
<asrwt>0</asrwt>
<pdfrwt beam="1">  1       21 0.18418927E-04 0.47885101E+01</pdfrwt>
<pdfrwt beam="2">  1       21 0.16970055E+00 0.47885101E+01</pdfrwt>
<totfact> 0.13381923E+08</totfact>
</mgrwt>
</event>
<event>
 4    1  0.4084348E+006  0.5439325E+01  0.7546771E-02  0.2494660E+00
         21   -1    0    0  501  502  0.00000000000E+00  0.00000000000E+00  0.26056252613E+03  0.26056252613E+03  0.00000000000E+00 0.  1.
         21   -1    0    0  502  503 -0.00000000000E+00 -0.00000000000E+00 -0.62164279460E+00  0.62164279460E+00  0.00000000000E+00 0.  1.
          5    1    1    2  501    0 -0.26719754145E+01  0.59733490810E+00  0.24803483118E+03  0.24809446536E+03  0.47000000000E+01 0.  1.
         -5    1    1    2    0  503  0.26719754145E+01 -0.59733490810E+00  0.11906052160E+02  0.13089703574E+02  0.47000000000E+01 0.  1.
<mgrwt>
<rscale>  2 0.54393255E+01</rscale>
<asrwt>0</asrwt>
<pdfrwt beam="1">  1       21 0.40086455E-01 0.54393255E+01</pdfrwt>
<pdfrwt beam="2">  1       21 0.95637561E-04 0.54393255E+01</pdfrwt>
<totfact> 0.26905257E+08</totfact>
</mgrwt>
</event>
<event>
 4    1  0.4084348E+006  0.5865611E+01  0.7546771E-02  0.2433250E+00
         21   -1    0    0  503  502  0.00000000000E+00  0.00000000000E+00  0.89294249737E+02  0.89294249737E+02  0.00000000000E+00 0. -1.
         21   -1    0    0  501  503 -0.00000000000E+00 -0.00000000000E+00 -0.45918181722E+00  0.45918181722E+00  0.00000000000E+00 0. -1.
          5    1    1    2  501    0  0.29008984904E+01  0.19748863977E+01  0.26416925852E+02  0.27060291200E+02  0.47000000000E+01 0. -1.
         -5    1    1    2    0  502 -0.29008984904E+01 -0.19748863977E+01  0.62418142068E+02  0.62693140355E+02  0.47000000000E+01 0. -1.
<mgrwt>
<rscale>  2 0.58656107E+01</rscale>
<asrwt>0</asrwt>
<pdfrwt beam="1">  1       21 0.13737563E-01 0.58656107E+01</pdfrwt>
<pdfrwt beam="2">  1       21 0.70643428E-04 0.58656107E+01</pdfrwt>
<totfact> 0.24715396E+09</totfact>
</mgrwt>
</event>
<event>
 4    1  0.4084348E+006  0.5702974E+01  0.7546771E-02  0.2455763E+00
         21   -1    0    0  503  502  0.00000000000E+00  0.00000000000E+00  0.97367475335E-01  0.97367475335E-01  0.00000000000E+00 0. -1.
         21   -1    0    0  501  503 -0.00000000000E+00 -0.00000000000E+00 -0.35206319956E+03  0.35206319956E+03  0.00000000000E+00 0. -1.
          5    1    1    2  501    0  0.20290869820E+01  0.25133084851E+01 -0.21583079211E+03  0.21590612482E+03  0.47000000000E+01 0. -1.
         -5    1    1    2    0  502 -0.20290869820E+01 -0.25133084851E+01 -0.13613503997E+03  0.13625444221E+03  0.47000000000E+01 0. -1.
<mgrwt>
<rscale>  2 0.57029741E+01</rscale>
<asrwt>0</asrwt>
<pdfrwt beam="1">  1       21 0.14979334E-04 0.57029741E+01</pdfrwt>
<pdfrwt beam="2">  1       21 0.54164574E-01 0.57029741E+01</pdfrwt>
<totfact> 0.19298211E+09</totfact>
</mgrwt>
</event>
<event>
 4    1  0.4084348E+006  0.5439548E+01  0.7546771E-02  0.2494626E+00
         21   -1    0    0  503  502  0.00000000000E+00  0.00000000000E+00  0.10600606875E+02  0.10600606875E+02  0.00000000000E+00 0.  1.
         21   -1    0    0  501  503 -0.00000000000E+00 -0.00000000000E+00 -0.27920608001E+01  0.27920608001E+01  0.00000000000E+00 0.  1.
          5    1    1    2  501    0  0.26351428989E+01 -0.74478465134E+00  0.40201090938E+01  0.67638716281E+01  0.47000000000E+01 0.  1.
         -5    1    1    2    0  502 -0.26351428989E+01  0.74478465134E+00  0.37884369812E+01  0.66287960472E+01  0.47000000000E+01 0.  1.
<mgrwt>
<rscale>  2 0.54395480E+01</rscale>
<asrwt>0</asrwt>
<pdfrwt beam="1">  1       21 0.16308626E-02 0.54395480E+01</pdfrwt>
<pdfrwt beam="2">  1       21 0.42954782E-03 0.54395480E+01</pdfrwt>
<totfact> 0.46819573E+09</totfact>
</mgrwt>
</event>
<event>
 4    1  0.4084348E+006  0.5507340E+01  0.7546771E-02  0.2484324E+00
         21   -1    0    0  501  502  0.00000000000E+00  0.00000000000E+00  0.23260522346E+01  0.23260522346E+01  0.00000000000E+00 0.  1.
         21   -1    0    0  502  503 -0.00000000000E+00 -0.00000000000E+00 -0.14808366159E+02  0.14808366159E+02  0.00000000000E+00 0. -1.
          5    1    1    2  501    0  0.62541078207E+00 -0.28017242822E+01 -0.32802780523E+01  0.64102278977E+01  0.47000000000E+01 0.  1.
         -5    1    1    2    0  503 -0.62541078207E+00  0.28017242822E+01 -0.92020358718E+01  0.10724190496E+02  0.47000000000E+01 0. -1.
<mgrwt>
<rscale>  2 0.55073403E+01</rscale>
<asrwt>0</asrwt>
<pdfrwt beam="1">  1       21 0.35785419E-03 0.55073403E+01</pdfrwt>
<pdfrwt beam="2">  1       21 0.22782102E-02 0.55073403E+01</pdfrwt>
<totfact> 0.37801350E+09</totfact>
</mgrwt>
</event>
<event>
 4    1  0.4084348E+006  0.5688727E+01  0.7546771E-02  0.2457787E+00
         21   -1    0    0  501  502  0.00000000000E+00  0.00000000000E+00  0.20204854265E+02  0.20204854265E+02  0.00000000000E+00 0.  1.
         21   -1    0    0  502  503 -0.00000000000E+00 -0.00000000000E+00 -0.17311795726E+01  0.17311795726E+01  0.00000000000E+00 0.  1.
          5    1    1    2  501    0 -0.28570308509E+01 -0.14522363134E+01  0.12236684559E+02  0.13494371589E+02  0.47000000000E+01 0.  1.
         -5    1    1    2    0  503  0.28570308509E+01  0.14522363134E+01  0.62369901339E+01  0.84416622488E+01  0.47000000000E+01 0.  1.
<mgrwt>
<rscale>  2 0.56887271E+01</rscale>
<asrwt>0</asrwt>
<pdfrwt beam="1">  1       21 0.31084390E-02 0.56887271E+01</pdfrwt>
<pdfrwt beam="2">  1       21 0.26633533E-03 0.56887271E+01</pdfrwt>
<totfact> 0.37292365E+09</totfact>
</mgrwt>
</event>
<event>
 4    1  0.4084348E+006  0.7090688E+01  0.7546771E-02  0.2291947E+00
         21   -1    0    0  503  502  0.00000000000E+00  0.00000000000E+00  0.31665237950E+01  0.31665237950E+01  0.00000000000E+00 0. -1.
         21   -1    0    0  501  503 -0.00000000000E+00 -0.00000000000E+00 -0.22440565756E+02  0.22440565756E+02  0.00000000000E+00 0. -1.
          5    1    1    2  501    0 -0.60978326509E+00 -0.52740896415E+01 -0.16560945541E+02  0.18015070758E+02  0.47000000000E+01 0. -1.
         -5    1    1    2    0  502  0.60978326509E+00  0.52740896415E+01 -0.27130964197E+01  0.75920187935E+01  0.47000000000E+01 0. -1.
<mgrwt>
<rscale>  2 0.70906881E+01</rscale>
<asrwt>0</asrwt>
<pdfrwt beam="1">  1       21 0.48715752E-03 0.70906881E+01</pdfrwt>
<pdfrwt beam="2">  1       21 0.34523946E-02 0.70906881E+01</pdfrwt>
<totfact> 0.16676174E+09</totfact>
</mgrwt>
</event>
<event>
 4    1  0.4084348E+006  0.5912551E+01  0.7546771E-02  0.2426946E+00
         21   -1    0    0  503  502  0.00000000000E+00  0.00000000000E+00  0.45750970723E+03  0.45750970723E+03  0.00000000000E+00 0. -1.
         21   -1    0    0  501  503 -0.00000000000E+00 -0.00000000000E+00 -0.80591146599E-01  0.80591146599E-01  0.00000000000E+00 0. -1.
          5    1    1    2  501    0  0.45779759502E+00 -0.35579037831E+01  0.17660018553E+03  0.17669913352E+03  0.47000000000E+01 0. -1.
         -5    1    1    2    0  502 -0.45779759502E+00  0.35579037831E+01  0.28082893055E+03  0.28089116485E+03  0.47000000000E+01 0. -1.
<mgrwt>
<rscale>  2 0.59125509E+01</rscale>
<asrwt>0</asrwt>
<pdfrwt beam="1">  1       21 0.70384030E-01 0.59125509E+01</pdfrwt>
<pdfrwt beam="2">  1       21 0.12399004E-04 0.59125509E+01</pdfrwt>
<totfact> 0.15676843E+09</totfact>
</mgrwt>
</event>
